Control file title. For DL_FIELD 4.10
49456
    1MOL     O1    1   7.356   3.527   3.505  0.2122  0.5428 -0.6099
    1MOL     C2    2   7.273   3.558   3.615 -0.2308  0.6474  0.3617
    1MOL     C3    3   7.245   3.431   3.689 -0.6415 -0.2617 -0.2946
    1MOL     O4    4   7.371   3.361   3.695 -0.7081 -0.2291  0.0010
    1MOL     C5    5   7.172   3.439   3.823 -0.9392  0.3064  0.4040
    1MOL     C6    6   7.134   3.299   3.853  0.5375  0.6892  0.0120
    1MOL     C7    7   7.044   3.272   3.976 -0.1179 -0.1460  0.1721
    1MOL     O8    8   7.007   3.138   3.969 -0.0584  0.3822  0.2646
    1MOL     C9    9   6.918   3.365   3.983  0.2905 -0.5914  0.2625
    1MOL    C10   10   6.834   3.354   4.116  0.4529  0.3430 -0.2502
    1MOL    C11   11   6.954   3.511   3.947 -0.4016  0.2269 -0.1073
    1MOL    C12   12   7.046   3.521   3.817  0.0681  0.3247  0.4874
    1MOL    H13   13   7.175   3.597   3.585 -1.4644 -1.3407  1.6781
    1MOL    H14   14   7.321   3.638   3.670  2.9720 -0.0399 -1.3319
    1MOL    H15   15   7.181   3.367   3.628 -0.9637 -2.7508  2.5339
    1MOL    H16   16   7.413   3.413   3.628 -1.3537  1.0749  0.5877
    1MOL    H17   17   7.237   3.476   3.903 -0.4689 -0.2200  0.2674
    1MOL    H18   18   7.074   3.270   3.767  1.9834  0.1251 -0.8327
    1MOL    H19   19   7.219   3.231   3.860 -1.4176 -1.8737 -0.4571
    1MOL    H20   20   7.107   3.287   4.064  0.3629  0.9686 -0.3543
    1MOL    H21   21   7.078   3.085   4.000  1.5477  1.7396 -1.0365
    1MOL    H22   22   6.849   3.335   3.905 -1.6617  1.1327  1.2707
    1MOL    H23   23   6.777   3.262   4.118  0.0263  0.6060  3.8695
    1MOL    H24   24   6.907   3.345   4.197  1.6487  1.9198 -1.1052
    1MOL    H25   25   7.028   3.541   4.021 -0.1247  0.5117 -0.5013
    1MOL    H26   26   6.874   3.582   3.970 -0.4434 -0.1636  1.0093
    1MOL    H27   27   7.067   3.622   3.783  1.4557 -0.3551 -0.7056
    1MOL    H28   28   6.992   3.489   3.728  0.5002  1.4697 -0.2045
    1MOL    H29   29   7.298   3.493   3.438 -0.8516 -1.6689  1.3706
    1MOL    O30   30   6.735   3.448   4.142 -0.1514 -0.8336  0.4965
    1MOL    C31   31   6.760   3.534   4.258  0.6704  0.2064  0.5075
    1MOL    C32   32   6.643   3.625   4.304 -0.1318 -1.5328  0.0924
    1MOL    O33   33   6.577   3.561   4.408 -0.0488 -0.0191  0.6427
    1MOL    C34   34   6.696   3.766   4.347 -0.7032  0.5715 -0.1373
    1MOL    C35   35   6.788   3.772   4.476 -0.3419  0.0028  0.1871
    1MOL    C36   36   6.823   3.920   4.489 -0.4646  0.2826 -0.8196
    1MOL    O37   37   6.919   3.928   4.593 -0.1912 -0.0913  0.8457
    1MOL    C38   38   6.702   4.007   4.506  0.1832 -0.1649 -0.2808
    1MOL    C39   39   6.736   4.155   4.510  0.6944  0.0177  0.1406
    1MOL    C40   40   6.603   3.998   4.388  0.5206 -0.0357 -0.1465
    1MOL    C41   41   6.572   3.852   4.365  0.1242  0.6752  0.6884
    1MOL    H42   42   6.840   3.605   4.235  0.5088  0.5455  0.9886
    1MOL    H43   43   6.801   3.487   4.347 -0.4808 -0.6776  0.5867
    1MOL    H44   44   6.575   3.648   4.222  0.8595  3.3216  0.4858
    1MOL    H45   45   6.509   3.503   4.378 -1.2014  2.2416 -1.2743
    1MOL    H46   46   6.747   3.808   4.261  0.5119  0.7917  0.6800
    1MOL    H47   47   6.739   3.743   4.569 -1.3125 -0.5004 -0.4655
    1MOL    H48   48   6.881   3.718   4.459  0.1508  0.6910  0.6518
    1MOL    H49   49   6.864   3.947   4.392  1.0302  2.9431  0.4948
    1MOL    H50   50   6.957   4.013   4.574  0.1762 -0.6864 -1.1800
    1MOL    H51   51   6.642   3.983   4.595  2.0511 -2.6098  0.3634
    1MOL    H52   52   6.649   4.208   4.548 -0.4366  1.6725 -4.3863
    1MOL    H53   53   6.808   4.178   4.588 -2.1884  1.5984  2.4205
    1MOL    H54   54   6.663   4.033   4.304 -1.6047 -0.2208 -1.7845
    1MOL    H55   55   6.521   4.067   4.407 -0.2799 -1.1899  0.6628
    1MOL    H56   56   6.514   3.838   4.273 -0.7628 -1.1985  1.5079
    1MOL    H57   57   6.516   3.809   4.447  0.9799 -1.7704  0.0309
    1MOL    O58   58   6.788   4.208   4.390  0.4783  0.1381  0.0909
    1MOL    C59   59   6.814   4.347   4.403 -0.8153  0.0109  0.1276
    1MOL    C60   60   6.892   4.393   4.277 -0.0111 -0.7277  0.2819
    1MOL    O61   61   6.937   4.525   4.297 -0.1780 -0.5227 -0.3769
    1MOL    C62   62   7.015   4.305   4.249 -0.3626  0.4601 -0.0650
    1MOL    C63   63   7.108   4.304   4.372  0.8584  0.2306  0.1614
    1MOL    C64   64   7.243   4.244   4.345  0.4629  0.1381  0.4871
    1MOL    O65   65   7.327   4.263   4.458  0.0194  0.1859 -0.1466
    1MOL    C66   66   7.317   4.307   4.225 -0.7522  0.5096 -0.6533
    1MOL    C67   67   7.463   4.254   4.196  0.4294  0.0673 -0.6166
    1MOL    C68   68   7.224   4.280   4.111  0.2309 -0.0221  0.0139
    1MOL    C69   69   7.088   4.352   4.123 -0.7332 -0.0039  0.2511
    1MOL    H70   70   6.868   4.378   4.492  0.1826 -1.4722  0.0579
    1MOL    H71   71   6.714   4.389   4.396 -0.5099  0.5315 -1.5219
    1MOL    H72   72   6.824   4.404   4.193 -0.5943 -0.0836  0.8375
    1MOL    H73   73   6.999   4.543   4.227 -1.4969 -1.4606 -1.8198
    1MOL    H74   74   6.981   4.202   4.236  1.4471  0.0105 -1.3651
    1MOL    H75   75   7.133   4.406   4.400 -1.8362  1.0827 -0.4410
    1MOL    H76   76   7.059   4.244   4.448 -0.3010 -2.0838 -2.3092
    1MOL    H77   77   7.232   4.136   4.337 -1.2908  0.1403  2.3842
    1MOL    H78   78   7.402   4.205   4.461 -0.1299 -0.0554 -0.9456
    1MOL    H79   79   7.330   4.415   4.237 -1.2507  0.5330 -0.2927
    1MOL    H80   80   7.526   4.291   4.277  0.2633 -0.3836 -0.2772
    1MOL    H81   81   7.456   4.146   4.211  2.2240 -0.0930 -0.8681
    1MOL    H82   82   7.205   4.173   4.104 -1.3476  0.3268 -1.5387
    1MOL    H83   83   7.273   4.308   4.017  0.2555 -2.0502 -0.5958
    1MOL    H84   84   7.031   4.347   4.030  0.4603  1.0512 -0.5481
    1MOL    H85   85   7.119   4.456   4.133 -2.8090  0.7914 -1.0888
    1MOL    O86   86   7.514   4.293   4.063 -0.3537  0.8569  0.2955
    1MOL    C87   87   0.022   4.286   4.059  0.1548 -0.1593  0.4676
    1MOL    C88   88   0.049   4.291   3.910 -0.0910  0.6416  0.7855
    1MOL    O89   89   0.073   4.422   3.864  0.5065  0.0944 -0.2047
    1MOL    C90   90   0.169   4.193   3.865  0.1838  0.5310  0.3236
    1MOL    C91   91   0.306   4.223   3.924 -0.9375 -0.5936  0.0381
    1MOL    C92   92   0.411   4.107   3.895 -0.3769 -0.0656 -0.3066
    1MOL    O93   93   0.528   4.154   3.953  0.1694 -0.0303 -0.2856
    1MOL    C94   94   0.423   4.096   3.734 -0.6147  0.7600  0.2708
    1MOL    C95   95   0.531   3.991   3.684 -0.0092  0.2099 -0.4206
    1MOL    C96   96   0.282   4.061   3.683  0.2893 -0.2445 -0.2175
    1MOL    C97   97   0.170   4.165   3.717 -0.7167 -0.0604 -0.1153
    1MOL    H98   98   0.055   4.186   4.088 -1.3907 -0.5740  0.8157
    1MOL    H99   99   0.067   4.364   4.121  0.3656  0.4857 -0.4912
    1MOL   H100  100   7.600   4.262   3.841  2.2188  0.4704 -1.8084
    1MOL   H101  101   7.619   4.463   3.846  0.0666 -0.3592  0.7758
    1MOL   H102  102   0.137   4.101   3.916 -1.5076  1.3293  0.7614
    1MOL   H103  103   0.321   4.319   3.874 -2.0139  0.9370  2.4996
    1MOL   H104  104   0.291   4.251   4.029  0.1649  1.3333 -0.2957
    1MOL   H105  105   0.377   4.011   3.935 -2.6369  1.1576  0.7881
    1MOL   H106  106   0.595   4.130   3.890  0.2589  0.1552 -0.2617
    1MOL   H107  107   0.440   4.199   3.702 -1.1745  1.8622  3.3799
    1MOL   H108  108   0.504   3.894   3.725 -0.5354 -0.7102 -2.8947
    1MOL   H109  109   0.507   3.985   3.578  0.6332 -3.4275 -0.4045
    1MOL   H110  110   0.258   3.961   3.720  1.6587  0.3377  2.3077
    1MOL   H111  111   0.278   4.042   3.576 -0.5805 -1.2621 -0.0196
    1MOL   H112  112   0.075   4.127   3.677 -0.3904  0.3952 -1.3611
    1MOL   H113  113   0.184   4.261   3.668 -2.1338  1.0022  1.5450
    1MOL   O114  114   0.665   4.039   3.700  0.7531  0.0930  0.9117
    1MOL   C115  115   0.752   4.004   3.584 -0.4459 -0.1563  0.4171
    1MOL   C116  116   0.800   3.856   3.586 -0.1780  0.3573  0.7267
    1MOL   O117  117   0.691   3.771   3.555  0.3008  0.1156  0.0284
    1MOL   C118  118   0.912   3.823   3.493  0.9021  0.0951 -0.9476
    1MOL   C119  119   0.865   3.822   3.343  0.4014 -0.3062 -0.8758
    1MOL   C120  120   0.966   3.754   3.245  0.2164  0.0150  0.5589
    1MOL   O121  121   0.900   3.740   3.116 -0.1911  0.1377  0.5098
    1MOL   C122  122   1.047   3.628   3.294 -0.0636  0.1180 -0.1591
    1MOL   C123  123   1.165   3.586   3.204 -0.2631 -0.1339 -0.4813
    1MOL   C124  124   1.096   3.656   3.439 -0.4676 -0.1835  0.1458
    1MOL   C125  125   0.986   3.696   3.540  0.4221  0.2873 -0.1875
    1MOL   H126  126   0.832   4.077   3.598 -0.3526  0.2941 -2.2459
    1MOL   H127  127   0.705   4.015   3.487  2.3585  1.2618 -0.8507
    1MOL   H128  128   0.837   3.842   3.687  0.3639  0.9626  0.6189
    1MOL   H129  129   0.715   3.680   3.550  0.2541  0.2166 -2.5123
    1MOL   H130  130   0.982   3.906   3.507 -1.6764  2.4193 -1.2273
    1MOL   H131  131   0.781   3.752   3.342 -0.9176  1.2533 -1.5065
    1MOL   H132  132   0.819   3.911   3.301 -1.6404 -0.7042  0.4590
    1MOL   H133  133   1.036   3.836   3.230  0.2324 -0.1908 -0.5392
    1MOL   H134  134   0.892   3.822   3.070  0.8470  0.0479  0.1452
    1MOL   H135  135   0.988   3.537   3.306  1.2006 -0.4648  1.9558
    1MOL   H136  136   1.129   3.545   3.110 -0.2802 -1.0810 -0.0710
    1MOL   H137  137   1.228   3.672   3.182 -1.4674  1.1881  1.0935
    1MOL   H138  138   1.169   3.738   3.431  0.3891 -1.0552 -1.0838
    1MOL   H139  139   1.151   3.571   3.480  3.1731  1.6041 -0.7874
    1MOL   H140  140   1.025   3.711   3.641 -1.4150  1.1225  0.4276
    1MOL   H141  141   0.912   3.616   3.550 -0.2445  1.2215  2.8548
    1MOL   O142  142   1.231   3.485   3.273  0.4821 -0.1865 -0.6988
    1MOL   C143  143   1.353   3.450   3.216  0.3674  0.4235 -0.4171
    1MOL   C144  144   1.431   3.360   3.328  0.2917 -1.2525  0.6440
    1MOL   O145  145   1.352   3.243   3.352  0.4465 -0.7883 -0.3338
    1MOL   C146  146   1.571   3.310   3.273  0.0793  0.6169 -0.2947
    1MOL   C147  147   1.571   3.192   3.173 -0.6245  0.1424 -0.0608
    1MOL   C148  148   1.709   3.159   3.118 -0.4352  0.1304 -0.0740
    1MOL   O149  149   1.703   3.057   3.016 -0.5918  0.2893 -0.0051
    1MOL   C150  150   1.803   3.120   3.237 -0.3641 -0.4723 -0.6573
    1MOL   C151  151   1.948   3.104   3.183 -0.0606  0.2576  0.3719
    1MOL   C152  152   1.801   3.224   3.347  0.3933  0.1354 -0.2883
    1MOL   C153  153   1.657   3.259   3.393 -0.5395  0.0320 -0.1640
    1MOL   H154  154   1.415   3.535   3.186  1.8455 -1.8658 -4.1866
    1MOL   H155  155   1.330   3.396   3.125  0.2997 -0.1328 -0.0677
    1MOL   H156  156   1.429   3.421   3.418 -0.6186  2.5223 -1.8138
    1MOL   H157  157   1.271   3.280   3.385  0.3605 -0.8191 -0.5086
    1MOL   H158  158   1.613   3.397   3.224 -1.5608  0.5267 -1.9085
    1MOL   H159  159   1.520   3.106   3.217  1.4388 -0.9921  0.2147
    1MOL   H160  160   1.506   3.224   3.092  1.8951  2.2946 -1.2929
    1MOL   H161  161   1.741   3.245   3.059 -1.4285 -0.2522 -1.2039
    1MOL   H162  162   1.662   2.980   3.053 -1.8884  0.3773 -1.1985
    1MOL   H163  163   1.777   3.022   3.276 -1.8723  0.8719  1.8663
    1MOL   H164  164   2.015   3.072   3.263  1.0802  2.1982  0.2263
    1MOL   H165  165   1.963   3.031   3.105  0.7104 -1.0925  1.7547
    1MOL   H166  166   1.846   3.317   3.314  0.4834 -0.5298 -2.0792
    1MOL   H167  167   1.863   3.181   3.426 -1.3683  1.3485  1.8187
    1MOL   H168  168   1.657   3.336   3.470 -3.8829 -0.9061  0.8641
    1MOL   H169  169   1.608   3.174   3.441  2.4179 -1.5792  0.1791
    1MOL   O170  170   1.994   3.231   3.127  0.3759 -0.5870 -0.5543
    1MOL   C171  171   2.120   3.218   3.057  0.3059 -0.3949  0.0042
    1MOL   C172  172   2.152   3.359   3.002  0.1477 -0.1608  0.2634
    1MOL   O173  173   2.030   3.398   2.940 -0.5101  0.1497  0.5628
    1MOL   C174  174   2.204   3.465   3.104  0.6663 -0.5370  0.5021
    1MOL   C175  175   2.342   3.431   3.156 -0.0504  0.2402  0.1554
    1MOL   C176  176   2.387   3.554   3.238 -0.6593  0.7598  0.5370
    1MOL   O177  177   2.517   3.522   3.278 -0.1696  0.0665  0.1844
    1MOL   C178  178   2.295   3.577   3.357  0.0004  0.0736  0.3641
    1MOL   C179  179   2.333   3.704   3.438 -0.0355  1.0215 -0.0028
    1MOL   C180  180   2.146   3.592   3.311  0.1608  0.0104  0.6651
    1MOL   C181  181   2.108   3.481   3.223  0.5376 -0.4413 -0.7136
    1MOL   H182  182   2.110   3.152   2.971  0.6852 -2.4326  1.4795
    1MOL   H183  183   2.216   3.191   3.101  1.0598  0.6417 -0.9448
    1MOL   H184  184   2.230   3.352   2.926  0.2983  0.1083  0.3948
    1MOL   H185  185   1.961   3.371   2.999 -0.3316 -0.3286  0.5495
    1MOL   H186  186   2.214   3.556   3.045  0.6050 -1.8386 -1.5866
    1MOL   H187  187   2.330   3.337   3.211  0.3778  0.8380  1.2867
    1MOL   H188  188   2.406   3.403   3.073 -1.0714  1.9294 -1.2303
    1MOL   H189  189   2.395   3.642   3.173 -1.1287 -1.0662 -2.0538
    1MOL   H190  190   2.557   3.487   3.200  0.5661  0.9162  0.1694
    1MOL   H191  191   2.282   3.490   3.421  0.3086 -1.9687 -2.2955
    1MOL   H192  192   2.438   3.698   3.467 -0.1320  0.2296  0.1808
    1MOL   H193  193   2.298   3.792   3.384  2.7201  1.5384 -1.0699
    1MOL   H194  194   2.122   3.689   3.268 -2.8112  0.9545  4.2058
    1MOL   H195  195   2.077   3.597   3.396 -3.0583  0.9234 -1.9160
    1MOL   H196  196   2.011   3.504   3.178 -0.5193 -2.8048  0.2603
    1MOL   H197  197   2.108   3.385   3.274  0.5388  0.0350  0.1903
    1MOL   O198  198   2.255   3.693   3.557  0.0988  0.1287 -0.6908
    1MOL   C199  199   2.263   3.813   3.636 -0.0091  0.3319 -0.0432
    1MOL   C200  200   2.185   3.794   3.771  0.2561  1.1215  0.2560
    1MOL   O201  201   2.272   3.719   3.856  0.1724  0.1942  0.1571
    1MOL   C202  202   2.136   3.911   3.869  0.1667 -0.2448  0.0501
    1MOL   C203  203   2.054   3.863   3.994  0.1222  0.1129 -0.3004
    1MOL   C204  204   2.017   3.976   4.089 -0.8078  0.0739  0.2908
    1MOL   O205  205   1.934   3.924   4.191 -0.2777  0.4713  0.0364
    1MOL   C206  206   1.950   4.100   4.018  0.0178 -0.2847  0.3577
    1MOL   C207  207   1.907   4.219   4.107 -0.0737  0.2540  0.2306
    1MOL   C208  208   2.028   4.138   3.893  0.0356 -0.2651 -0.4955
    1MOL   C209  209   2.060   4.025   3.798  0.7168 -1.2735  0.0772
    1MOL   H210  210   2.206   3.885   3.578  0.1218 -1.1397 -2.0652
    1MOL   H211  211   2.364   3.854   3.644 -0.3658  0.9672  1.3725
    1MOL   H212  212   2.100   3.729   3.749 -0.4076  1.4289  1.8139
    1MOL   H213  213   2.295   3.639   3.811 -2.7523 -1.8559  2.1168
    1MOL   H214  214   2.227   3.958   3.905 -2.2611  2.2452  3.3687
    1MOL   H215  215   1.965   3.809   3.960 -1.1243  0.9329  1.5686
    1MOL   H216  216   2.110   3.785   4.045 -0.1125 -2.3568 -3.6085
    1MOL   H217  217   2.107   4.009   4.141 -1.2338  1.1603  0.3503
    1MOL   H218  218   1.990   3.869   4.244  0.5624 -0.3273 -1.6288
    1MOL   H219  219   1.854   4.062   3.984 -0.5669  0.5439  1.0795
    1MOL   H220  220   1.855   4.285   4.039  1.0274  0.1401 -0.7465
    1MOL   H221  221   1.825   4.189   4.173 -1.1685  0.8440 -0.8482
    1MOL   H222  222   2.121   4.183   3.926 -0.4831  0.3909  0.0804
    1MOL   H223  223   1.967   4.217   3.848 -2.7345 -2.1772 -0.2265
    1MOL   H224  224   2.125   4.063   3.719  1.8030  0.8285  1.9200
    1MOL   H225  225   1.973   3.989   3.744  0.3427  2.1435 -1.7080
    1MOL   O226  226   2.016   4.276   4.178  0.1583 -0.2868 -0.3758
    1MOL   C227  227   2.021   4.263   4.323 -0.2096  0.4689  0.2788
    1MOL   C228  228   2.103   4.374   4.388 -0.6790 -0.1224 -0.3281
    1MOL   O229  229   2.236   4.351   4.346  0.4505 -0.3004 -0.3893
    1MOL   C230  230   2.059   4.521   4.338  0.0553 -0.0463 -0.4070
    1MOL   C231  231   2.179   4.623   4.328  0.5485 -0.1833  0.1470
    1MOL   C232  232   2.125   4.758   4.278  0.7193 -0.8007  1.1113
    1MOL   O233  233   2.238   4.852   4.263 -0.3046  0.0029  0.1062
    1MOL   C234  234   2.029   4.818   4.380 -0.0629 -0.1444  0.8715
    1MOL   C235  235   1.973   4.956   4.349 -0.1396  0.0767 -0.0711
    1MOL   C236  236   1.909   4.722   4.403 -0.1024 -0.0153  0.2174
    1MOL   C237  237   1.955   4.578   4.436  0.3071 -0.0070  0.1337
    1MOL   H238  238   2.045   4.161   4.353  2.8647  1.1192  0.1350
    1MOL   H239  239   1.919   4.278   4.359  0.2678  1.8733  1.0517
    1MOL   H240  240   2.106   4.381   4.497  2.1212  1.0546 -0.4285
    1MOL   H241  241   2.228   4.292   4.273  0.0138 -0.2867 -0.3513
    1MOL   H242  242   2.011   4.524   4.240 -2.2969  0.4083  0.7175
    1MOL   H243  243   2.226   4.635   4.426 -1.9388  0.5799  1.2796
    1MOL   H244  244   2.248   4.583   4.254 -0.4269  0.8210 -1.3343
    1MOL   H245  245   2.077   4.754   4.180  2.1166 -0.7019  0.4141
    1MOL   H246  246   2.223   4.932   4.311  0.6645 -1.1895  2.4911
    1MOL   H247  247   2.073   4.834   4.478  0.2436 -0.5931  0.8061
    1MOL   H248  248   1.897   4.955   4.272  0.5839  0.4852 -0.8021
    1MOL   H249  249   1.920   4.993   4.437  1.8025  0.3082  1.0324
    1MOL   H250  250   1.842   4.718   4.318 -1.4114 -2.2723  1.3204
    1MOL   H251  251   1.843   4.759   4.481  1.0430 -0.0360  1.2212
    1MOL   H252  252   1.870   4.511   4.427 -0.1339  0.7633 -1.6578
    1MOL   H253  253   1.994   4.564   4.537  1.1968 -0.8993 -0.3193
    1MOL   O254  254   2.081   5.045   4.336  0.4842 -0.5319 -0.1146
    1MOL   C255  255   2.033   5.170   4.290 -0.2103 -0.4231  1.0617
    1MOL   C256  256   2.153   5.237   4.233 -0.4058  0.6344  0.3097
    1MOL   O257  257   2.229   5.265   4.350 -0.7055  0.5685 -0.2942
    1MOL   C258  258   2.226   5.158   4.119 -0.0103  0.0126  0.7383
    1MOL   C259  259   2.358   5.232   4.087  0.0440 -0.3139 -0.3437
    1MOL   C260  260   2.440   5.147   3.982  0.2957  0.0633  0.4145
    1MOL   O261  261   2.561   5.222   3.966 -0.2573 -0.1791  0.3892
    1MOL   C262  262   2.359   5.135   3.844 -0.3418  0.3197 -0.7306
    1MOL   C263  263   2.444   5.055   3.734  0.0180 -0.9655 -0.9262
    1MOL   C264  264   2.237   5.053   3.883 -0.0577  0.0527 -0.3137
    1MOL   C265  265   2.149   5.124   3.991  0.6454  0.0852 -0.0523
    1MOL   H266  266   1.986   5.224   4.372  1.5743  1.7589  0.7088
    1MOL   H267  267   1.957   5.165   4.212  0.7587  0.3530  0.0451
    1MOL   H268  268   2.119   5.333   4.193 -2.4666  0.7464  2.3026
    1MOL   H269  269   2.231   5.183   4.397 -0.8392  1.2732  0.9632
    1MOL   H270  270   2.257   5.060   4.156  1.6464  0.4130  0.4584
    1MOL   H271  271   2.336   5.328   4.040  0.3220 -1.5798 -3.1966
    1MOL   H272  272   2.414   5.245   4.180  2.9765 -0.0184 -2.0823
    1MOL   H273  273   2.472   5.052   4.024  0.4747 -0.9435 -1.9222
    1MOL   H274  274   2.566   5.280   4.040 -0.1155 -1.5238  1.4535
    1MOL   H275  275   2.332   5.238   3.821  0.5624  1.1173  1.6508
    1MOL   H276  276   2.537   5.111   3.719  0.1218 -1.4458 -2.1215
    1MOL   H277  277   2.478   4.953   3.755  0.6626 -0.4177  0.7425
    1MOL   H278  278   2.256   4.953   3.922  1.6225  1.2984  2.2308
    1MOL   H279  279   2.180   5.031   3.793 -0.4046  1.2641 -0.3993
    1MOL   H280  280   2.068   5.053   4.006  1.3217 -0.8884 -0.9619
    1MOL   H281  281   2.094   5.206   3.944 -1.1348 -1.5355 -0.8788
    1MOL   O282  282   2.381   5.070   3.606 -0.0541  0.3648  0.2253
    1MOL   C283  283   2.455   5.020   3.503 -1.0200  0.4396 -0.1537
    1MOL   C284  284   2.363   4.951   3.403  0.2561  0.0693 -0.1728
    1MOL   O285  285   2.429   4.909   3.288  0.0495 -0.3974  0.4514
    1MOL   C286  286   2.277   4.833   3.453 -0.9284 -0.0063  0.3600
    1MOL   C287  287   2.346   4.708   3.506  0.6819  0.0098 -0.8475
    1MOL   C288  288   2.248   4.620   3.584  0.0683 -0.1148  0.2251
    1MOL   O289  289   2.316   4.506   3.626  0.1671  0.1008  0.2997
    1MOL   C290  290   2.129   4.575   3.499 -0.0710  0.6381  0.4282
    1MOL   C291  291   2.012   4.509   3.576  0.4049  0.2841  0.0678
    1MOL   C292  292   2.060   4.696   3.433 -0.1472  0.1042  0.1423
    1MOL   C293  293   2.158   4.790   3.361  0.9969  0.7112 -0.2049
    1MOL   H294  294   2.534   4.956   3.543 -2.9299 -0.9238  1.5666
    1MOL   H295  295   2.512   5.099   3.456  0.9301 -0.2798  0.9700
    1MOL   H296  296   2.295   5.032   3.377 -2.2137 -1.6443  0.6714
    1MOL   H297  297   2.396   4.957   3.213  1.0107 -0.7774 -0.2315
    1MOL   H298  298   2.233   4.881   3.541 -0.3497 -0.3873  0.8664
    1MOL   H299  299   2.401   4.646   3.436 -1.8040 -0.6197 -2.2752
    1MOL   H300  300   2.424   4.742   3.574  2.8686 -3.1974 -1.6663
    1MOL   H301  301   2.223   4.676   3.674  1.1080  0.8930 -0.0956
    1MOL   H302  302   2.378   4.535   3.691  0.4744  0.7347 -0.2716
    1MOL   H303  303   2.176   4.508   3.427 -1.5271 -0.5581  0.5587
    1MOL   H304  304   1.925   4.492   3.512  0.3377  0.0008  0.2344
    1MOL   H305  305   2.055   4.413   3.602 -0.7525  0.0824  1.3125
    1MOL   H306  306   1.997   4.753   3.501 -0.2849 -0.0201  0.1195
    1MOL   H307  307   1.999   4.654   3.352  1.9268 -1.0847 -0.8542
    1MOL   H308  308   2.107   4.869   3.306  0.2643 -0.3597 -1.0678
    1MOL   H309  309   2.202   4.732   3.279  1.3330  0.5479  0.0894
    1MOL   O310  310   1.984   4.591   3.683  0.0298  0.8089  0.0338
    1MOL   C311  311   1.999   4.525   3.809  0.4742  0.2288  0.3551
    1MOL   C312  312   1.973   4.637   3.911  0.6373  0.3349  0.2335
    1MOL   O313  313   2.056   4.744   3.868  0.7502 -0.2304  0.4268
    1MOL   C314  314   1.824   4.685   3.907  0.0463 -0.5709 -0.0387
    1MOL   C315  315   1.806   4.809   3.988 -0.2802 -0.4804  0.0966
    1MOL   C316  316   1.668   4.849   4.016  0.0107  0.7282  0.3561
    1MOL   O317  317   1.668   4.968   4.085 -0.3054 -0.2602  0.2368
    1MOL   C318  318   1.586   4.743   4.084  0.1885  0.5307 -0.2701
    1MOL   C319  319   1.441   4.791   4.111 -0.3834  0.2735  0.0217
    1MOL   C320  320   1.588   4.617   3.987  0.3990 -0.4220  0.1381
    1MOL   C321  321   1.734   4.569   3.961  0.4586 -0.0289 -0.2615
    1MOL   H322  322   2.100   4.484   3.820  0.1692 -0.0563  2.1381
    1MOL   H323  323   1.929   4.443   3.822  2.1582 -1.5003 -1.0920
    1MOL   H324  324   1.991   4.595   4.010 -0.4234 -0.2874  0.1667
    1MOL   H325  325   2.066   4.736   3.774 -0.7720  1.2221  0.1172
    1MOL   H326  326   1.795   4.708   3.805  0.4406  2.5093  0.5070
    1MOL   H327  327   1.856   4.795   4.084  0.9534 -1.3090 -0.6656
    1MOL   H328  328   1.859   4.892   3.941 -0.9023 -0.0506  0.1437
    1MOL   H329  329   1.620   4.856   3.918  0.4770 -0.5134  0.0274
    1MOL   H330  330   1.705   4.947   4.169  0.0349 -1.3908 -0.1959
    1MOL   H331  331   1.628   4.706   4.177  0.7476 -2.7720 -1.7672
    1MOL   H332  332   1.374   4.795   4.025  0.8596  0.2387 -0.9590
    1MOL   H333  333   1.389   4.717   4.172 -2.0652  2.1671  0.9827
    1MOL   H334  334   1.550   4.638   3.887  0.9977 -3.5195 -0.7808
    1MOL   H335  335   1.538   4.527   4.023 -2.4329  1.0491  0.0405
    1MOL   H336  336   1.733   4.490   3.886  0.1532 -1.5336  1.2915
    1MOL   H337  337   1.778   4.526   4.051  1.6044  1.3014 -0.1871
    1MOL   O338  338   1.438   4.916   4.181  0.1650 -0.2115  0.5631
    1MOL   C339  339   1.310   4.974   4.194 -0.2645  0.3917 -0.4365
    1MOL   C340  340   1.308   5.089   4.082  0.1359  0.5283  0.5760
    1MOL   O341  341   1.427   5.154   4.097 -0.3852 -0.2594  0.6115
    1MOL   C342  342   1.284   5.045   3.931 -0.8045 -0.1265 -0.4306
    1MOL   C343  343   1.292   5.167   3.840 -0.5009 -0.2145 -0.7543
    1MOL   C344  344   1.281   5.139   3.685  0.4496 -0.1792 -0.4047
    1MOL   O345  345   1.273   5.268   3.617  0.1755  0.8551 -0.3975
    1MOL   C346  346   1.149   5.058   3.653 -0.0833  0.9125 -1.1082
    1MOL   C347  347   1.129   5.014   3.503  0.3263  0.5822  0.2546
    1MOL   C348  348   1.125   4.946   3.756  0.4431  0.3288 -0.2647
    1MOL   C349  349   1.147   4.976   3.904 -0.3895  0.2186  0.0618
    1MOL   H350  350   1.313   5.007   4.297  1.6695  0.6088 -0.5293
    1MOL   H351  351   1.225   4.907   4.186 -0.5107  0.3957  1.8752
    1MOL   H352  352   1.218   5.141   4.115 -0.5240  1.2054 -2.1071
    1MOL   H353  353   1.494   5.088   4.093  0.0795  0.1646  1.1792
    1MOL   H354  354   1.364   4.979   3.897  0.1423  0.2732  0.9577
    1MOL   H355  355   1.211   5.238   3.859  1.8243  2.3240  0.0827
    1MOL   H356  356   1.388   5.216   3.856 -1.3644  1.7678 -1.4735
    1MOL   H357  357   1.360   5.070   3.656 -1.2469 -1.7378 -1.4187
    1MOL   H358  358   1.264   5.234   3.530 -0.5011 -2.0026  0.7195
    1MOL   H359  359   1.069   5.128   3.675 -1.3386 -0.8735  0.0548
    1MOL   H360  360   1.206   4.938   3.494  0.5453  0.6458  1.4718
    1MOL   H361  361   1.041   4.956   3.477  1.4669 -1.1476  0.2088
    1MOL   H362  362   1.190   4.867   3.719  0.9854  0.7529 -0.2113
    1MOL   H363  363   1.027   4.900   3.742  1.1814 -1.7583  1.0561
    1MOL   H364  364   1.137   4.880   3.955 -1.5223  0.5677  0.4975
    1MOL   H365  365   1.065   5.041   3.934 -1.1330 -0.3176 -0.7733
    1MOL   O366  366   1.155   5.116   3.414  0.4622 -0.2005 -0.1974
    1MOL   C367  367   1.261   5.103   3.323  0.1306  0.1796 -0.1729
    1MOL   C368  368   1.259   5.232   3.240 -0.5435 -0.8480 -0.0275
    1MOL   O369  369   1.308   5.333   3.327  0.0887  0.1209  0.5174
    1MOL   C370  370   1.323   5.218   3.104  0.2399  0.0089 -0.0395
    1MOL   C371  371   1.478   5.207   3.114 -0.1389 -0.6241 -0.0916
    1MOL   C372  372   1.556   5.199   2.978  0.0152 -0.0072 -0.3124
    1MOL   O373  373   1.699   5.195   2.997 -0.2975 -0.2725  0.2710
    1MOL   C374  374   1.518   5.320   2.888 -0.4943  0.0342 -0.0233
    1MOL   C375  375   1.586   5.321   2.748  0.3772  0.4230 -0.0236
    1MOL   C376  376   1.365   5.333   2.884 -0.4256 -0.0473  0.2111
    1MOL   C377  377   1.297   5.343   3.020  0.2843  0.3860 -0.2292
    1MOL   H378  378   1.224   5.023   3.259 -0.1854 -0.4808  0.8127
    1MOL   H379  379   1.353   5.073   3.374 -0.3758  1.7595  1.7280
    1MOL   H380  380   1.153   5.248   3.223 -0.6272 -0.4162  0.8711
    1MOL   H381  381   1.283   5.423   3.310 -0.5787  0.1007  1.3105
    1MOL   H382  382   1.280   5.134   3.049 -2.2596 -0.3230  2.2820
    1MOL   H383  383   1.508   5.299   3.165 -1.8635 -1.2231  2.1287
    1MOL   H384  384   1.501   5.117   3.172 -2.0257 -0.7704  0.4635
    1MOL   H385  385   1.523   5.113   2.919 -1.9413  0.2832  0.3277
    1MOL   H386  386   1.741   5.167   2.917 -0.6637  0.4718 -0.1865
    1MOL   H387  387   1.555   5.407   2.942 -1.6079  1.0035 -0.8151
    1MOL   H388  388   1.693   5.301   2.746 -0.2097 -2.8337 -0.7556
    1MOL   H389  389   1.541   5.243   2.686  1.9558 -0.7835  0.3140
    1MOL   H390  390   1.319   5.242   2.846 -1.1716 -0.2613  1.5936
    1MOL   H391  391   1.338   5.414   2.817 -0.1029 -0.0209  0.1101
    1MOL   H392  392   1.191   5.361   3.007  0.7027  0.9193 -3.2308
    1MOL   H393  393   1.334   5.429   3.076 -0.8048 -0.0390  1.1557
    1MOL   O394  394   1.566   5.451   2.702 -0.2770  0.0500 -0.2899
    1MOL   C395  395   1.611   5.465   2.568 -0.3190  0.0803  0.1285
    1MOL   C396  396   1.621   5.615   2.537 -0.1065  0.5621  0.2469
    1MOL   O397  397   1.698   5.643   2.416 -0.3049 -0.2758  0.7892
    1MOL   C398  398   1.482   5.685   2.528 -0.1920  0.3762 -0.0930
    1MOL   C399  399   1.410   5.665   2.389 -0.1614  0.2439  0.5073
    1MOL   C400  400   1.273   5.732   2.378 -0.4565  0.3670 -0.5957
    1MOL   O401  401   1.240   5.707   2.243 -0.1745 -0.0920 -0.2376
    1MOL   C402  402   1.278   5.883   2.416  0.7336 -0.0184 -0.4802
    1MOL   C403  403   1.130   5.933   2.418  0.2569  0.3573  0.3230
    1MOL   C404  404   1.346   5.902   2.552  0.3756  0.0129  0.4357
    1MOL   C405  405   1.489   5.838   2.549  0.8243 -0.1938  0.4846
    1MOL   H406  406   1.544   5.418   2.495  0.8136  0.9072 -1.4666
    1MOL   H407  407   1.707   5.421   2.543 -1.0417 -1.4943  0.0648
    1MOL   H408  408   1.667   5.661   2.624 -0.7509  0.4921  0.6306
    1MOL   H409  409   1.784   5.607   2.427 -0.6831 -2.2415 -2.0885
    1MOL   H410  410   1.434   5.626   2.606  1.3636 -2.8538 -1.4888
    1MOL   H411  411   1.477   5.699   2.310 -1.5523  1.1623 -0.2997
    1MOL   H412  412   1.405   5.557   2.378 -0.7407  0.3610 -0.4164
    1MOL   H413  413   1.209   5.676   2.446  1.3887 -0.1229  0.7501
    1MOL   H414  414   1.182   5.775   2.213  1.0745  0.8590 -0.5623
    1MOL   H415  415   1.338   5.938   2.343 -0.8527  0.6816 -1.2670
    1MOL   H416  416   1.081   5.912   2.323  1.7022 -0.0736 -0.3435
    1MOL   H417  417   1.083   5.886   2.504  0.7140  1.1676  1.0289
    1MOL   H418  418   1.280   5.855   2.625  2.3363 -1.4543  1.3147
    1MOL   H419  419   1.346   6.008   2.580  2.1439  0.8851 -2.6819
    1MOL   H420  420   1.538   5.864   2.643 -2.4874 -0.5129  2.3474
    1MOL   H421  421   1.556   5.881   2.474  2.3851 -2.1058  0.7368
    1MOL   O422  422   1.130   6.070   2.420 -0.2139 -0.1827 -0.0733
    1MOL   C423  423   1.020   6.138   2.481  0.0122  0.1908 -0.5843
    1MOL   C424  424   1.052   6.293   2.494 -0.0655  0.4335  0.2069
    1MOL   O425  425   1.147   6.312   2.601  0.0281 -0.0082  0.2246
    1MOL   C426  426   1.123   6.355   2.366 -0.0223 -0.1560 -0.4854
    1MOL   C427  427   1.143   6.513   2.373 -0.4991  0.2269  0.0411
    1MOL   C428  428   1.205   6.564   2.246 -0.4799 -0.7358 -0.3592
    1MOL   O429  429   1.236   6.704   2.253 -0.7271 -0.0468  0.0353
    1MOL   C430  430   1.119   6.527   2.119  0.1580  0.1018 -0.1398
    1MOL   C431  431   1.186   6.578   1.989 -0.1592 -0.3869  0.7100
    1MOL   C432  432   1.098   6.380   2.116  1.1118  0.1573 -0.2383
    1MOL   C433  433   1.034   6.319   2.244  0.0352 -1.1340 -0.0995
    1MOL   H434  434   0.995   6.094   2.578  1.7484  2.1378  0.8118
    1MOL   H435  435   0.935   6.124   2.415 -0.1403 -0.0354 -0.3406
    1MOL   H436  436   0.958   6.348   2.505 -0.1926  0.3391 -0.3736
    1MOL   H437  437   1.229   6.267   2.586  0.8138  0.5126  2.7351
    1MOL   H438  438   1.221   6.311   2.348 -0.7578 -2.4686  0.8830
    1MOL   H439  439   1.052   6.566   2.399 -0.3009 -0.2155  1.7288
    1MOL   H440  440   1.202   6.528   2.464 -1.3866 -0.8620  0.8137
    1MOL   H441  441   1.306   6.526   2.230 -0.5218 -1.5996  1.2754
    1MOL   H442  442   1.309   6.717   2.312 -1.0297  3.7617 -0.3258
    1MOL   H443  443   1.025   6.581   2.133  0.1242 -0.2567  1.0125
    1MOL   H444  444   1.192   6.686   2.002 -1.9066 -0.2372  0.4783
    1MOL   H445  445   1.288   6.540   1.989 -0.8896 -2.6643 -3.7134
    1MOL   H446  446   1.198   6.337   2.103  2.3812  2.4071  1.7747
    1MOL   H447  447   1.040   6.349   2.030 -0.6058 -1.5482  1.4655
    1MOL   H448  448   1.029   6.212   2.226  0.5918 -1.2260  0.2950
    1MOL   H449  449   0.933   6.359   2.252 -0.7183 -2.7837 -0.9465
    1MOL   O450  450   1.114   6.542   1.867 -0.1637  0.0705 -0.2005
    1MOL   C451  451   0.997   6.619   1.842  0.0475  0.6212  0.2013
    1MOL   C452  452   1.024   6.737   1.750 -0.6730 -0.1206 -0.4314
    1MOL   O453  453   1.093   6.835   1.823  0.0817 -0.2445 -0.4544
    1MOL   C454  454   1.102   6.689   1.623 -0.0355 -0.5491 -0.3279
    1MOL   C455  455   1.148   6.815   1.543 -0.6477 -0.2651  0.1120
    1MOL   C456  456   1.213   6.773   1.408 -0.2386  0.4737  0.7752
    1MOL   O457  457   1.253   6.888   1.329  0.5046 -0.3377  0.2019
    1MOL   C458  458   1.117   6.676   1.325 -0.7240  0.1289  1.1199
    1MOL   C459  459   1.189   6.625   1.193 -0.0011  0.5350 -0.3141
    1MOL   C460  460   1.074   6.551   1.402 -0.3097 -1.1653  0.2250
    1MOL   C461  461   1.016   6.599   1.530  0.3127 -0.2119 -0.0929
    1MOL   H462  462   0.947   6.639   1.937 -2.1029 -4.2864  0.2219
    1MOL   H463  463   0.935   6.551   1.783  1.7189 -0.3605 -0.4776
    1MOL   H464  464   0.931   6.790   1.729  0.0113  1.0861 -0.4756
    1MOL   H465  465   1.036   6.833   1.898 -1.2601 -0.9503 -1.4713
    1MOL   H466  466   1.192   6.639   1.655  0.5468 -0.0266 -1.1057
    1MOL   H467  467   1.057   6.868   1.519 -1.2526 -0.1381  2.5188
    1MOL   H468  468   1.214   6.880   1.600  0.6955 -1.3378 -0.1807
    1MOL   H469  469   1.306   6.716   1.417  0.1621  1.1547  1.0245
    1MOL   H470  470   1.174   6.920   1.289  0.0351 -0.9707  0.6086
    1MOL   H471  471   1.026   6.731   1.301  0.7554  1.2511 -2.2543
    1MOL   H472  472   1.224   6.708   1.132  1.4470 -0.6992 -1.2236
    1MOL   H473  473   1.270   6.553   1.206 -1.3441 -1.3886 -2.2345
    1MOL   H474  474   1.166   6.495   1.417 -0.2744 -1.3295 -0.5611
    1MOL   H475  475   1.005   6.492   1.341 -0.6303 -1.8366  1.2289
    1MOL   H476  476   0.994   6.505   1.580  0.3650 -0.8695 -1.3031
    1MOL   H477  477   0.919   6.646   1.515 -1.3841 -3.8156 -0.8212
    1MOL   O478  478   1.105   6.539   1.115  0.1589 -0.2112  0.1309
    1MOL   C479  479   1.172   6.475   1.006  0.1498  0.4209  0.1104
    1MOL   C480  480   1.076   6.412   0.911 -0.5931  0.4759  0.0637
    1MOL   O481  481   1.009   6.520   0.839  0.1066 -0.1935 -0.6235
    1MOL   C482  482   1.149   6.331   0.804  0.0295  0.3748 -0.1396
    1MOL   C483  483   1.248   6.402   0.711 -0.1663 -0.1307 -0.4217
    1MOL   C484  484   1.303   6.314   0.600  0.3644 -1.0393  0.4872
    1MOL   O485  485   1.394   6.389   0.525 -0.2390  0.0447  0.2781
    1MOL   C486  486   1.195   6.245   0.513 -0.0808  0.0338 -0.3537
    1MOL   C487  487   1.261   6.159   0.399 -0.5556  0.1657 -0.4396
    1MOL   C488  488   1.097   6.174   0.608  0.1791  0.4214  0.0462
    1MOL   C489  489   1.042   6.262   0.718  0.2349  0.4318  0.6300
    1MOL   H490  490   1.233   6.391   1.038 -0.2195 -0.1798 -0.7468
    1MOL   H491  491   1.239   6.546   0.958  1.7397 -0.9423  0.2764
    1MOL   H492  492   1.007   6.355   0.974  0.4824 -0.1927  0.6481
    1MOL   H493  493   0.999   6.595   0.896  0.9052 -1.7038  1.5745
    1MOL   H494  494   1.210   6.258   0.857 -0.5645 -0.1840 -0.2163
    1MOL   H495  495   1.201   6.489   0.665 -0.1297  1.2991  2.1282
    1MOL   H496  496   1.328   6.435   0.778 -0.9033 -1.3602  1.1136
    1MOL   H497  497   1.367   6.240   0.648  1.2456  0.4145  1.5949
    1MOL   H498  498   1.341   6.460   0.490  0.0408  0.2754  0.3230
    1MOL   H499  499   1.134   6.321   0.465 -0.2021 -0.3944 -0.8804
    1MOL   H500  500   1.320   6.224   0.333 -0.6783 -0.0096 -0.7220
    1MOL   H501  501   1.334   6.088   0.438  0.1251  1.2562  0.3328
    1MOL   H502  502   1.139   6.084   0.654 -0.4231  0.5416  0.8442
    1MOL   H503  503   1.010   6.134   0.555 -0.3962 -2.5131  3.0278
    1MOL   H504  504   0.970   6.207   0.779  0.6152  0.4882  1.1216
    1MOL   H505  505   0.978   6.335   0.668 -0.9475  0.8590  2.7034
    1MOL   O506  506   1.151   6.107   0.323  0.1687  0.5170 -0.9640
    1MOL   C507  507   1.188   6.027   0.210 -0.4954 -0.5998 -0.0250
    1MOL   C508  508   1.053   5.960   0.158 -0.5771  0.1981 -0.1438
    1MOL   O509  509   0.965   6.069   0.143  0.8746 -0.1989  0.1385
    1MOL   C510  510   1.063   5.875   0.031 -0.3760 -0.4806  0.3377
    1MOL   C511  511   0.936   5.822   7.608  0.1614  0.4260 -0.2529
    1MOL   C512  512   0.951   5.742   7.478 -0.3454 -0.1399 -0.3475
    1MOL   O513  513   0.838   5.667   7.448  0.2882 -0.2478 -0.2235
    1MOL   C514  514   1.058   5.633   7.494 -0.2939 -0.3895 -0.3310
    1MOL   C515  515   1.072   5.548   7.369 -0.3783  0.3344  0.4160
    1MOL   C516  516   1.190   5.690   7.558  0.2236  0.5413  0.6585
    1MOL   C517  517   1.154   5.761   0.053 -0.6410  1.3677 -0.0313
    1MOL   H518  518   1.263   5.954   0.240 -1.2057 -1.2394  0.2045
    1MOL   H519  519   1.233   6.099   0.142 -0.3695  0.4909  1.1888
    1MOL   H520  520   1.014   5.895   0.236 -0.9756 -1.1831 -1.4922
    1MOL   H521  521   0.977   6.114   0.225  3.2088 -0.2464 -0.1419
    1MOL   H522  522   1.098   5.936   7.576  0.3793 -2.2453 -0.6471
    1MOL   H523  523   0.897   5.753   0.054  2.4906  1.5668  2.0538
    1MOL   H524  524   0.869   5.908   7.600 -0.2167  0.0654 -0.9651
    1MOL   H525  525   0.956   5.816   7.399  0.3062  1.2902  1.0128
    1MOL   H526  526   0.805   5.633   7.530 -1.5229  0.8007 -0.5004
    1MOL   H527  527   1.019   5.558   7.564 -0.8657  0.6185  0.4530
    1MOL   H528  528   0.988   5.486   7.336  0.6461 -0.4950 -0.7082
    1MOL   H529  529   1.075   5.622   7.289 -0.4919 -1.8031 -1.6190
    1MOL   H530  530   1.239   5.768   7.500 -1.2840  0.6027 -0.5733
    1MOL   H531  531   1.270   5.616   7.570  1.8724  1.9037 -1.5615
    1MOL   H532  532   1.250   5.806   0.082  0.7323 -1.9123  0.7538
    1MOL   H533  533   1.120   5.705   0.140 -0.9848  2.9168  0.8596
    1MOL   O534  534   1.181   5.466   7.379  0.4236  0.0434  0.1003
    1MOL   C535  535   1.210   5.373   7.272 -0.0593  0.0475  0.1200
    1MOL   C536  536   1.335   5.283   7.293 -0.6916 -0.6643 -0.7299
    1MOL   O537  537   1.448   5.369   7.294  0.5632  0.1584 -0.6516
    1MOL   C538  538   1.324   5.199   7.430 -0.8486 -0.2366  0.0455
    1MOL   C539  539   1.457   5.120   7.452 -0.3181 -0.0028  0.6237
    1MOL   C540  540   1.455   5.043   7.583  0.0535  0.1484  0.0822
    1MOL   O541  541   1.556   4.946   7.569  0.3306  0.6484  0.0763
    1MOL   C542  542   1.328   4.952   7.585 -0.7777 -0.9541 -0.5999
    1MOL   C543  543   1.321   4.858   0.082  0.3727 -0.6557  0.0497
    1MOL   C544  544   1.203   5.030   7.565  0.2403  0.8679  0.5471
    1MOL   C545  545   1.202   5.106   7.429 -0.4039  0.0968 -0.2290
    1MOL   H546  546   1.220   5.430   7.179 -2.9718 -0.7461 -0.7383
    1MOL   H547  547   1.115   5.324   7.247 -0.6988  1.0725  0.5268
    1MOL   H548  548   1.351   5.207   7.217 -0.4485 -0.0936 -1.2530
    1MOL   H549  549   1.431   5.437   7.357 -0.6450 -2.2792  1.7475
    1MOL   H550  550   1.314   5.268   7.514 -2.2230 -0.9096  0.4593
    1MOL   H551  551   1.471   5.057   7.364 -0.3329  0.3979  0.3324
    1MOL   H552  552   1.536   5.194   7.444  0.1551 -0.5263  0.4619
    1MOL   H553  553   1.466   5.106   0.042 -3.2977  2.4659 -1.0505
    1MOL   H554  554   1.568   4.901   0.021  3.5269  1.3020  0.0236
    1MOL   H555  555   1.334   4.887   7.498 -0.0361 -2.9929  0.9269
    1MOL   H556  556   1.312   4.899   0.183 -1.6909  0.6346 -0.6270
    1MOL   H557  557   1.242   4.783   0.072 -0.5796  0.5640 -1.7448
    1MOL   H558  558   1.189   5.103   0.016  0.9626  1.2760  0.3070
    1MOL   H559  559   1.128   4.955   7.590  1.0033  0.6635  2.2808
    1MOL   H560  560   1.103   5.145   7.410  0.3411  1.6458 -0.9973
    1MOL   H561  561   1.214   5.019   7.364 -0.2391 -1.9653  2.4892
    1MOL   H562  562   1.408   4.793   0.078 -1.7508 -3.8080  2.2219
    2MOL     O1  563   5.586   3.852   7.557 -0.1510 -0.5688 -0.4123
    2MOL     C2  564   5.598   3.967   7.470 -0.0414 -0.6418 -0.5017
    2MOL     C3  565   5.708   4.052   7.537 -0.1008  0.4036  0.9877
    2MOL     O4  566   5.824   3.974   7.569  0.8810  0.1904  0.4840
    2MOL     C5  567   5.747   4.184   7.474  0.4028 -0.0378 -0.0144
    2MOL     C6  568   5.650   4.300   7.488 -0.1262  0.0548 -0.1647
    2MOL     C7  569   5.700   4.436   7.430 -0.4227  0.8290 -0.5374
    2MOL     O8  570   5.599   4.534   7.458  0.5071  0.4410 -0.2441
    2MOL     C9  571   5.728   4.420   7.284  0.5334 -0.0774 -0.3661
    2MOL    C10  572   5.791   4.546   7.213 -0.5276  0.0596  0.6273
    2MOL    C11  573   5.817   4.297   7.254 -0.1775 -0.0970  0.4218
    2MOL    C12  574   5.757   4.171   7.319  0.5264  1.2015  0.5583
    2MOL    H13  575   5.508   4.027   7.459  0.8323  0.2832 -2.7719
    2MOL    H14  576   5.619   3.931   7.369 -2.8891  1.2498 -1.8390
    2MOL    H15  577   5.672   4.079   0.007 -1.2504  2.8341 -0.0513
    2MOL    H16  578   5.805   3.883   7.552  2.3209 -0.2079  0.9070
    2MOL    H17  579   5.841   4.218   7.518  0.3294  0.7099 -0.4407
    2MOL    H18  580   5.547   4.277   7.461 -0.7830  2.7650 -0.0917
    2MOL    H19  581   5.641   4.322   7.594 -3.5087 -1.4801 -0.0550
    2MOL    H20  582   5.794   4.469   7.474 -0.2857 -0.6840  0.3387
    2MOL    H21  583   5.644   4.616   7.445  2.3171 -0.5698 -0.6202
    2MOL    H22  584   5.629   4.402   7.240 -1.1300  0.1922  3.1208
    2MOL    H23  585   5.742   4.640   7.236  0.9999  0.9637  0.2708
    2MOL    H24  586   5.890   4.569   7.253  0.3610 -3.1980  0.4103
    2MOL    H25  587   5.921   4.305   7.286  0.6746 -1.3941 -1.9357
    2MOL    H26  588   5.818   4.280   7.146 -1.9488 -0.8623  0.5164
    2MOL    H27  589   5.825   4.095   7.281 -0.1994  2.1657 -2.8092
    2MOL    H28  590   5.658   4.157   7.275  1.0444 -1.9273  0.2689
    2MOL    H29  591   5.507   3.855   7.609  0.9713 -0.9476  1.3281
    2MOL    O30  592   5.803   4.524   7.070  0.5339  0.0013 -0.3563
    2MOL    C31  593   5.685   4.540   6.990 -0.0184  0.6444 -0.3753
    2MOL    C32  594   5.692   4.489   6.840 -0.3503  0.2613  0.2593
    2MOL    O33  595   5.779   4.568   6.774  0.2763  0.5186 -0.5375
    2MOL    C34  596   5.740   4.343   6.830  0.6053  0.1297  0.3203
    2MOL    C35  597   5.780   4.300   6.686 -0.1657  0.5065 -0.4259
    2MOL    C36  598   5.824   4.150   6.692 -0.3266  0.3209  0.4767
    2MOL    O37  599   5.877   4.110   6.564 -0.7088  0.1342  0.2140
    2MOL    C38  600   5.710   4.058   6.740  0.6169  0.0597  0.0726
    2MOL    C39  601   5.746   3.910   6.735 -0.1813 -0.6031  0.2815
    2MOL    C40  602   5.665   4.103   6.879  0.5683  0.3945  0.7031
    2MOL    C41  603   5.628   4.254   6.884 -0.2949  0.9037  0.6134
    2MOL    H42  604   5.668   4.647   6.975 -2.9000  0.5503  1.8491
    2MOL    H43  605   5.598   4.495   7.038  0.5009  0.4584  0.4004
    2MOL    H44  606   5.596   4.498   6.790  0.3620 -0.0418 -1.1997
    2MOL    H45  607   5.865   4.550   6.808 -0.1524 -0.0187  0.2745
    2MOL    H46  608   5.824   4.337   6.899  0.7972 -1.0234 -0.0110
    2MOL    H47  609   5.696   4.311   6.618  0.3068 -0.0230 -1.1089
    2MOL    H48  610   5.864   4.360   6.649 -1.3654  2.0882 -0.6177
    2MOL    H49  611   5.905   4.148   6.765 -0.6880  2.4853  0.9957
    2MOL    H50  612   5.886   4.016   6.558  1.1990  0.4410 -2.6035
    2MOL    H51  613   5.627   4.061   6.670  0.1950  2.6655  0.6464
    2MOL    H52  614   5.794   3.887   6.640 -0.1903 -1.3113  0.4483
    2MOL    H53  615   5.826   3.901   6.808 -0.8943  1.4999  1.3843
    2MOL    H54  616   5.732   4.074   6.961 -1.1346  1.2764  2.4631
    2MOL    H55  617   5.575   4.051   6.911  0.2421  1.2012  1.1189
    2MOL    H56  618   5.609   4.284   6.987 -2.9055 -1.1064  0.7953
    2MOL    H57  619   5.532   4.267   6.833 -0.0411  1.0027  0.1685
    2MOL    O58  620   5.642   3.813   6.760  0.1288 -0.1533 -0.0264
    2MOL    C59  621   5.676   3.674   6.748 -0.5194 -0.0587 -0.4191
    2MOL    C60  622   5.566   3.592   6.820 -0.3434  0.3234 -0.6691
    2MOL    O61  623   5.444   3.636   6.778 -0.2431  0.2452  0.3557
    2MOL    C62  624   5.567   3.440   6.818 -0.1917  0.2177  0.2035
    2MOL    C63  625   5.469   3.361   6.920 -0.1163  0.2248 -0.1462
    2MOL    C64  626   5.473   3.207   6.903  0.1205 -0.2064 -0.4174
    2MOL    O65  627   5.402   3.133   7.006 -0.5285 -0.0652 -0.3559
    2MOL    C66  628   5.621   3.150   6.895 -0.1490  0.4066 -0.2312
    2MOL    C67  629   5.622   2.998   6.860 -0.2356  0.1055  0.0770
    2MOL    C68  630   5.692   3.222   6.791  0.1030 -0.5575  0.3095
    2MOL    C69  631   5.704   3.370   6.826  0.0947  0.4659  0.6494
    2MOL    H70  632   5.775   3.654   6.787 -1.2969 -1.6311  0.8140
    2MOL    H71  633   5.673   3.634   6.647 -1.5233 -2.4548  0.5045
    2MOL    H72  634   5.572   3.638   6.919  0.1360  1.9774 -1.4518
    2MOL    H73  635   5.458   3.717   6.732 -1.9210 -0.2102 -0.9934
    2MOL    H74  636   5.528   3.419   6.718  2.0128  0.7013 -0.7828
    2MOL    H75  637   5.509   3.384   7.019  0.5873  0.3354 -0.4597
    2MOL    H76  638   5.368   3.402   6.914  0.5970  2.0261 -0.1506
    2MOL    H77  639   5.419   3.190   6.809 -0.2750  2.7855 -0.7867
    2MOL    H78  640   5.461   3.122   7.079 -0.5594  0.4988 -0.2435
    2MOL    H79  641   5.675   3.153   6.990 -0.2177  1.3806 -0.2165
    2MOL    H80  642   5.719   2.952   6.843 -0.0644  0.6205 -0.3519
    2MOL    H81  643   5.572   2.940   6.937  2.2452 -1.9047  0.2405
    2MOL    H82  644   5.643   3.216   6.694 -0.7137 -0.5129  0.7096
    2MOL    H83  645   5.794   3.185   6.781 -0.9060 -3.6115  0.6544
    2MOL    H84  646   5.768   3.418   6.752 -0.6179 -0.8658 -0.8544
    2MOL    H85  647   5.761   3.382   6.918 -0.3933 -0.3388  1.0653
    2MOL    O86  648   5.550   2.996   6.736  0.0669  0.1157 -0.1190
    2MOL    C87  649   5.555   2.872   6.671 -0.6680 -0.4756  0.0446
    2MOL    C88  650   5.455   2.853   6.556  0.0246 -0.2535  0.6106
    2MOL    O89  651   5.328   2.837   6.608 -0.8036 -0.0319 -0.4777
    2MOL    C90  652   5.457   2.966   6.446  0.2835  0.2100 -0.5000
    2MOL    C91  653   5.363   2.922   6.330  0.2629 -0.5440  0.1533
    2MOL    C92  654   5.351   3.026   6.216  0.4157 -0.2341 -0.2845
    2MOL    O93  655   5.270   2.968   6.112  0.0036 -0.0681 -0.3613
    2MOL    C94  656   5.494   3.075   6.165  0.1658  0.4998 -0.0867
    2MOL    C95  657   5.479   3.181   6.052  0.5370 -0.3118 -0.3434
    2MOL    C96  658   5.582   3.124   6.279 -0.1008 -0.1455 -0.3735
    2MOL    C97  659   5.595   3.012   6.386  0.0072  0.9626 -0.4286
    2MOL    H98  660   5.546   2.796   6.749  0.9874 -0.5305  0.1886
    2MOL    H99  661   5.650   2.854   6.623 -0.4298  2.5897 -0.7576
    2MOL   H100  662   5.477   2.760   6.502  0.9206  0.2017  0.1773
    2MOL   H101  663   5.321   2.878   6.692 -1.0429 -0.0945 -0.4670
    2MOL   H102  664   5.408   3.053   6.490 -1.8469 -2.7420  3.3421
    2MOL   H103  665   5.394   2.824   6.295 -0.5565 -1.4144  1.8419
    2MOL   H104  666   5.263   2.904   6.368  0.5652 -0.6022  0.9302
    2MOL   H105  667   5.292   3.113   6.243  1.3960  0.1340  0.7150
    2MOL   H106  668   5.307   2.884   6.091 -1.9158 -1.3519  1.2575
    2MOL   H107  669   5.546   2.992   6.117  0.7233  1.2122 -0.7178
    2MOL   H108  670   5.410   3.144   5.976  0.2300 -0.9260  0.2282
    2MOL   H109  671   5.431   3.270   6.091 -0.9681 -0.3622 -2.0285
    2MOL   H110  672   5.517   3.205   6.311 -0.2848 -0.7098  0.7304
    2MOL   H111  673   5.678   3.165   6.248 -0.4277  0.9635  0.0711
    2MOL   H112  674   5.666   3.047   6.461  1.1422 -0.8913 -0.5981
    2MOL   H113  675   5.637   2.923   6.339  1.0746  1.2933 -0.0976
    2MOL   O114  676   5.599   3.209   5.986  0.0954 -0.9197 -0.2257
    2MOL   C115  677   5.590   3.335   5.912  0.0377 -0.5654  0.3835
    2MOL   C116  678   5.715   3.360   5.823 -0.2404  0.6254 -0.1115
    2MOL   O117  679   5.666   3.447   5.725 -0.5840 -0.0565 -0.0101
    2MOL   C118  680   5.841   3.406   5.887  0.8957  0.0050 -1.1076
    2MOL   C119  681   5.960   3.402   5.796  0.3998  0.5236  0.2974
    2MOL   C120  682   6.097   3.440   5.856  0.5176 -0.2916 -0.3035
    2MOL   O121  683   6.190   3.409   5.764 -0.2654  0.6179  0.5154
    2MOL   C122  684   6.138   3.376   5.990  0.1439 -0.1600 -0.7534
    2MOL   C123  685   6.261   3.445   6.044 -0.1388  0.0345  0.1682
    2MOL   C124  686   6.018   3.385   6.090  0.2435  0.2989 -0.0889
    2MOL   C125  687   5.885   3.339   6.025  0.1383 -0.6913 -0.3734
    2MOL   H126  688   5.573   3.420   5.980  1.0451 -0.3561  0.3850
    2MOL   H127  689   5.495   3.325   5.860  0.9329 -3.1000 -0.8193
    2MOL   H128  690   5.732   3.272   5.761 -0.1344  0.1328  0.6115
    2MOL   H129  691   5.719   3.461   5.648 -0.9847  0.1155 -0.2559
    2MOL   H130  692   5.823   3.510   5.913 -1.8649  0.1932 -3.5577
    2MOL   H131  693   5.963   3.308   5.741 -2.1744 -0.0283  1.0187
    2MOL   H132  694   5.937   3.471   5.714  1.1861  0.7463  0.2633
    2MOL   H133  695   6.096   3.546   5.879 -0.0690 -0.6256  1.2838
    2MOL   H134  696   6.219   3.492   5.729 -3.3243  1.2066 -0.7844
    2MOL   H135  697   6.168   3.272   5.994  1.2022  0.1985  1.9308
    2MOL   H136  698   6.356   3.416   5.998 -1.0022 -1.0323 -0.9569
    2MOL   H137  699   6.264   3.554   6.031  2.0209  0.2838  2.3237
    2MOL   H138  700   6.021   3.485   6.133  1.4338  0.1820  0.1306
    2MOL   H139  701   6.052   3.332   6.180  1.2470 -0.3419 -0.8394
    2MOL   H140  702   5.801   3.343   6.094  1.8329 -1.4702  1.8001
    2MOL   H141  703   5.887   3.232   6.000 -1.4960 -0.9245  0.4197
    2MOL   O142  704   6.270   3.422   6.187 -0.1585  0.1270 -0.5630
    2MOL   C143  705   6.366   3.329   6.223  0.4399  0.5013 -0.5529
    2MOL   C144  706   6.397   3.336   6.371 -0.1513  0.3213 -0.5761
    2MOL   O145  707   6.278   3.284   6.426  0.1240 -0.2526  0.3128
    2MOL   C146  708   6.520   3.261   6.436  0.2487 -0.0100 -0.2766
    2MOL   C147  709   6.529   3.118   6.388 -0.4929  0.3858 -0.3207
    2MOL   C148  710   6.621   3.024   6.472 -0.7264 -0.1741 -0.0358
    2MOL   O149  711   6.580   2.889   6.436  0.0124  0.1625 -0.1848
    2MOL   C150  712   6.597   3.045   6.624 -0.2609 -0.2108  0.8324
    2MOL   C151  713   6.704   2.967   6.704 -0.8635 -0.5259 -0.2643
    2MOL   C152  714   6.617   3.190   6.658  0.2382 -0.0604 -0.8318
    2MOL   C153  715   6.512   3.275   6.591  0.5230  0.3340 -0.3240
    2MOL   H154  716   6.462   3.351   6.177  0.9487  0.5302  0.5147
    2MOL   H155  717   6.340   3.229   6.188 -1.4885  0.8833 -0.2524
    2MOL   H156  718   6.403   3.439   6.406  0.1899 -0.0146  0.3822
    2MOL   H157  719   6.213   3.352   6.421 -0.4543 -0.9169 -1.8544
    2MOL   H158  720   6.607   3.309   6.392 -0.2574  0.4669 -0.7771
    2MOL   H159  721   6.426   3.086   6.401 -0.2735 -0.1477  0.1539
    2MOL   H160  722   6.557   3.119   6.283 -1.9321 -0.8681 -0.7432
    2MOL   H161  723   6.729   3.036   6.461 -0.7728  0.5351  0.2710
    2MOL   H162  724   6.581   2.876   6.343 -0.0933 -2.0686  0.1053
    2MOL   H163  725   6.504   2.993   6.650  0.6970 -1.2103  2.3334
    2MOL   H164  726   6.716   2.863   6.671  1.3987 -0.0546 -1.0328
    2MOL   H165  727   6.798   3.018   6.684 -0.1244 -2.2248 -1.3090
    2MOL   H166  728   6.715   3.228   6.631 -0.0863  2.2135  1.0578
    2MOL   H167  729   6.599   3.200   6.765 -1.7571  1.4135 -1.2768
    2MOL   H168  730   6.531   3.380   6.617  2.8290 -0.0117 -0.5744
    2MOL   H169  731   6.413   3.250   6.630  0.2972  0.1786 -0.9881
    2MOL   O170  732   6.676   2.974   6.839 -0.4836  0.0175  0.0965
    2MOL   C171  733   6.788   2.937   6.911 -0.3309  0.9390  0.0852
    2MOL   C172  734   6.786   2.973   7.066 -0.2526  0.3605 -0.2100
    2MOL   O173  735   6.901   2.915   7.134 -0.0334 -0.1310 -0.4478
    2MOL   C174  736   6.780   3.118   7.100  0.5815  0.0993  0.4882
    2MOL   C175  737   6.884   3.216   7.035  0.1923  0.0114  0.2673
    2MOL   C176  738   6.850   3.369   7.051  0.5610 -0.1397  1.1295
    2MOL   O177  739   6.953   3.444   7.007 -0.0306  0.0095 -0.6904
    2MOL   C178  740   6.831   3.400   7.201 -0.1168  0.2004 -0.4480
    2MOL   C179  741   6.772   3.538   7.220  0.0421 -0.6976  0.0097
    2MOL   C180  742   6.736   3.307   7.270 -0.3227  0.3803  0.2560
    2MOL   C181  743   6.782   3.158   7.248  0.3695 -0.2507  0.8149
    2MOL   H182  744   6.888   2.961   6.873  0.5410 -1.1722  0.9169
    2MOL   H183  745   6.788   2.828   6.902 -1.2870  0.8919  0.5896
    2MOL   H184  746   6.695   2.931   7.108  1.5204 -1.1092  2.3753
    2MOL   H185  747   6.977   2.953   7.093  0.1725  0.8986  0.8471
    2MOL   H186  748   6.680   3.137   7.062 -0.1513  1.7237  3.0695
    2MOL   H187  749   6.982   3.192   7.075 -0.3736 -0.5696  1.3408
    2MOL   H188  750   6.889   3.184   6.931 -0.4783  0.3256  0.1364
    2MOL   H189  751   6.761   3.402   6.997  1.2564 -1.5112 -0.9152
    2MOL   H190  752   7.028   3.440   7.064 -0.6824 -1.5696  0.0705
    2MOL   H191  753   6.931   3.395   7.243  0.3011  2.4664 -1.0944
    2MOL   H192  754   6.773   3.563   7.326 -0.4143 -0.3066 -0.0783
    2MOL   H193  755   6.840   3.611   7.177 -0.3320 -0.1751  0.3046
    2MOL   H194  756   6.637   3.323   7.228 -0.3093  0.8602  0.4038
    2MOL   H195  757   6.728   3.327   7.376 -0.1367 -0.0226  0.3472
    2MOL   H196  758   6.705   3.098   7.297  0.7122 -2.1816 -0.9833
    2MOL   H197  759   6.875   3.141   7.301  0.0733 -0.3910  1.2964
    2MOL   O198  760   6.641   3.544   7.167 -0.9569 -0.4032  0.1902
    2MOL   C199  761   6.589   3.675   7.145 -0.3158 -0.2054  0.3942
    2MOL   C200  762   6.468   3.665   7.061  0.3945 -0.6983 -0.5029
    2MOL   O201  763   6.391   3.562   7.123  0.0343 -0.4463 -0.0458
    2MOL   C202  764   6.394   3.803   7.062 -0.1083 -0.0246  0.5844
    2MOL   C203  765   6.263   3.789   6.987 -0.7198 -0.3793 -0.5362
    2MOL   C204  766   6.183   3.919   7.002 -0.0267 -0.6637 -0.0699
    2MOL   O205  767   6.067   3.903   6.917  0.1670  0.1638 -0.3146
    2MOL   C206  768   6.262   4.049   6.961  0.0565 -0.3026 -0.3753
    2MOL   C207  769   6.184   4.164   7.016 -0.8123 -0.0107 -0.2858
    2MOL   C208  770   6.406   4.050   7.011  0.9169  0.0151 -0.3064
    2MOL   C209  771   6.472   3.917   6.985  0.0547  0.0027 -0.1819
    2MOL   H210  772   6.660   3.726   7.080 -0.6141 -0.1352  0.1187
    2MOL   H211  773   6.584   3.729   7.239 -0.1675 -0.9373  0.8238
    2MOL   H212  774   6.502   3.625   6.965  1.2075  0.0609 -0.5310
    2MOL   H213  775   6.455   3.499   7.150  0.7942  0.6582  0.7611
    2MOL   H214  776   6.377   3.837   7.164  1.4243  0.7496  0.6080
    2MOL   H215  777   6.275   3.768   6.881 -0.0808 -0.5381 -0.4345
    2MOL   H216  778   6.197   3.713   7.028  0.5328 -0.7631  0.8082
    2MOL   H217  779   6.150   3.937   7.104 -0.1900  0.6364 -0.3437
    2MOL   H218  780   6.023   3.829   6.957 -0.4102  0.2313 -0.8284
    2MOL   H219  781   6.268   4.061   6.853 -0.6474  1.9759 -0.1934
    2MOL   H220  782   6.087   4.163   6.967 -0.4475  0.1368 -1.0345
    2MOL   H221  783   6.171   4.154   7.123 -0.9029  1.2112 -0.1707
    2MOL   H222  784   6.406   4.068   7.118 -0.8450  2.8976 -0.7455
    2MOL   H223  785   6.465   4.132   6.970  0.9305 -0.6685 -1.7096
    2MOL   H224  786   6.574   3.918   7.023 -1.6146  0.4212  4.6293
    2MOL   H225  787   6.486   3.887   6.881  1.7509 -1.1011  0.3588
    2MOL   O226  788   6.244   4.292   6.990  0.0752  0.2849 -0.4766
    2MOL   C227  789   6.158   4.391   7.038  0.3867  0.3927 -0.5634
    2MOL   C228  790   6.220   4.531   7.024 -0.2414  0.3887  0.6536
    2MOL   O229  791   6.123   4.622   7.068 -0.2000 -0.5570 -0.5936
    2MOL   C230  792   6.350   4.547   7.106  0.0253  0.0418 -0.0500
    2MOL   C231  793   6.416   4.683   7.073 -0.7151  0.1684 -0.0479
    2MOL   C232  794   6.533   4.707   7.173  0.1150  0.2357  0.3313
    2MOL   O233  795   6.579   4.835   7.156  0.4085 -0.0755  0.0451
    2MOL   C234  796   6.639   4.602   7.153  1.5902 -0.1050  1.2846
    2MOL   C235  797   6.751   4.622   7.251 -0.6768  0.1743 -0.3055
    2MOL   C236  798   6.577   4.462   7.171  0.3234  0.4311  0.5130
    2MOL   C237  799   6.454   4.437   7.085  0.2735  0.1861 -0.6639
    2MOL   H238  800   6.122   4.379   7.140  1.2935 -1.3739 -0.4385
    2MOL   H239  801   6.070   4.390   6.973  1.5413  2.7604 -2.2093
    2MOL   H240  802   6.236   4.546   6.918 -1.0873 -0.1327  0.4543
    2MOL   H241  803   6.069   4.628   6.991 -0.4072  0.5104 -0.3720
    2MOL   H242  804   6.312   4.538   7.207 -1.1820 -1.1449 -0.5907
    2MOL   H243  805   6.448   4.690   6.969 -1.4406  1.3230 -0.2039
    2MOL   H244  806   6.350   4.769   7.082 -1.1609 -0.1315 -0.4453
    2MOL   H245  807   6.498   4.697   7.276 -0.0661 -1.0465  0.1505
    2MOL   H246  808   6.529   4.878   7.224  3.0527  1.2714  1.2234
    2MOL   H247  809   6.676   4.614   7.052  2.5256  1.7990  1.8356
    2MOL   H248  810   6.821   4.544   7.221  1.8808  2.6183 -0.8248
    2MOL   H249  811   6.807   4.714   7.236 -0.3271  0.2140  1.1974
    2MOL   H250  812   6.560   4.445   7.278 -1.8875  3.4849  0.7210
    2MOL   H251  813   6.657   4.393   7.146  0.0013 -0.0720  0.8381
    2MOL   H252  814   6.416   4.342   7.122 -1.6437  1.7628  1.5347
    2MOL   H253  815   6.476   4.422   6.979 -0.1235 -2.2079 -0.4387
    2MOL   O254  816   6.715   4.606   7.391  0.4229  0.1143 -0.5723
    2MOL   C255  817   6.832   4.594   7.470  0.1881 -1.4012 -0.4700
    2MOL   C256  818   6.882   4.444   7.467 -0.2076 -0.5468 -0.0209
    2MOL   O257  819   6.973   4.416   7.367  0.5502  0.0640  0.3204
    2MOL   C258  820   6.942   4.400   7.603 -0.1147 -0.4782 -0.7816
    2MOL   C259  821   7.071   4.480   0.016  0.2911  0.2010 -0.4055
    2MOL   C260  822   7.130   4.430   0.147  0.1534  0.3065 -0.0876
    2MOL   O261  823   7.248   4.501   0.172  0.1352 -0.4915 -0.0235
    2MOL   C262  824   7.158   4.279   0.139 -0.1026 -0.1453 -0.2175
    2MOL   C263  825   7.221   4.222   0.263  0.2556 -0.4249  0.8730
    2MOL   C264  826   7.012   4.211   0.122 -0.3780  0.5436 -0.1158
    2MOL   C265  827   6.964   4.248   7.615 -0.2073  0.4099 -0.0551
    2MOL   H266  828   6.811   4.634   7.570  2.5061  1.0149 -0.8945
    2MOL   H267  829   6.916   4.646   7.424  0.4897 -0.8194  0.7104
    2MOL   H268  830   6.799   4.380   7.438 -2.2759  1.2788  1.6737
    2MOL   H269  831   6.928   4.400   7.286 -0.8864 -0.1534  1.1568
    2MOL   H270  832   6.875   4.420   0.057  0.1677 -1.6573 -0.2604
    2MOL   H271  833   7.144   4.478   7.564  0.1462 -0.4233 -0.5229
    2MOL   H272  834   7.053   4.587   0.026 -0.6122 -0.0752  1.1060
    2MOL   H273  835   7.057   4.460   0.223 -0.1954  0.2556 -0.4003
    2MOL   H274  836   7.269   4.551   0.095 -2.7741 -2.0494 -1.9504
    2MOL   H275  837   7.223   4.259   0.054 -1.3283 -0.6949 -1.0484
    2MOL   H276  838   7.314   4.277   0.279 -0.5614  1.3591 -0.3691
    2MOL   H277  839   7.161   4.221   0.354  4.3849 -1.9664  3.6787
    2MOL   H278  840   6.952   4.229   0.211  0.3210 -2.2096  0.9538
    2MOL   H279  841   7.029   4.106   0.141  3.0411  1.0720  0.0717
    2MOL   H280  842   6.871   4.195   7.592  0.4398 -0.7104 -0.1554
    2MOL   H281  843   7.028   4.214   7.532 -0.6771  1.1607 -0.7275
    2MOL   O282  844   7.259   4.088   0.235 -0.5756 -0.1608  0.1549
    2MOL   C283  845   7.319   4.027   0.352 -0.3888 -0.4921  0.2600
    2MOL   C284  846   7.374   3.886   0.306  0.0990 -0.4521  0.1811
    2MOL   O285  847   7.281   3.779   0.335 -0.6948 -0.4579 -0.0375
    2MOL   C286  848   7.434   3.874   0.164  0.0928  0.5566  0.0115
    2MOL   C287  849   7.464   3.722   0.137 -0.3403  0.9217  0.1559
    2MOL   C288  850   7.526   3.700   0.001  0.0970  0.7986  0.3870
    2MOL   O289  851   7.534   3.568   7.578 -0.1661  0.4147 -0.1281
    2MOL   C290  852   0.016   3.792   7.594  0.0565 -0.5153 -0.3225
    2MOL   C291  853   0.075   3.789   7.452  0.1328 -0.0946 -0.0925
    2MOL   C292  854   7.606   3.942   7.626 -0.4752  0.3661 -0.4815
    2MOL   C293  855   7.561   3.955   0.143  0.2795 -0.0101 -0.4585
    2MOL   H294  856   7.251   4.012   0.435 -0.5797 -0.4400  0.1122
    2MOL   H295  857   7.407   4.087   0.378 -0.3692 -1.2432  2.0016
    2MOL   H296  858   7.461   3.869   0.369  0.3947 -1.2674 -0.4424
    2MOL   H297  859   7.191   3.799   0.313 -0.9106 -0.3405  0.9291
    2MOL   H298  860   7.354   3.898   0.093  0.9367 -1.7413 -1.7835
    2MOL   H299  861   7.521   3.675   0.216  0.8436  1.7403 -0.2079
    2MOL   H300  862   7.372   3.663   0.142 -1.1109  2.0465 -0.4052
    2MOL   H301  863   7.448   3.738   7.565 -0.2755  1.4996  1.2270
    2MOL   H302  864   7.565   3.506   0.012 -2.0357 -0.7911 -0.3479
    2MOL   H303  865   0.091   3.751   0.032 -1.6119 -0.6960  1.4900
    2MOL   H304  866   0.090   3.684   7.427 -0.7686  0.0187 -1.1554
    2MOL   H305  867   0.006   3.838   7.384  0.7189 -0.6469 -1.0876
    2MOL   H306  868   7.521   3.961   7.560 -0.3892  0.9081 -0.4427
    2MOL   H307  869   0.063   4.007   7.611 -0.4439 -0.1486 -2.5965
    2MOL   H308  870   7.548   4.057   0.177 -1.5725 -0.3756 -0.0263
    2MOL   H309  871   0.016   3.915   0.199 -0.5808  0.9806  1.5665
    2MOL   O310  872   0.193   3.867   7.436  0.3745 -0.1512  0.2975
    2MOL   C311  873   0.307   3.795   7.491 -0.2014 -0.8383 -0.1099
    2MOL   C312  874   0.432   3.886   7.485 -0.1812 -0.7213 -0.3348
    2MOL   O313  875   0.461   3.911   7.354 -0.5036 -0.1474 -0.0723
    2MOL   C314  876   0.409   4.016   7.579  0.3760  0.1462  0.1338
    2MOL   C315  877   0.537   4.093   7.574 -0.4157  0.3523 -0.7068
    2MOL   C316  878   0.521   4.222   0.008  0.1997  0.0370 -0.6680
    2MOL   O317  879   0.638   4.302   0.009  0.7803  0.0604  0.1893
    2MOL   C318  880   0.472   4.212   0.154  0.0442  0.6796 -0.4085
    2MOL   C319  881   0.444   4.348   0.210  0.2636  0.1316  0.1370
    2MOL   C320  882   0.347   4.112   0.177 -0.0368 -0.2622  0.0969
    2MOL   C321  883   0.376   3.981   0.102  0.6313  0.6606 -1.0912
    2MOL   H322  884   0.331   3.709   7.428  0.0724  0.8808 -2.4267
    2MOL   H323  885   0.297   3.758   7.593 -1.4705  1.3217  0.5783
    2MOL   H324  886   0.512   3.825   7.525  0.7096  2.4842  3.0301
    2MOL   H325  887   0.381   3.936   7.312 -0.9182 -0.6098  0.4339
    2MOL   H326  888   0.328   4.075   7.537  0.0296  0.3620  1.0969
    2MOL   H327  889   0.619   4.035   7.616  1.0279  2.6477 -0.2709
    2MOL   H328  890   0.558   4.112   7.469 -1.4808  0.3506 -0.9215
    2MOL   H329  891   0.446   4.281   7.585 -1.1695 -1.3485 -0.3460
    2MOL   H330  892   0.620   4.371   0.071 -0.1384  0.4772 -0.5319
    2MOL   H331  893   0.551   4.160   0.208 -1.9424 -1.5587  0.4198
    2MOL   H332  894   0.365   4.399   0.155  1.3173  3.3038  1.4398
    2MOL   H333  895   0.403   4.340   0.311  1.4009 -1.9805  0.4728
    2MOL   H334  896   0.248   4.150   0.149  1.4226  2.3870 -1.6379
    2MOL   H335  897   0.350   4.093   0.284  0.9619  0.6726  0.2294
    2MOL   H336  898   0.287   3.919   0.113  0.4812  0.4992 -3.0532
    2MOL   H337  899   0.456   3.919   0.144 -0.3918  1.9843  3.0593
    2MOL   O338  900   0.564   4.422   0.231 -0.0351 -0.2538  0.2208
    2MOL   C339  901   0.556   4.561   0.195  0.3682 -0.6579  0.2663
    2MOL   C340  902   0.690   4.632   0.218 -0.1209  0.2405 -0.1959
    2MOL   O341  903   0.792   4.574   0.139  0.2634 -0.0312  0.3837
    2MOL   C342  904   0.687   4.787   0.178  0.0486  0.2673 -0.1023
    2MOL   C343  905   0.659   4.818   0.022 -0.2458  0.0034  0.9770
    2MOL   C344  906   0.678   4.967   7.621 -0.4084 -0.0975  0.3669
    2MOL   O345  907   0.658   4.984   7.480 -0.2179  0.0085  0.2131
    2MOL   C346  908   0.823   5.015   0.022 -0.2178 -0.1759  0.1931
    2MOL   C347  909   0.843   5.164   7.606 -0.1843  0.1085  0.1690
    2MOL   C348  910   0.842   5.003   0.174  0.0341  0.0659  0.2428
    2MOL   C349  911   0.822   4.859   0.225 -0.5856  0.0379  0.4821
    2MOL   H350  912   0.469   4.605   0.245 -1.2701 -0.8018 -2.3630
    2MOL   H351  913   0.523   4.566   0.092 -0.0278  0.8057  0.4639
    2MOL   H352  914   0.722   4.624   0.322 -1.0070 -0.8745 -0.0042
    2MOL   H353  915   0.815   4.494   0.183  0.0199  0.4434  1.3937
    2MOL   H354  916   0.619   4.849   0.237 -1.6031 -0.4844 -1.1792
    2MOL   H355  917   0.721   4.757   7.586 -0.5871  0.4619  0.2144
    2MOL   H356  918   0.559   4.787   7.620  0.2195  0.0338 -0.5792
    2MOL   H357  919   0.607   5.029   0.046 -0.4036  0.1744  0.0702
    2MOL   H358  920   0.565   4.969   7.471 -0.0054 -1.1424 -0.2219
    2MOL   H359  921   0.897   4.952   7.602 -0.1158  1.1524 -1.3857
    2MOL   H360  922   0.949   5.189   7.614 -0.3270  0.2279  1.9327
    2MOL   H361  923   0.808   5.166   7.503 -2.1281  0.3382  0.8256
    2MOL   H362  924   0.762   5.056   0.225 -0.9725  0.3294 -1.5876
    2MOL   H363  925   0.946   5.035   0.185  0.3817 -0.2729 -1.7794
    2MOL   H364  926   0.830   4.856   0.334  1.0276 -0.1156  0.3751
    2MOL   H365  927   0.904   4.793   0.196  0.7977  2.3929 -1.1884
    2MOL   O366  928   0.754   5.245   0.051 -0.3697  0.1223  0.1628
    2MOL   C367  929   0.757   5.378   7.627 -0.2036  0.6745  0.1689
    2MOL   C368  930   0.641   5.468   0.042 -0.0266  1.1507 -0.1606
    2MOL   O369  931   0.663   5.606   0.022  0.4545 -0.1304  0.4517
    2MOL   C370  932   0.505   5.443   7.597 -0.0817 -0.0389 -0.5568
    2MOL   C371  933   0.384   5.528   0.023  0.7352 -0.3802  0.2605
    2MOL   C372  934   0.262   5.494   7.565 -0.0041  0.3236  0.3192
    2MOL   O373  935   0.148   5.583   7.594 -0.2974  0.3060  0.0215
    2MOL   C374  936   0.219   5.344   7.583 -0.4804 -0.8633  0.0150
    2MOL   C375  937   0.096   5.314   7.497  0.3036  0.3102  0.4836
    2MOL   C376  938   0.332   5.265   7.526 -0.4992 -0.4248  0.4261
    2MOL   C377  939   0.467   5.289   7.591 -0.1032 -0.1070  0.2539
    2MOL   H378  940   0.753   5.369   7.518 -0.0735 -0.7689  0.2780
    2MOL   H379  941   0.849   5.426   0.033  0.4522 -0.2736 -0.2282
    2MOL   H380  942   0.608   5.454   0.145 -0.4624  3.9582  0.1133
    2MOL   H381  943   0.616   5.653   0.089 -0.6575  0.0948 -0.4833
    2MOL   H382  944   0.523   5.467   7.493  0.8444  2.4383  0.1357
    2MOL   H383  945   0.360   5.512   0.128 -1.0565  0.0542 -0.0646
    2MOL   H384  946   0.398   5.635   0.016  1.3260 -0.3709  1.5801
    2MOL   H385  947   0.280   5.506   7.458  1.4363  0.6365  0.5886
    2MOL   H386  948   0.097   5.585   7.515 -0.3502  0.8405  0.0706
    2MOL   H387  949   0.196   5.321   0.058  1.3645  1.0567  0.8917
    2MOL   H388  950   0.012   5.366   7.543 -1.5891 -1.5949 -0.7999
    2MOL   H389  951   0.115   5.349   7.396 -1.5473 -0.2082 -0.0537
    2MOL   H390  952   0.338   5.279   7.418  1.1865 -0.2001  0.5383
    2MOL   H391  953   0.319   5.157   7.512  1.2123 -0.7571  1.1785
    2MOL   H392  954   0.537   5.230   7.533  0.3794 -1.2051  1.9217
    2MOL   H393  955   0.458   5.252   0.064 -0.5595 -0.7112 -0.0015
    2MOL   O394  956   0.076   5.171   7.501  0.6175  0.2683 -0.2083
    2MOL   C395  957   0.075   5.106   7.373 -0.0602  0.4123 -0.2190
    2MOL   C396  958   0.029   4.962   7.397  0.1963  0.2108  0.1732
    2MOL   O397  959   0.135   4.897   7.464  0.0599 -0.1043 -0.2094
    2MOL   C398  960   7.529   4.958   7.480  0.1535  0.1630  0.1964
    2MOL   C399  961   7.465   4.817   7.479  0.1970  0.3983 -0.3995
    2MOL   C400  962   7.340   4.807   7.568 -0.1113  0.7558  0.3032
    2MOL   O401  963   7.293   4.677   7.568 -0.0791  0.2272  0.1846
    2MOL   C402  964   7.236   4.901   7.494 -0.0050  0.4278  0.6269
    2MOL   C403  965   7.099   4.894   7.557 -0.1233 -0.4720 -0.9071
    2MOL   C404  966   7.289   5.045   7.498 -0.2073 -0.0629  0.3075
    2MOL   C405  967   7.417   5.060   7.423  0.0725  0.3559  0.3524
    2MOL   H406  968   0.172   5.109   7.324  1.0234  0.1978  1.8226
    2MOL   H407  969   0.010   5.153   7.299 -0.5155 -0.6386 -0.4927
    2MOL   H408  970   0.018   4.911   7.301 -2.6131 -0.9841  1.0647
    2MOL   H409  971   0.161   4.953   7.536 -1.2864 -0.4701  0.5722
    2MOL   H410  972   7.555   4.983   7.582  0.0007  0.2232  0.2216
    2MOL   H411  973   7.448   4.790   7.375 -1.3618  2.3349 -0.6675
    2MOL   H412  974   7.540   4.743   7.507 -1.5021 -1.0197  0.5128
    2MOL   H413  975   7.361   4.836   0.041  2.2053 -1.0560  0.3833
    2MOL   H414  976   7.278   4.634   7.485 -0.2203 -0.6564  0.6610
    2MOL   H415  977   7.234   4.858   7.394  1.9243  2.6326 -0.4271
    2MOL   H416  978   7.070   4.790   7.564 -0.0094 -0.4290  0.3607
    2MOL   H417  979   7.088   4.943   0.025  2.3130  1.3418 -1.4979
    2MOL   H418  980   7.310   5.085   7.597 -0.3980 -0.8339  0.6579
    2MOL   H419  981   7.217   5.112   7.451 -0.7572  0.2713  1.6128
    2MOL   H420  982   7.447   5.159   7.459  0.0634 -0.6143  3.0690
    2MOL   H421  983   7.392   5.060   7.317 -2.8177  1.1625  1.0007
    2MOL   O422  984   7.016   4.970   7.462  0.2835 -0.0887  0.3918
    2MOL   C423  985   6.881   4.960   7.511 -0.0983 -0.4612 -0.0739
    2MOL   C424  986   6.812   5.072   7.431  0.5427  0.0146 -0.2872
    2MOL   O425  987   6.680   5.058   7.467 -0.3432  0.1746 -0.1936
    2MOL   C426  988   6.870   5.210   7.463  0.3503  0.5548  0.4864
    2MOL   C427  989   6.881   5.248   7.612 -0.3093  0.2557 -0.7401
    2MOL   C428  990   6.940   5.388   0.001  0.1815 -0.3329  0.0490
    2MOL   O429  991   6.920   5.430   0.132 -0.0695  0.4567  0.1193
    2MOL   C430  992   6.886   5.499   7.539  0.0586  0.4447 -0.7805
    2MOL   C431  993   6.968   5.634   7.550 -0.4964 -0.6801  0.4976
    2MOL   C432  994   6.880   5.447   7.397 -0.1116 -0.4234 -0.4076
    2MOL   C433  995   6.795   5.322   7.390  0.6928  0.0515  0.3458
    2MOL   H434  996   6.870   4.967   7.619 -1.8077  0.0129 -0.2662
    2MOL   H435  997   6.854   4.858   7.485  1.2843 -0.9239  0.2963
    2MOL   H436  998   6.810   5.049   7.324  0.9946 -2.8266  0.2755
    2MOL   H437  999   6.660   5.132   7.521  0.1630  2.1746 -2.6513
    2MOL   H438 1000   6.976   5.201   7.440  0.1373 -1.7319  0.2596
    2MOL   H439 1001   6.779   5.260   0.019 -0.5167 -0.6179 -1.0374
    2MOL   H440 1002   6.931   5.172   0.042 -2.5728 -0.5402  0.1933
    2MOL   H441 1003   7.048   5.387   7.614  0.1923  0.8459  0.0480
    2MOL   H442 1004   6.965   5.513   0.133  0.8246 -0.0211  0.1829
    2MOL   H443 1005   6.786   5.521   7.574  0.3067  2.6791 -1.4200
    2MOL   H444 1006   7.074   5.616   7.532  0.1581  1.4925  2.0244
    2MOL   H445 1007   6.924   5.706   7.481  1.0965 -0.3289 -0.1608
    2MOL   H446 1008   6.978   5.434   7.352 -0.7562  1.0498 -2.2955
    2MOL   H447 1009   6.839   5.533   7.343  1.2396  0.3211 -0.2679
    2MOL   H448 1010   6.769   5.303   7.286  2.2069  0.8810 -0.1977
    2MOL   H449 1011   6.700   5.350   7.436  1.5012  0.7139  1.6489
    2MOL   O450 1012   6.978   5.676   0.059  0.6045  0.1541  1.0087
    2MOL   C451 1013   6.989   5.815   0.061 -0.1923  0.8330  0.0126
    2MOL   C452 1014   7.035   5.849   0.200 -0.8852 -0.0662  0.5328
    2MOL   O453 1015   7.103   5.979   0.180  0.6943 -0.1660 -0.0823
    2MOL   C454 1016   6.924   5.879   0.314 -0.5658 -0.1312 -0.2666
    2MOL   C455 1017   6.988   5.950   0.433  0.5862  0.2167 -0.3290
    2MOL   C456 1018   6.891   5.992   0.538  0.0325 -0.8073  0.0984
    2MOL   O457 1019   6.947   6.064   0.642  0.2866  0.5979  0.5816
    2MOL   C458 1020   6.812   5.873   0.598  0.1866 -0.0988 -0.2305
    2MOL   C459 1021   6.710   5.919   0.706  0.3035 -0.0516  0.2587
    2MOL   C460 1022   6.748   5.802   0.481  0.0819 -0.7400 -0.0202
    2MOL   C461 1023   6.853   5.752   0.375  0.0174 -0.7824  0.6932
    2MOL   H462 1024   6.899   5.868   0.027 -0.8764 -0.3800 -0.0970
    2MOL   H463 1025   7.063   5.853   7.620  0.6580 -0.3727  0.2443
    2MOL   H464 1026   7.108   5.779   0.239  0.1068  0.6789  0.0138
    2MOL   H465 1027   7.157   5.995   0.256  1.2259 -0.9691 -0.2866
    2MOL   H466 1028   6.845   5.940   0.271 -0.9332  1.3441  2.3793
    2MOL   H467 1029   7.062   5.884   0.481 -4.2838 -1.5671  5.2732
    2MOL   H468 1030   7.048   6.037   0.407 -1.8798  1.8954 -0.5234
    2MOL   H469 1031   6.817   6.053   0.486  1.1126  1.0364  0.6725
    2MOL   H470 1032   6.952   6.152   0.608  3.0611 -0.9905 -3.5288
    2MOL   H471 1033   6.887   5.801   0.632  1.3334  0.2870 -1.8802
    2MOL   H472 1034   6.754   5.984   0.782 -3.8996 -0.4990  3.2379
    2MOL   H473 1035   6.638   5.987   0.662  1.3093  1.7626  1.3695
    2MOL   H474 1036   6.667   5.862   0.439 -1.8987  0.0928  4.7252
    2MOL   H475 1037   6.698   5.710   0.511  0.5775 -1.0494 -0.1326
    2MOL   H476 1038   6.803   5.693   0.298  0.3199 -1.3707  0.9476
    2MOL   H477 1039   6.925   5.678   0.411 -0.6512 -0.1736  3.4207
    2MOL   O478 1040   6.649   5.805   0.766 -0.5665  0.7526  0.2354
    2MOL   C479 1041   6.725   5.733   0.870  0.0755 -0.2675  0.1349
    2MOL   C480 1042   6.670   5.587   0.908 -0.2826 -0.2986  0.0796
    2MOL   O481 1043   6.562   5.591   0.999 -0.2640  0.8642  0.4938
    2MOL   C482 1044   6.638   5.509   0.784  0.0096  0.7410 -0.3623
    2MOL   C483 1045   6.512   5.539   0.706  0.2399 -0.2147  1.1187
    2MOL   C484 1046   6.487   5.443   0.578 -0.0144 -0.6667  0.1058
    2MOL   O485 1047   6.371   5.486   0.515  0.5350 -0.1298  0.2970
    2MOL   C486 1048   6.487   5.298   0.623  0.1424 -0.5979 -0.5036
    2MOL   C487 1049   6.468   5.210   0.497  0.6845  0.6790 -0.2197
    2MOL   C488 1050   6.623   5.273   0.694  0.1216  0.7718  0.4331
    2MOL   C489 1051   6.656   5.357   0.814  0.1291  0.8748 -0.3218
    2MOL   H490 1052   6.737   5.795   0.959  2.2883  1.7412 -1.4928
    2MOL   H491 1053   6.823   5.715   0.826  0.0412  0.9626 -0.4678
    2MOL   H492 1054   6.746   5.541   0.971  0.0569 -1.2758 -1.0376
    2MOL   H493 1055   6.479   5.594   0.953  1.3536 -1.7107 -2.8134
    2MOL   H494 1056   6.717   5.543   0.716  1.2333 -0.4782  0.4497
    2MOL   H495 1057   6.429   5.530   0.776 -0.3549 -1.0683  0.3291
    2MOL   H496 1058   6.513   5.637   0.657 -2.4843 -0.7756 -0.1581
    2MOL   H497 1059   6.575   5.458   0.517 -0.6560  1.4411 -0.3412
    2MOL   H498 1060   6.302   5.446   0.566 -2.6101  1.4990 -2.4411
    2MOL   H499 1061   6.406   5.269   0.690  0.8556 -2.4682 -0.4266
    2MOL   H500 1062   6.373   5.232   0.448 -0.6965  0.3488  2.2145
    2MOL   H501 1063   6.551   5.233   0.431  0.5689 -1.7933 -1.3122
    2MOL   H502 1064   6.706   5.264   0.624  0.2683  4.1949  0.1039
    2MOL   H503 1065   6.612   5.169   0.725  4.1248  0.0454 -0.4228
    2MOL   H504 1066   6.761   5.350   0.841  0.2301 -2.3176 -1.3558
    2MOL   H505 1067   6.588   5.343   0.898 -3.2042  3.2148 -2.4906
    2MOL   O506 1068   6.460   5.077   0.532  0.6661  0.1757 -0.4710
    2MOL   C507 1069   6.518   4.978   0.447  0.4343  0.5057  0.3002
    2MOL   C508 1070   6.443   4.848   0.487  0.3513  0.0065 -0.4546
    2MOL   O509 1071   6.310   4.855   0.436 -0.6490 -0.4992  0.1810
    2MOL   C510 1072   6.520   4.720   0.447  0.1420 -0.3327 -0.5675
    2MOL   C511 1073   6.549   4.715   0.295  0.3974  0.2505  0.1399
    2MOL   C512 1074   6.641   4.594   0.274  0.5923  0.2237 -0.0461
    2MOL   O513 1075   6.656   4.594   0.139  0.0451 -0.0455  0.0745
    2MOL   C514 1076   6.573   4.466   0.316  0.0067  0.3386 -0.2270
    2MOL   C515 1077   6.669   4.342   0.306  0.0531 -0.3298  0.4877
    2MOL   C516 1078   6.525   4.477   0.466  0.8426  0.7829 -0.2578
    2MOL   C517 1079   6.436   4.595   0.488  0.4321 -0.6102  0.2085
    2MOL   H518 1080   6.624   4.977   0.473  0.5915 -1.7692 -0.3237
    2MOL   H519 1081   6.502   4.997   0.341  0.4182 -0.1605  0.1753
    2MOL   H520 1082   6.436   4.842   0.595 -0.3007 -1.9960 -0.5798
    2MOL   H521 1083   6.302   4.944   0.407 -2.3360 -1.0590 -1.1402
    2MOL   H522 1084   6.616   4.723   0.497  0.2738  0.0042 -0.8382
    2MOL   H523 1085   6.463   4.727   0.230  1.1171 -2.0118 -1.2909
    2MOL   H524 1086   6.603   4.806   0.268  0.2735  0.3377  0.1843
    2MOL   H525 1087   6.734   4.599   0.330 -0.2491  1.4401  1.2811
    2MOL   H526 1088   6.572   4.564   0.109  0.0836 -0.1565  0.0787
    2MOL   H527 1089   6.482   4.463   0.256  0.5457 -0.2030 -1.0223
    2MOL   H528 1090   6.708   4.336   0.204  2.1304 -0.0891  1.2521
    2MOL   H529 1091   6.755   4.365   0.368  1.2545 -2.6803 -0.2678
    2MOL   H530 1092   6.601   4.482   0.544 -1.0691  2.7603  1.5582
    2MOL   H531 1093   6.486   4.380   0.497 -0.8883  1.5794  0.1231
    2MOL   H532 1094   6.399   4.598   0.590  2.4196 -2.7699  1.0456
    2MOL   H533 1095   6.350   4.585   0.422  1.0054 -0.7006 -0.5349
    2MOL   O534 1096   6.607   4.225   0.360  0.1668  0.1229 -0.0002
    2MOL   C535 1097   6.695   4.117   0.372  0.0559 -0.4286 -0.0996
    2MOL   C536 1098   6.619   3.994   0.432  0.5529 -0.0215  0.8108
    2MOL   O537 1099   6.642   3.879   0.355  0.0197 -1.1296 -0.1149
    2MOL   C538 1100   6.650   3.972   0.581 -0.7974  0.2498 -0.4160
    2MOL   C539 1101   6.793   3.932   0.602 -0.8440 -0.3877 -0.1961
    2MOL   C540 1102   6.821   3.905   0.751  0.3639 -0.0378  0.3626
    2MOL   O541 1103   6.959   3.867   0.772 -0.2686 -0.3157 -0.2828
    2MOL   C542 1104   6.722   3.799   0.817  0.0368 -0.5971 -0.3702
    2MOL   C543 1105   6.756   3.779   0.967  0.4570  0.2662  0.4455
    2MOL   C544 1106   6.577   3.843   0.794  0.8992  0.4145 -0.0520
    2MOL   C545 1107   6.552   3.860   0.642 -0.9289 -0.1911 -0.3926
    2MOL   H546 1108   6.773   4.154   0.438 -0.3168 -0.7614  0.5276
    2MOL   H547 1109   6.736   4.088   0.275  1.2819 -1.0037  0.5842
    2MOL   H548 1110   6.511   4.007   0.425  0.7051  0.2219 -1.6174
    2MOL   H549 1111   6.734   3.872   0.335  0.8605  1.7493  2.4114
    2MOL   H550 1112   6.631   4.070   0.623  0.2688  0.9368 -1.4937
    2MOL   H551 1113   6.790   3.833   0.555  1.2443  0.3779 -2.0112
    2MOL   H552 1114   6.866   3.999   0.557  0.0329 -0.9942  0.3107
    2MOL   H553 1115   6.819   3.995   0.812 -1.1869 -0.0714  0.3609
    2MOL   H554 1116   6.985   3.799   0.712  0.6398  1.0720 -1.5052
    2MOL   H555 1117   6.729   3.708   0.759  1.8759  0.0539 -1.1980
    2MOL   H556 1118   6.771   3.877   1.012  0.4284  0.8300 -0.7481
    2MOL   H557 1119   6.673   3.729   1.017 -0.3608  0.1752 -0.9613
    2MOL   H558 1120   6.556   3.930   0.857 -1.3816  0.1538 -0.4081
    2MOL   H559 1121   6.510   3.763   0.824  0.3769  0.3262 -1.4129
    2MOL   H560 1122   6.453   3.900   0.620 -0.0476  1.6747 -1.1150
    2MOL   H561 1123   6.574   3.764   0.597 -1.0146 -1.0590  1.3813
    2MOL   H562 1124   6.848   3.724   0.989  1.2013  0.7488 -1.3764
    3MOL     O1 1125   7.348   6.068   0.390 -0.1853 -0.3998 -0.2051
    3MOL     C2 1126   7.319   6.199   0.358 -0.3299 -0.8901  0.4658
    3MOL     C3 1127   7.405   6.305   0.442  0.7126 -0.1353 -1.3320
    3MOL     O4 1128   7.438   6.240   0.567  0.0520  0.0303  0.1711
    3MOL     C5 1129   7.532   6.356   0.365  0.2267  0.4935 -0.2478
    3MOL     C6 1130   0.005   6.251   0.320 -0.6136  0.4851 -0.2680
    3MOL     C7 1131   0.127   6.304   0.240  0.1937  0.1190  0.7498
    3MOL     O8 1132   0.214   6.202   0.193  0.1057  0.5498  0.2142
    3MOL     C9 1133   0.195   6.406   0.328 -0.5146 -0.1078  0.1689
    3MOL    C10 1134   0.329   6.460   0.270  0.3294  0.3763  0.1769
    3MOL    C11 1135   0.100   6.520   0.373 -0.0200 -0.5421 -0.3305
    3MOL    C12 1136   7.606   6.467   0.449 -0.3356 -0.1260 -0.8762
    3MOL    H13 1137   7.216   6.227   0.378  0.4612  1.9306  0.8037
    3MOL    H14 1138   7.333   6.206   0.250  0.5230  0.9025  0.6622
    3MOL    H15 1139   7.346   6.390   0.473  0.3095 -0.7884 -0.2983
    3MOL    H16 1140   7.460   6.305   0.631  3.0125 -0.1225 -0.6064
    3MOL    H17 1141   7.500   6.411   0.276 -0.9946  2.8564  1.5813
    3MOL    H18 1142   0.052   6.193   0.400 -0.5218  0.1403 -0.5663
    3MOL    H19 1143   7.572   6.174   0.274  0.9726 -0.3264 -1.1180
    3MOL    H20 1144   0.097   6.350   0.147  1.8689 -0.0722  0.1019
    3MOL    H21 1145   0.276   6.233   0.128  0.6378 -0.5383  0.1766
    3MOL    H22 1146   0.217   6.356   0.423  5.5067  2.2412  0.2171
    3MOL    H23 1147   0.370   6.534   0.338  0.1161  3.3791 -2.8291
    3MOL    H24 1148   0.398   6.378   0.249  2.5867  2.0837  0.7276
    3MOL    H25 1149   0.047   6.558   0.286 -0.9138 -0.9892  0.0014
    3MOL    H26 1150   0.141   6.599   0.435 -0.7059 -0.4696  0.0427
    3MOL    H27 1151   7.540   6.553   0.462 -0.4556  0.1994 -3.3616
    3MOL    H28 1152   0.005   6.418   0.541  0.3158  0.7189 -0.6186
    3MOL    H29 1153   7.394   6.092   0.468 -1.2858  0.6413  0.1433
    3MOL    O30 1154   0.303   6.513   0.147  0.9864 -0.0282  0.8005
    3MOL    C31 1155   0.417   6.594   0.108  0.5023  0.3160  0.0608
    3MOL    C32 1156   0.400   6.651   7.599  0.4423 -0.8115 -0.1880
    3MOL    O33 1157   0.273   6.713   7.609 -0.5149 -0.2170  0.6744
    3MOL    C34 1158   0.502   6.758   7.567 -0.0970  0.9943 -0.0414
    3MOL    C35 1159   0.476   6.815   7.427  0.2358 -0.3900  0.6208
    3MOL    C36 1160   0.580   6.922   7.379  0.0496  0.9443 -0.0881
    3MOL    O37 1161   0.557   6.947   7.251 -0.1726  0.3691 -0.3471
    3MOL    C38 1162   0.723   6.860   7.378 -0.0182 -0.0080 -1.2013
    3MOL    C39 1163   0.836   6.962   7.343  0.3627  1.0507  0.3489
    3MOL    C40 1164   0.754   6.807   7.520 -0.4299 -0.4504  0.0088
    3MOL    C41 1165   0.649   6.705   7.562  0.5507 -0.3694 -0.4748
    3MOL    H42 1166   0.510   6.538   0.117  0.1241 -0.3959 -0.4492
    3MOL    H43 1167   0.426   6.674   0.181 -0.5788  1.0424 -0.5921
    3MOL    H44 1168   0.390   6.566   7.531  0.0807 -1.9602  1.2519
    3MOL    H45 1169   0.215   6.648   0.017  0.6707 -0.8272  1.4712
    3MOL    H46 1170   0.500   6.845   0.004  0.5243  0.7271  0.3244
    3MOL    H47 1171   0.476   6.728   7.362 -0.3337  0.3006 -0.3208
    3MOL    H48 1172   0.375   6.854   7.417  0.4175 -0.5329 -2.0484
    3MOL    H49 1173   0.584   7.012   7.440 -0.0525  0.9582 -0.1003
    3MOL    H50 1174   0.566   6.864   7.206 -1.0763  1.2155 -2.1429
    3MOL    H51 1175   0.733   6.784   7.300 -0.8874  0.1600 -1.4873
    3MOL    H52 1176   0.929   6.906   7.352 -0.9969 -1.3964 -0.3162
    3MOL    H53 1177   0.837   6.992   7.239  0.3032  1.4822  0.4729
    3MOL    H54 1178   0.748   6.892   7.589 -2.0901  0.3238 -1.0538
    3MOL    H55 1179   0.853   6.764   7.527 -0.4955 -0.6000  0.0190
    3MOL    H56 1180   0.688   6.659   0.023  2.1083  0.9910 -0.4192
    3MOL    H57 1181   0.651   6.619   7.495  2.1916  0.9970 -2.2533
    3MOL    O58 1182   0.829   7.073   7.432  0.4757 -0.2835  0.1053
    3MOL    C59 1183   0.948   7.143   7.453  0.3422  0.5870 -0.1430
    3MOL    C60 1184   0.908   7.292   7.491 -0.2460  0.1182  0.1642
    3MOL    O61 1185   0.866   7.296   7.622  0.2851 -0.2622  0.6170
    3MOL    C62 1186   1.029   7.388   7.473 -0.5913  0.2277  0.2313
    3MOL    C63 1187   1.148   7.364   7.560 -0.0214 -0.0911  0.5460
    3MOL    C64 1188   1.268   7.435   7.502 -1.0746 -0.2127  0.7910
    3MOL    O65 1189   1.390   7.403   7.572  0.6834  0.0297  1.0335
    3MOL    C66 1190   1.247   7.587   7.520  0.1230 -0.1687 -0.5238
    3MOL    C67 1191   1.354   0.048   7.453 -0.3660 -0.4590 -0.1915
    3MOL    C68 1192   1.105   7.627   7.469  0.2698 -0.3994 -0.1013
    3MOL    C69 1193   0.984   7.534   7.471 -0.7693 -0.2380  0.7015
    3MOL    H70 1194   1.008   7.135   7.363  0.4697  0.3305 -0.0344
    3MOL    H71 1195   0.998   7.085   7.530 -1.6058 -0.8403  0.0921
    3MOL    H72 1196   0.836   7.327   7.418 -1.8639 -1.0062  1.2028
    3MOL    H73 1197   0.800   7.228   0.001  1.3698 -1.7704 -2.2363
    3MOL    H74 1198   1.059   7.371   7.370 -0.0742 -1.9042  0.7019
    3MOL    H75 1199   1.128   7.402   0.031 -0.2297 -2.5506  1.4816
    3MOL    H76 1200   1.166   7.258   7.581 -4.1414 -0.7919  1.0488
    3MOL    H77 1201   1.274   7.411   7.396  1.2313 -1.8718  1.2494
    3MOL    H78 1202   1.410   7.311   7.561  1.3843  0.3767 -0.8775
    3MOL    H79 1203   1.234   7.602   7.627 -0.1254  3.8941 -1.0497
    3MOL    H80 1204   1.446   7.624   7.478 -0.3109 -1.2405 -1.9708
    3MOL    H81 1205   1.337   0.055   7.345 -0.4594  2.9632  0.0130
    3MOL    H82 1206   1.104   0.015   7.361 -3.5926  2.4641  0.2787
    3MOL    H83 1207   1.075   0.094   7.510 -1.9626 -1.7475  1.5374
    3MOL    H84 1208   0.929   7.556   7.379  1.7081  3.6421  0.0495
    3MOL    H85 1209   0.920   7.553   7.558  2.4151  2.0456  2.6445
    3MOL    O86 1210   1.357   0.179   7.514  0.4316 -0.6613 -0.0035
    3MOL    C87 1211   1.467   0.266   7.468  0.3947 -0.3998 -0.1055
    3MOL    C88 1212   1.418   0.407   7.459 -0.4771  0.3767 -0.1699
    3MOL    O89 1213   1.293   0.382   7.403 -0.4343  0.0205 -0.2502
    3MOL    C90 1214   1.396   0.476   7.595 -0.4176  0.3793 -0.8308
    3MOL    C91 1215   1.334   0.622   7.591  0.2315 -0.6046 -0.4374
    3MOL    C92 1216   1.303   0.663   0.107  0.6833 -0.0018 -0.4126
    3MOL    O93 1217   1.260   0.793   0.114 -0.4182 -0.6967  0.0901
    3MOL    C94 1218   1.428   0.657   0.197 -0.3609 -0.2169 -0.0228
    3MOL    C95 1219   1.395   0.699   0.344  0.4381  0.7916  0.2410
    3MOL    C96 1220   1.497   0.518   0.193 -0.1333  0.5485 -0.5530
    3MOL    C97 1221   1.523   0.474   0.052 -0.6964  0.4695 -0.3999
    3MOL    H98 1222   1.493   0.237   7.366  0.4195 -0.7076 -0.0142
    3MOL    H99 1223   1.554   0.243   7.528 -0.6745 -1.6203  1.0133
    3MOL   H100 1224   1.480   0.463   7.389 -2.8594  1.1533 -1.7116
    3MOL   H101 1225   1.274   0.299   7.444 -0.0197 -0.9308 -1.9378
    3MOL   H102 1226   1.320   0.419   0.017 -0.7580  2.6999  1.3307
    3MOL   H103 1227   1.410   0.689   7.552 -0.4044  0.4857  0.1620
    3MOL   H104 1228   1.247   0.626   7.524  0.3686 -1.9384 -0.7017
    3MOL   H105 1229   1.227   0.597   0.148  1.6551 -0.5119  0.5893
    3MOL   H106 1230   1.225   0.803   0.027 -0.9635  3.1504  0.6674
    3MOL   H107 1231   1.504   0.732   0.170 -0.9061  0.1711 -0.4925
    3MOL   H108 1232   1.342   0.794   0.342 -0.6024  0.2457  0.8736
    3MOL   H109 1233   1.342   0.618   0.396  0.4986  0.4062 -0.2970
    3MOL   H110 1234   1.425   0.442   0.225  0.6277 -0.9141 -2.2711
    3MOL   H111 1235   1.586   0.517   0.256  0.0487  1.3892 -0.7904
    3MOL   H112 1236   1.574   0.378   0.057  0.2543  0.9386 -0.9141
    3MOL   H113 1237   1.601   0.537   0.009 -0.2824  0.0860 -0.2096
    3MOL   O114 1238   1.517   0.714   0.409  0.3758 -0.8597  0.2789
    3MOL   C115 1239   1.512   0.774   0.537 -0.6208  0.0856  0.2404
    3MOL   C116 1240   1.471   0.921   0.533  0.3075 -0.3044 -0.2174
    3MOL   O117 1241   1.480   0.979   0.664 -0.0930 -0.4614 -0.0721
    3MOL   C118 1242   1.547   1.012   0.426  0.0727  1.6054 -0.7668
    3MOL   C119 1243   1.698   1.030   0.457 -0.3357 -0.1218 -0.2171
    3MOL   C120 1244   1.764   1.113   0.348  1.0228 -0.3099 -0.3270
    3MOL   O121 1245   1.902   1.114   0.374  0.2555  0.2955  0.4224
    3MOL   C122 1246   1.700   1.252   0.324  0.0492  0.0345 -0.1449
    3MOL   C123 1247   1.785   1.325   0.213  0.6346 -0.2076 -0.3710
    3MOL   C124 1248   1.545   1.240   0.300  0.1623  0.0188 -0.2985
    3MOL   C125 1249   1.481   1.148   0.405 -0.0366  0.5416  0.6389
    3MOL   H126 1250   1.614   0.764   0.575 -1.2298 -2.9546  1.2019
    3MOL   H127 1251   1.444   0.718   0.601 -0.2800  0.7387  1.1925
    3MOL   H128 1252   1.366   0.940   0.507  0.6875 -0.4099 -1.8403
    3MOL   H129 1253   1.412   0.931   0.708  1.4491 -1.2186  1.5341
    3MOL   H130 1254   1.536   0.958   0.332 -0.2360 -2.0948  1.2992
    3MOL   H131 1255   1.709   1.074   0.556 -1.2688  1.7278 -0.9050
    3MOL   H132 1256   1.735   0.927   0.459  0.8085  0.2940  3.9987
    3MOL   H133 1257   1.747   1.048   0.262  1.4563 -0.6590 -0.1508
    3MOL   H134 1258   1.919   1.028   0.410  0.4490  0.7620  1.4739
    3MOL   H135 1259   1.703   1.301   0.421  1.0171  0.5768 -0.4351
    3MOL   H136 1260   1.874   1.352   0.270 -0.5576  0.7021  1.1081
    3MOL   H137 1261   1.814   1.248   0.142 -0.0904  0.9181 -1.9171
    3MOL   H138 1262   1.526   1.215   0.196 -0.1585 -0.7590 -0.0621
    3MOL   H139 1263   1.498   1.337   0.314  0.3334 -0.0287  0.6401
    3MOL   H140 1264   1.375   1.136   0.382  0.0025  1.0130  0.1981
    3MOL   H141 1265   1.498   1.192   0.503  1.6869  0.7713  0.2539
    3MOL   O142 1266   1.708   1.415   0.141  0.2598  0.4899 -0.5914
    3MOL   C143 1267   1.701   1.543   0.203  0.1124 -0.7561  0.2937
    3MOL   C144 1268   1.810   1.638   0.146 -0.2138 -0.4088 -0.5841
    3MOL   O145 1269   1.933   1.581   0.184  0.2937 -0.2096 -0.1412
    3MOL   C146 1270   1.811   1.634   7.617 -0.0585 -0.0089  0.0395
    3MOL   C147 1271   1.938   1.692   7.563 -0.0612 -0.6599 -0.0175
    3MOL   C148 1272   1.930   1.718   7.412  0.4113  0.3426 -0.1005
    3MOL   O149 1273   2.047   1.790   7.373  0.8332 -0.3564 -0.3944
    3MOL   C150 1274   1.805   1.793   7.369  0.3554 -0.9169 -0.6154
    3MOL   C151 1275   1.803   1.831   7.216 -0.5212  0.2052 -0.5190
    3MOL   C152 1276   1.684   1.712   7.408 -0.5044 -0.6501 -0.2592
    3MOL   C153 1277   1.688   1.703   7.566  0.1129  0.3394  0.0083
    3MOL   H154 1278   1.714   1.541   0.311  1.5317  2.1929  0.2419
    3MOL   H155 1279   1.610   1.601   0.186  1.6397  1.2263 -1.5217
    3MOL   H156 1280   1.799   1.740   0.184  0.5354 -1.2983  2.1689
    3MOL   H157 1281   1.946   1.504   0.130  0.5207  0.2477 -0.7429
    3MOL   H158 1282   1.809   1.528   7.591  2.2127 -0.8424  2.9501
    3MOL   H159 1283   1.964   1.786   7.612  2.2882 -1.0616 -0.4199
    3MOL   H160 1284   2.029   1.633   7.566 -0.2519 -1.0760 -1.7924
    3MOL   H161 1285   1.925   1.623   7.358 -2.0550 -0.8260  2.0315
    3MOL   H162 1286   2.110   1.723   7.354  0.9044 -0.1406 -0.9099
    3MOL   H163 1287   1.798   1.890   7.419  0.2223  0.4451 -3.1807
    3MOL   H164 1288   1.717   1.882   7.172  0.9319  2.5070 -0.7814
    3MOL   H165 1289   1.879   1.905   7.191  1.2332 -1.6310 -0.7858
    3MOL   H166 1290   1.687   1.614   7.361 -0.5413 -0.1817 -1.2403
    3MOL   H167 1291   1.594   1.764   7.377  0.5561  2.4364  1.6517
    3MOL   H168 1292   1.602   1.662   7.618  2.6537 -2.5188  2.1669
    3MOL   H169 1293   1.672   1.802   7.609 -3.6311 -0.3794  0.4722
    3MOL   O170 1294   1.812   1.707   7.149 -0.4541  0.2181 -0.0399
    3MOL   C171 1295   1.889   1.712   7.027 -0.4737  0.2311  0.5101
    3MOL   C172 1296   1.905   1.567   6.981 -0.1224 -0.9199 -0.2981
    3MOL   O173 1297   1.770   1.521   6.960 -0.0439 -0.3286  0.4557
    3MOL   C174 1298   1.985   1.545   6.845 -0.5312  0.4408  0.0715
    3MOL   C175 1299   1.982   1.400   6.805  0.3434 -0.5090 -0.1954
    3MOL   C176 1300   2.075   1.360   6.685  1.0378  0.1949 -0.3651
    3MOL   O177 1301   2.055   1.215   6.681 -0.3715 -0.1233 -0.2571
    3MOL   C178 1302   2.230   1.403   6.708 -0.5650  0.2409 -0.0341
    3MOL   C179 1303   2.312   1.360   6.584 -0.4967  0.6311  0.1292
    3MOL   C180 1304   2.226   1.550   6.737  0.1196 -0.1374 -0.5870
    3MOL   C181 1305   2.131   1.600   6.852 -0.5341 -0.2673  0.0234
    3MOL   H182 1306   1.985   1.760   7.047  0.6931 -0.9551 -2.0781
    3MOL   H183 1307   1.837   1.769   6.950 -0.3799  0.4451  0.6053
    3MOL   H184 1308   1.955   1.511   7.061 -2.4023 -0.9905  1.1354
    3MOL   H185 1309   1.712   1.572   7.014 -0.1710 -0.4797  0.4598
    3MOL   H186 1310   1.929   1.600   6.769  0.1567 -2.2943 -2.5080
    3MOL   H187 1311   2.023   1.348   6.892 -1.1564 -1.1237  0.1470
    3MOL   H188 1312   1.877   1.382   6.783  0.6396  0.1055 -2.1829
    3MOL   H189 1313   2.041   1.389   6.586  1.3282 -1.8985 -1.1129
    3MOL   H190 1314   1.970   1.183   6.707  0.3046 -2.8095 -1.1142
    3MOL   H191 1315   2.265   1.366   6.805 -1.1272  0.3230  0.2023
    3MOL   H192 1316   2.302   1.255   6.559  1.5413 -0.4490  3.5524
    3MOL   H193 1317   2.290   1.429   6.502  0.4893  0.5942 -0.1826
    3MOL   H194 1318   2.219   1.601   6.640 -1.2593  1.3749  0.2799
    3MOL   H195 1319   2.326   1.585   6.765  0.2427 -1.0638  0.1541
    3MOL   H196 1320   2.128   1.709   6.844 -2.3824 -0.1564  1.9587
    3MOL   H197 1321   2.177   1.593   6.950  0.0976 -2.8833 -0.4278
    3MOL   O198 1322   2.451   1.371   6.625  0.3648  0.6202 -0.1807
    3MOL   C199 1323   2.539   1.284   6.557  0.7776 -0.1216  0.2789
    3MOL   C200 1324   2.687   1.307   6.590  0.3832 -0.2860 -0.1367
    3MOL   O201 1325   2.687   1.270   6.731 -0.7185  0.0086 -0.4875
    3MOL   C202 1326   2.781   1.217   6.513  0.3071  0.2670 -0.2236
    3MOL   C203 1327   2.903   1.153   6.598  0.3854 -0.0235 -0.6533
    3MOL   C204 1328   2.979   1.059   6.505  0.2845 -0.0758  0.1130
    3MOL   O205 1329   3.092   1.006   6.569 -0.5034  0.0787 -0.3838
    3MOL   C206 1330   3.044   1.133   6.387 -0.3175  0.4491  0.3469
    3MOL   C207 1331   3.132   1.045   6.295 -0.2018  0.2794  0.0931
    3MOL   C208 1332   2.931   1.199   6.308  0.3371 -0.0288 -0.0985
    3MOL   C209 1333   2.832   1.290   6.386 -0.3853  0.2590 -0.3339
    3MOL   H210 1334   2.519   1.295   6.451  0.6270  0.3170  0.3492
    3MOL   H211 1335   2.516   1.179   6.570  1.6784 -0.6983 -2.4725
    3MOL   H212 1336   2.702   1.415   6.588 -0.1783 -0.2101 -0.3786
    3MOL   H213 1337   2.654   1.342   6.783  0.4982 -0.4483  0.9384
    3MOL   H214 1338   2.720   1.140   6.467 -1.1741  1.6844 -0.6685
    3MOL   H215 1339   2.979   1.227   6.623 -0.8952  0.9634  0.3277
    3MOL   H216 1340   2.864   1.094   6.680 -0.7912  1.9696  0.2361
    3MOL   H217 1341   2.905   0.982   6.486  0.6191  0.3128 -3.0612
    3MOL   H218 1342   3.156   1.074   6.584  0.0621  0.1550 -2.8375
    3MOL   H219 1343   3.100   1.222   6.414  0.2317  0.0725  0.4559
    3MOL   H220 1344   3.218   0.994   6.338 -0.6349  0.3527  1.0630
    3MOL   H221 1345   3.075   0.967   6.244 -1.8279  1.4505  0.0702
    3MOL   H222 1346   2.882   1.120   6.251 -0.0531 -0.4045  0.7606
    3MOL   H223 1347   2.951   1.265   6.223 -0.7317 -0.8054 -0.9732
    3MOL   H224 1348   2.743   1.317   6.330  0.2066  0.8779 -0.9970
    3MOL   H225 1349   2.883   1.375   6.431  0.1829 -0.0038 -0.4753
    3MOL   O226 1350   3.176   1.141   6.210 -0.0517 -0.6396 -0.4603
    3MOL   C227 1351   3.180   1.098   6.081 -0.6998 -0.4601 -0.1143
    3MOL   C228 1352   3.212   1.219   5.990 -0.4363  0.3176  0.6165
    3MOL   O229 1353   3.318   1.293   6.032  0.1147  0.1481 -0.2896
    3MOL   C230 1354   3.209   1.192   5.842  0.7464 -0.1496 -0.4303
    3MOL   C231 1355   3.329   1.115   5.789  0.7683 -0.2067 -0.5239
    3MOL   C232 1356   3.324   1.097   5.646 -0.0111  0.5768 -0.0786
    3MOL   O233 1357   3.443   1.034   5.604  0.0815  0.2140 -0.1585
    3MOL   C234 1358   3.301   1.223   5.557  0.1735 -0.2374 -0.3298
    3MOL   C235 1359   3.269   1.180   5.412 -0.1837 -0.2775 -0.1872
    3MOL   C236 1360   3.180   1.305   5.619  0.0618  0.1400  0.4288
    3MOL   C237 1361   3.186   1.329   5.772  0.3359 -0.0037 -0.2564
    3MOL   H238 1362   3.080   1.071   6.046 -0.6693 -0.6039 -0.0902
    3MOL   H239 1363   3.238   1.007   6.065 -0.2549 -0.1890 -0.0417
    3MOL   H240 1364   3.134   1.290   6.017 -0.3523  0.9880 -0.8710
    3MOL   H241 1365   3.371   1.226   6.072  0.5122 -0.6000 -2.0317
    3MOL   H242 1366   3.117   1.135   5.826  2.1639 -2.5188 -0.3510
    3MOL   H243 1367   3.415   1.177   5.812  0.0695 -0.3166  2.5847
    3MOL   H244 1368   3.353   1.023   5.843 -0.8948 -0.6109 -0.4172
    3MOL   H245 1369   3.244   1.026   5.628  0.1889  0.0935  0.9386
    3MOL   H246 1370   3.513   1.077   5.652 -0.3388 -0.9562  1.5238
    3MOL   H247 1371   3.391   1.284   5.552  1.3419 -1.7069  1.9471
    3MOL   H248 1372   3.359   1.146   5.361  0.2673  1.1691 -0.3783
    3MOL   H249 1373   3.182   1.117   5.392 -0.8679  0.6671 -0.2081
    3MOL   H250 1374   3.095   1.244   5.590  1.7359 -0.9443 -2.4586
    3MOL   H251 1375   3.167   1.398   5.563 -1.0706 -0.1375  0.2337
    3MOL   H252 1376   3.098   1.382   5.810  0.1051 -1.8475  1.9297
    3MOL   H253 1377   3.262   1.405   5.787  0.9099 -0.8906  1.5588
    3MOL   O254 1378   3.240   1.300   5.340 -0.6421 -0.5190 -0.0813
    3MOL   C255 1379   3.234   1.286   5.193  0.0886  0.2059  0.0796
    3MOL   C256 1380   3.103   1.350   5.138  0.1599  0.1133  0.2011
    3MOL   O257 1381   3.114   1.422   5.014 -0.6474  0.0768  0.0423
    3MOL   C258 1382   2.981   1.251   5.142 -0.4659  0.1597  0.3468
    3MOL   C259 1383   2.986   1.149   5.023  0.0729 -0.3835  0.1637
    3MOL   C260 1384   2.853   1.065   5.005 -0.0834  0.4331 -0.7580
    3MOL   O261 1385   2.868   1.004   4.878  0.2235  0.2676 -0.8499
    3MOL   C262 1386   2.724   1.150   5.009 -0.2469 -0.8432  0.2717
    3MOL   C263 1387   2.591   1.082   4.961  0.0033 -0.1276  0.4312
    3MOL   C264 1388   2.717   1.235   5.137 -0.2714  0.1211 -0.1271
    3MOL   C265 1389   2.847   1.320   5.155 -0.3727  0.3101  0.4767
    3MOL   H266 1390   3.261   1.190   5.150  2.9858  0.5961  0.9548
    3MOL   H267 1391   3.315   1.351   5.161 -1.7750  2.4949 -0.1959
    3MOL   H268 1392   3.072   1.429   5.207 -0.0861 -0.6754  1.0004
    3MOL   H269 1393   3.168   1.377   4.952 -0.6546 -1.2124  0.9430
    3MOL   H270 1394   2.992   1.187   5.229 -0.2470  0.9413  0.8961
    3MOL   H271 1395   2.996   1.218   4.939 -0.3214 -1.3761 -0.7070
    3MOL   H272 1396   3.071   1.081   5.032  1.2099  1.2679  2.1524
    3MOL   H273 1397   2.856   0.980   5.073 -0.0137  1.2444  0.2679
    3MOL   H274 1398   2.843   0.913   4.879 -0.6401  0.4933  1.2751
    3MOL   H275 1399   2.734   1.219   4.925 -0.8112  0.3777  1.1994
    3MOL   H276 1400   2.615   1.037   4.865 -1.1966 -2.1459  1.0599
    3MOL   H277 1401   2.563   1.006   5.034 -2.3322  0.2529 -0.0366
    3MOL   H278 1402   2.698   1.172   5.224 -0.0382 -2.8887 -2.1636
    3MOL   H279 1403   2.635   1.306   5.150  0.8607  1.4476 -0.1013
    3MOL   H280 1404   2.845   1.367   5.253 -2.4052 -0.4829  0.8394
    3MOL   H281 1405   2.839   1.404   5.087  2.1025  0.3783  0.2263
    3MOL   O282 1406   2.488   1.184   4.951 -0.5921  0.6214  0.0194
    3MOL   C283 1407   2.359   1.143   4.904  0.5222  0.1681  0.3083
    3MOL   C284 1408   2.284   1.271   4.860  0.1512 -0.0398 -0.5019
    3MOL   O285 1409   2.358   1.326   4.749 -0.4789  0.2864  0.5787
    3MOL   C286 1410   2.141   1.251   4.825  0.3808  0.0532  0.3838
    3MOL   C287 1411   2.066   1.381   4.784 -0.0232  0.6197 -0.0294
    3MOL   C288 1412   1.914   1.353   4.749 -0.2057  0.0493 -0.5503
    3MOL   O289 1413   1.864   1.484   4.708 -0.0030  0.7376 -0.6523
    3MOL   C290 1414   1.849   1.292   4.879  0.4398  0.1373  0.8517
    3MOL   C291 1415   1.703   1.290   4.857  0.4548 -0.1480  0.1219
    3MOL   C292 1416   1.925   1.163   4.908 -0.0130 -0.5207 -0.6296
    3MOL   C293 1417   2.068   1.177   4.935 -1.0904  0.1026 -0.0513
    3MOL   H294 1418   2.302   1.084   4.975  0.2802 -0.0598 -0.0738
    3MOL   H295 1419   2.375   1.089   4.810  1.3101  0.7026  0.1284
    3MOL   H296 1420   2.274   1.347   4.937 -1.3133  1.0780 -1.7511
    3MOL   H297 1421   2.449   1.321   4.772 -0.6445  0.7629  1.3814
    3MOL   H298 1422   2.142   1.194   4.732  1.2830 -0.9748  1.0178
    3MOL   H299 1423   2.078   1.450   4.867 -1.7856  2.2058 -1.0550
    3MOL   H300 1424   2.108   1.421   4.692 -0.1965  1.3137  0.1903
    3MOL   H301 1425   1.900   1.282   4.668  1.3327 -0.7146 -0.1706
    3MOL   H302 1426   1.827   1.463   4.624 -0.4045 -0.1606 -0.2594
    3MOL   H303 1427   1.873   1.368   4.953 -0.9088  1.7690 -0.3577
    3MOL   H304 1428   1.659   1.387   4.833  1.8846  0.3273 -0.5904
    3MOL   H305 1429   1.676   1.226   4.773  0.6455 -0.3411  0.2070
    3MOL   H306 1430   1.925   1.100   4.818  0.4092 -0.9162 -0.3554
    3MOL   H307 1431   1.871   1.104   4.982 -0.7132 -0.3202 -0.9752
    3MOL   H308 1432   2.097   1.072   4.928 -1.5422  0.1076 -2.6129
    3MOL   H309 1433   2.094   1.223   5.030  2.2024 -1.4008 -0.1536
    3MOL   O310 1434   1.635   1.235   4.970 -0.6538 -0.5171 -0.0389
    3MOL   C311 1435   1.630   1.321   5.086 -0.4514 -0.1969 -0.7997
    3MOL   C312 1436   1.530   1.280   5.202  0.1066  0.0507  0.7473
    3MOL   O313 1437   1.398   1.300   5.144 -0.0119 -0.1700  0.5846
    3MOL   C314 1438   1.561   1.147   5.261  0.8002  0.6764  0.8276
    3MOL   C315 1439   1.428   1.088   5.311  0.1805  0.2943  0.2389
    3MOL   C316 1440   1.443   0.945   5.370 -0.4073  0.4697 -1.2356
    3MOL   O317 1441   1.313   0.907   5.420  0.3341 -0.3992 -0.0283
    3MOL   C318 1442   1.548   0.942   5.483  0.1425 -0.1998  0.4955
    3MOL   C319 1443   1.565   0.801   5.529 -0.5676  0.6557 -0.0280
    3MOL   C320 1444   1.677   1.002   5.440  0.1226  0.3304 -0.2202
    3MOL   C321 1445   1.659   1.144   5.371 -0.7253 -0.1946 -0.4578
    3MOL   H322 1446   1.603   1.422   5.056  1.2908  0.4117 -0.3882
    3MOL   H323 1447   1.728   1.325   5.132 -0.7258  1.2575 -0.2909
    3MOL   H324 1448   1.530   1.358   5.278  3.0017  0.0127  0.8426
    3MOL   H325 1449   1.347   1.368   5.184  1.2421  0.3953  1.2418
    3MOL   H326 1450   1.598   1.080   5.184 -0.6433  0.6364  0.1541
    3MOL   H327 1451   1.391   1.162   5.382  0.0930  0.3285  0.1553
    3MOL   H328 1452   1.353   1.075   5.234  1.4041 -4.9778 -0.2742
    3MOL   H329 1453   1.465   0.873   5.291 -3.4299 -1.9323 -0.0164
    3MOL   H330 1454   1.299   0.821   5.382 -1.7231 -0.6399  1.1749
    3MOL   H331 1455   1.514   1.001   5.568  0.4075  0.0669  0.4143
    3MOL   H332 1456   1.468   0.760   5.558  0.2856 -3.0927 -2.1154
    3MOL   H333 1457   1.605   0.747   5.444 -3.6270 -0.8954 -0.5795
    3MOL   H334 1458   1.739   0.931   5.384 -1.0583 -0.8668 -0.0415
    3MOL   H335 1459   1.734   1.017   5.532 -1.7262  1.1865  0.8063
    3MOL   H336 1460   1.757   1.177   5.337 -1.0511  0.9723 -0.2674
    3MOL   H337 1461   1.632   1.222   5.442 -1.6101 -0.6986 -0.2246
    3MOL   O338 1462   1.651   0.777   5.644  0.4676 -0.0286 -0.2858
    3MOL   C339 1463   1.702   0.644   5.662 -0.3845 -0.2880 -0.3983
    3MOL   C340 1464   1.769   0.633   5.802 -0.4134  0.0521  0.1266
    3MOL   O341 1465   1.773   0.497   5.837  0.2370 -0.3318  0.1179
    3MOL   C342 1466   1.916   0.684   5.791  0.7215 -0.5671 -0.4266
    3MOL   C343 1467   2.024   0.593   5.726  0.4438 -0.1016 -0.5232
    3MOL   C344 1468   2.154   0.665   5.711 -0.1837 -0.2599  0.2112
    3MOL   O345 1469   2.249   0.579   5.644  0.1164 -0.3776  0.0149
    3MOL   C346 1470   2.212   0.714   5.844 -0.2019  0.2009 -0.0887
    3MOL   C347 1471   2.321   0.814   5.811 -0.1447 -0.7080  0.1177
    3MOL   C348 1472   2.101   0.777   5.935 -0.5934 -0.4437  0.1155
    3MOL   C349 1473   1.962   0.711   5.937  0.5416  0.3178  0.7777
    3MOL   H350 1474   1.782   0.632   5.588  0.9321  1.3157  0.7249
    3MOL   H351 1475   1.630   0.564   5.644  0.2999 -1.1553  0.6291
    3MOL   H352 1476   1.712   0.687   5.878 -1.5914 -0.1861 -0.5780
    3MOL   H353 1477   1.708   0.486   5.904 -1.3913  0.3856 -1.2911
    3MOL   H354 1478   1.904   0.775   5.733 -0.6215 -0.2580  0.3188
    3MOL   H355 1479   2.044   0.502   5.783 -1.2181  0.8481  1.6328
    3MOL   H356 1480   1.985   0.559   5.630  2.0958  0.4671 -1.4123
    3MOL   H357 1481   2.134   0.751   5.646  0.6944  0.5362  0.9696
    3MOL   H358 1482   2.321   0.633   5.616 -1.6455  2.3974  0.6119
    3MOL   H359 1483   2.260   0.627   5.889  2.6549  1.2040 -1.1161
    3MOL   H360 1484   2.392   0.759   5.749 -0.1666 -0.3008 -0.2741
    3MOL   H361 1485   2.286   0.891   5.743  0.8561 -0.8488 -0.5628
    3MOL   H362 1486   2.091   0.884   5.916  1.5138 -0.6426 -2.4328
    3MOL   H363 1487   2.138   0.774   6.037  1.0459  0.3229 -0.4327
    3MOL   H364 1488   1.901   0.765   6.010 -0.8029 -2.1834  1.5883
    3MOL   H365 1489   1.969   0.611   5.981 -1.3344 -0.2916 -0.2451
    3MOL   O366 1490   2.352   0.882   5.929  0.4299 -0.1333  0.3907
    3MOL   C367 1491   2.475   0.953   5.925  0.4831  0.4935  0.4939
    3MOL   C368 1492   2.495   1.028   6.056 -0.5308  0.7134  0.2212
    3MOL   O369 1493   2.388   1.106   6.084 -0.0893  0.3554 -0.5209
    3MOL   C370 1494   2.531   0.962   6.187  0.4900  0.2450 -0.0183
    3MOL   C371 1495   2.682   0.911   6.175  0.2493  0.1803 -0.4769
    3MOL   C372 1496   2.726   0.844   6.307  0.5593  0.2044 -0.1355
    3MOL   O373 1497   2.862   0.818   6.309 -0.8521  0.1852 -0.1534
    3MOL   C374 1498   2.636   0.729   6.339 -0.7495  1.0344  0.0190
    3MOL   C375 1499   2.680   0.662   6.470  0.3947  0.0160  0.1583
    3MOL   C376 1500   2.493   0.779   6.348 -0.1978  0.1263  0.1526
    3MOL   C377 1501   2.446   0.842   6.217  0.4155 -0.5336  0.6922
    3MOL   H378 1502   2.462   1.038   5.857  0.3509  2.7278  3.2087
    3MOL   H379 1503   2.558   0.885   5.904 -1.1038 -1.4887  0.5311
    3MOL   H380 1504   2.570   1.104   6.031  2.1776 -2.3035 -1.1206
    3MOL   H381 1505   2.326   1.054   6.034  1.0966 -1.6236  0.0273
    3MOL   H382 1506   2.501   1.037   6.260 -0.1293  0.8627 -0.8961
    3MOL   H383 1507   2.683   0.855   6.082  0.2009 -1.3676  0.4435
    3MOL   H384 1508   2.747   0.995   6.150  2.3639 -1.4457 -0.6033
    3MOL   H385 1509   2.697   0.925   6.374  2.2431  1.1833 -0.5434
    3MOL   H386 1510   2.888   0.794   6.396  3.4890  0.5547 -1.2512
    3MOL   H387 1511   2.641   0.652   6.262 -0.1887 -1.8550  2.8377
    3MOL   H388 1512   2.618   0.575   6.490 -0.1810  0.1432 -1.0460
    3MOL   H389 1513   2.783   0.628   6.474  0.8515  1.2502 -0.6517
    3MOL   H390 1514   2.478   0.844   6.434 -0.7940 -2.5252  2.1253
    3MOL   H391 1515   2.432   0.691   6.372  1.3409 -0.5954  1.5337
    3MOL   H392 1516   2.343   0.870   6.236  0.3886  1.2684 -1.8880
    3MOL   H393 1517   2.447   0.769   6.136 -0.6391  0.2458 -0.0266
    3MOL   O394 1518   2.667   0.752   6.580 -0.0821  0.2568 -0.1182
    3MOL   C395 1519   2.751   0.722   6.691  0.1304  0.5939 -0.1942
    3MOL   C396 1520   2.655   0.691   6.813 -0.2018 -0.8785  0.9388
    3MOL   O397 1521   2.732   0.703   6.931 -0.0420  0.4054 -0.4421
    3MOL   C398 1522   2.530   0.779   6.822  0.5539 -0.0211  0.2869
    3MOL   C399 1523   2.562   0.931   6.833 -0.0089  0.0242 -0.6042
    3MOL   C400 1524   2.431   1.015   6.840  0.2525  0.2226  0.4085
    3MOL   O401 1525   2.476   1.146   6.876 -0.4128  0.1101  0.0570
    3MOL   C402 1526   2.329   0.965   6.940  0.1449 -0.2380 -0.1317
    3MOL   C403 1527   2.193   1.047   6.925  0.2690 -0.0289  1.0281
    3MOL   C404 1528   2.309   0.815   6.937 -0.2282  0.2996  0.0190
    3MOL   C405 1529   2.445   0.738   6.940  0.0454  0.0848 -0.4086
    3MOL   H406 1530   2.816   0.809   6.704 -1.2766  1.6014  0.2809
    3MOL   H407 1531   2.803   0.629   6.669 -1.8882 -0.7037  0.3376
    3MOL   H408 1532   2.614   0.594   6.785 -1.2480  0.0505 -0.8083
    3MOL   H409 1533   2.764   0.792   6.932  1.7257 -0.2219  0.6041
    3MOL   H410 1534   2.467   0.770   6.734 -0.3622 -0.8084  0.9949
    3MOL   H411 1535   2.614   0.943   6.929 -3.6857 -1.5407  1.7004
    3MOL   H412 1536   2.632   0.968   6.758  0.1659 -0.3506 -0.6295
    3MOL   H413 1537   2.388   1.017   6.740 -0.3527 -3.0680  0.5485
    3MOL   H414 1538   2.541   1.170   6.812 -1.7256  2.1794 -0.5671
    3MOL   H415 1539   2.369   0.994   7.037  1.1666 -0.3659 -0.5157
    3MOL   H416 1540   2.206   1.155   6.925  1.0081 -0.0786 -1.7336
    3MOL   H417 1541   2.145   1.025   6.830  3.2321 -2.0473 -0.0695
    3MOL   H418 1542   2.247   0.797   6.849  0.8112  2.2287 -1.1400
    3MOL   H419 1543   2.240   0.784   7.016  0.8864  0.1034  0.9291
    3MOL   H420 1544   2.433   0.630   6.935  2.3462 -0.1312 -1.9124
    3MOL   H421 1545   2.493   0.763   7.035 -2.7457  1.3595  0.7260
    3MOL   O422 1546   2.111   1.018   7.036 -0.3679 -0.0167 -0.3091
    3MOL   C423 1547   2.004   1.114   7.054  0.1056  0.1441  0.4106
    3MOL   C424 1548   1.923   1.052   7.172  0.6584  0.1558 -0.0545
    3MOL   O425 1549   1.997   0.987   7.273 -0.4212  0.4966  0.1956
    3MOL   C426 1550   1.844   1.162   7.243 -0.2018 -0.3806 -0.0282
    3MOL   C427 1551   1.771   1.100   7.369 -0.1614  0.3321  0.0639
    3MOL   C428 1552   1.691   1.206   7.452 -0.1121  0.1177  0.0386
    3MOL   O429 1553   1.629   1.145   7.560  0.1963 -0.5405 -0.5748
    3MOL   C430 1554   1.589   1.270   7.364  0.1889 -0.2098 -0.1317
    3MOL   C431 1555   1.497   1.376   7.426 -0.1511 -0.4157 -0.1198
    3MOL   C432 1556   1.669   1.336   7.250 -0.3427  0.3864 -0.1814
    3MOL   C433 1557   1.737   1.239   7.156  0.3139  0.2082  0.3309
    3MOL   H434 1558   1.946   1.142   6.967  1.9569  1.2703 -0.4827
    3MOL   H435 1559   2.048   1.209   7.083 -0.5746  0.1305  1.5302
    3MOL   H436 1560   1.861   0.975   7.128 -0.9818  1.2716  0.2577
    3MOL   H437 1561   2.080   0.975   7.231 -0.2615  0.6120  0.4767
    3MOL   H438 1562   1.908   1.238   7.288  1.4121  0.0605 -2.9332
    3MOL   H439 1563   1.709   1.018   7.333 -0.2769 -0.2399  1.5176
    3MOL   H440 1564   1.847   1.064   7.439 -2.2230 -2.5551  0.9000
    3MOL   H441 1565   1.754   1.280   7.500  1.1910  0.0485 -1.5183
    3MOL   H442 1566   1.545   1.187   7.573  0.7103  0.4470 -0.3294
    3MOL   H443 1567   1.522   1.196   7.320  0.7826 -2.3628  2.4571
    3MOL   H444 1568   1.558   1.445   7.485 -2.1043  1.1218  0.1807
    3MOL   H445 1569   1.426   1.430   7.364 -0.3879 -0.6259 -0.0303
    3MOL   H446 1570   1.738   1.409   7.291  0.2677  0.5476 -1.5011
    3MOL   H447 1571   1.593   1.386   7.191 -0.3038  0.3738 -0.2419
    3MOL   H448 1572   1.776   1.279   7.062  1.1990  0.0029  0.6023
    3MOL   H449 1573   1.671   1.158   7.124  0.5073  0.7735 -1.5447
    3MOL   O450 1574   1.408   1.307   7.511 -0.0638 -0.5114 -0.7228
    3MOL   C451 1575   1.329   1.396   7.591 -0.0220 -0.4723  0.1417
    3MOL   C452 1576   1.255   1.322   0.078  0.4041  0.6867 -0.1756
    3MOL   O453 1577   1.202   1.413   0.168 -0.2158  0.9702  0.2549
    3MOL   C454 1578   1.146   1.224   0.038  0.0931  0.0280  0.4868
    3MOL   C455 1579   1.195   1.102   7.586 -1.5429 -0.1326 -0.3922
    3MOL   C456 1580   1.083   0.997   7.563  0.4634 -0.0562  0.4471
    3MOL   O457 1581   1.123   0.885   7.488  0.2821  0.7001  0.0512
    3MOL   C458 1582   0.949   1.055   7.512 -0.4720 -0.3832 -0.0919
    3MOL   C459 1583   0.833   0.960   7.517  0.4728  1.0096 -0.3610
    3MOL   C460 1584   0.910   1.183   7.584 -0.0844  0.0275 -0.2135
    3MOL   C461 1585   1.025   1.289   7.591 -0.5307  0.5468 -0.0040
    3MOL   H462 1586   1.250   1.436   7.526  1.0666  0.4283 -0.6676
    3MOL   H463 1587   1.388   1.479   0.000 -1.7943  0.4785  0.9015
    3MOL   H464 1588   1.328   1.269   0.139 -0.4659  1.2610  1.3658
    3MOL   H465 1589   1.205   1.496   0.124 -0.4686  1.3643  0.9877
    3MOL   H466 1590   1.111   1.190   0.136 -3.8187  4.0031  0.6282
    3MOL   H467 1591   1.236   1.125   7.488 -0.9110 -2.3359 -0.6781
    3MOL   H468 1592   1.285   1.061   0.003 -1.6482 -0.8148 -0.7800
    3MOL   H469 1593   1.056   0.962   0.033 -2.2868 -1.5464 -0.7626
    3MOL   H470 1594   1.190   0.909   7.425 -0.3286 -1.2551 -1.3804
    3MOL   H471 1595   0.962   1.088   7.409 -1.9381  2.2487  0.5411
    3MOL   H472 1596   0.864   0.875   7.458 -0.0012 -0.7470  1.8515
    3MOL   H473 1597   0.815   0.921   7.617  0.4949  0.0457 -0.7278
    3MOL   H474 1598   0.882   1.156   0.056  0.4300 -1.3025 -0.4140
    3MOL   H475 1599   0.817   1.226   7.546 -0.9510 -1.5280  0.1134
    3MOL   H476 1600   0.987   1.372   0.021 -0.3507  0.8406 -0.2996
    3MOL   H477 1601   1.054   1.335   7.497  0.5182 -1.4528 -0.6922
    3MOL   O478 1602   0.718   1.025   7.467  0.3249  0.7907 -0.0351
    3MOL   C479 1603   0.607   0.931   7.451  0.3894  0.3229  0.2359
    3MOL   C480 1604   0.513   0.937   7.571 -0.5318 -0.5315 -0.2247
    3MOL   O481 1605   0.573   0.864   0.049 -0.1560 -0.0538  0.3965
    3MOL   C482 1606   0.495   1.088   7.617 -0.1192  0.2370 -0.3957
    3MOL   C483 1607   0.393   1.093   0.111 -0.1364 -0.3102 -0.3088
    3MOL   C484 1608   0.364   1.242   0.160 -0.2496  0.1316  0.0829
    3MOL   O485 1609   0.286   1.230   0.276 -0.0244 -0.1849  0.1347
    3MOL   C486 1610   0.304   1.329   0.049 -0.0942  0.2170  0.0438
    3MOL   C487 1611   0.261   1.468   0.103  0.3096  0.6971 -0.2061
    3MOL   C488 1612   0.414   1.336   7.573  0.1066 -0.3660  0.2784
    3MOL   C489 1613   0.442   1.194   7.515  0.1510 -0.3263 -0.8252
    3MOL   H490 1614   0.640   0.832   7.422  0.4114  0.2080  0.6499
    3MOL   H491 1615   0.554   0.967   7.363 -0.7486  1.9002  1.5180
    3MOL   H492 1616   0.421   0.889   7.539  0.2246 -2.2083  0.0637
    3MOL   H493 1617   0.667   0.872   0.051 -0.2582  1.2159  3.8764
    3MOL   H494 1618   0.588   1.132   0.024  0.4728 -0.3445 -1.1890
    3MOL   H495 1619   0.302   1.044   0.075 -1.8215  1.8804  0.8481
    3MOL   H496 1620   0.439   1.037   0.192  1.0774  1.1408  0.0347
    3MOL   H497 1621   0.460   1.288   0.183 -0.1948  0.1310 -0.1423
    3MOL   H498 1622   0.331   1.166   0.328 -1.2125 -1.7912 -0.7761
    3MOL   H499 1623   0.207   1.292   0.015  1.6489 -2.2145 -2.5700
    3MOL   H500 1624   0.184   1.448   0.178 -0.2161  0.1742 -0.8855
    3MOL   H501 1625   0.340   1.526   0.150 -1.5784  2.0726  1.3947
    3MOL   H502 1626   0.499   1.390   7.614  1.1974  0.0885 -2.4403
    3MOL   H503 1627   0.385   1.403   7.492 -1.2004  0.2480  1.2444
    3MOL   H504 1628   0.506   1.201   7.427 -0.2570 -3.0585 -1.4104
    3MOL   H505 1629   0.343   1.163   7.483 -0.4927 -0.2804  1.0851
    3MOL   O506 1630   0.210   1.540   7.621 -0.3665 -0.4219  0.1427
    3MOL   C507 1631   0.156   1.662   0.033 -0.0701 -0.7209 -0.3808
    3MOL   C508 1632   0.044   1.724   7.568  0.3479  0.3215  0.3158
    3MOL   O509 1633   0.103   1.770   7.446 -0.2098 -0.3870 -0.9627
    3MOL   C510 1634   7.552   1.631   7.525 -0.2566 -0.7213 -0.1095
    3MOL   C511 1635   7.442   1.705   7.438  0.8667  0.1136  0.1264
    3MOL   C512 1636   7.323   1.609   7.405  0.5663 -1.0113 -0.7454
    3MOL   O513 1637   7.235   1.686   7.331  0.2084  0.2470  0.0802
    3MOL   C514 1638   7.257   1.545   7.530  0.3750 -0.0533  0.1495
    3MOL   C515 1639   7.143   1.441   7.482 -0.0441  0.1436 -0.2420
    3MOL   C516 1640   7.370   1.474   7.616  0.2523  0.3807  0.1056
    3MOL   C517 1641   7.491   1.570   0.020 -0.4131 -0.3691  0.6846
    3MOL   H518 1642   0.243   1.727   0.042 -0.8451  0.2640 -0.0415
    3MOL   H519 1643   0.115   1.655   0.133  2.8874  0.0079  0.9231
    3MOL   H520 1644   0.000   1.808   7.622 -1.1319 -1.4263  1.8970
    3MOL   H521 1645   0.150   1.697   7.411 -0.6412 -0.9710 -0.3350
    3MOL   H522 1646   7.590   1.549   7.464  1.4213  0.2671 -0.4030
    3MOL   H523 1647   7.415   1.801   7.482  0.7037 -0.0561  0.4028
    3MOL   H524 1648   7.491   1.737   7.347 -0.5598 -0.9634 -1.0496
    3MOL   H525 1649   7.351   1.527   7.339  0.8811 -0.4072 -1.3711
    3MOL   H526 1650   7.206   1.758   7.385 -0.7148  0.4041 -0.6085
    3MOL   H527 1651   7.205   1.626   7.582 -1.3419 -0.8017 -0.3418
    3MOL   H528 1652   7.073   1.502   7.424 -1.4970 -1.2492  0.0333
    3MOL   H529 1653   7.175   1.366   7.409  0.4652 -1.0720  1.2175
    3MOL   H530 1654   7.404   1.382   7.569 -0.8363 -0.8607  1.6916
    3MOL   H531 1655   7.318   1.457   0.081  0.7012 -2.0275 -0.0657
    3MOL   H532 1656   7.564   1.507   0.069 -1.4727 -0.7414  1.8178
    3MOL   H533 1657   7.455   1.650   0.086 -1.2480 -0.6587  0.5879
    3MOL   O534 1658   7.080   1.392   7.599  0.4891  0.4701 -0.3392
    3MOL   C535 1659   6.962   1.321   7.553 -0.6968 -0.3887 -0.3066
    3MOL   C536 1660   6.875   1.290   0.047  0.0616  0.5483 -0.4432
    3MOL   O537 1661   6.755   1.213   0.023  0.2191  0.0421  0.5986
    3MOL   C538 1662   6.955   1.219   0.170  0.4331  0.0481  0.1997
    3MOL   C539 1663   6.979   1.068   0.137 -0.3086 -0.1122  0.1682
    3MOL   C540 1664   7.058   1.009   0.249  0.1954 -0.2975 -0.6146
    3MOL   O541 1665   7.093   0.879   0.230  0.0534  0.7295  0.1252
    3MOL   C542 1666   6.976   1.036   0.381  0.3745 -0.3039  0.7869
    3MOL   C543 1667   7.048   0.964   0.501  0.5769  0.2788  0.8080
    3MOL   C544 1668   6.939   1.182   0.414  0.8126  0.3845  0.4265
    3MOL   C545 1669   6.863   1.231   0.293  0.7821 -0.4762 -0.4542
    3MOL   H546 1670   6.994   1.230   7.503 -2.4416 -2.0179  1.4589
    3MOL   H547 1671   6.908   1.375   7.475 -2.2540 -0.8359  0.4410
    3MOL   H548 1672   6.832   1.385   0.080  0.0973  0.4630 -0.1572
    3MOL   H549 1673   6.760   1.131   0.070  1.9899 -0.3119 -0.1960
    3MOL   H550 1674   7.044   1.281   0.184  0.7527 -0.3516 -0.0588
    3MOL   H551 1675   6.885   1.019   0.113 -0.0505  0.2402 -1.6416
    3MOL   H552 1676   7.028   1.059   0.040  0.8408 -1.6777  0.8662
    3MOL   H553 1677   7.153   1.062   0.253  0.0823 -0.1811  0.6348
    3MOL   H554 1678   7.015   0.829   0.247  1.0562 -0.9669 -0.1920
    3MOL   H555 1679   6.884   0.977   0.381  0.8932 -1.1300  0.1350
    3MOL   H556 1680   6.986   0.961   0.591 -0.4346 -1.7384  0.0774
    3MOL   H557 1681   7.056   0.858   0.476 -0.3131 -0.0433  1.8410
    3MOL   H558 1682   7.023   1.248   0.440  1.0604  0.0513  0.4775
    3MOL   H559 1683   6.869   1.187   0.497  1.2493  0.9860  0.7679
    3MOL   H560 1684   6.833   1.335   0.306 -1.7175 -1.0807 -1.1139
    3MOL   H561 1685   6.770   1.174   0.283 -0.0715  0.7410  0.4385
    3MOL   H562 1686   7.147   1.007   0.521 -0.2917  2.6102  0.2724
    4MOL     O1 1687   3.998   4.051   0.203 -0.0468 -0.0502 -0.4064
    4MOL     C2 1688   4.126   4.050   0.150 -0.3315  0.9276 -0.0075
    4MOL     C3 1689   4.200   4.146   0.243 -0.2188  0.4214  0.0591
    4MOL     O4 1690   4.199   4.089   0.375 -0.0015  0.5627 -0.1960
    4MOL     C5 1691   4.351   4.187   0.206 -0.5320 -0.3824 -0.5035
    4MOL     C6 1692   4.394   4.316   0.285 -0.4577  0.5310  0.4426
    4MOL     C7 1693   4.543   4.338   0.262 -0.1385  0.3539  0.0354
    4MOL     O8 1694   4.588   4.441   0.347 -0.0216  0.9110 -0.4617
    4MOL     C9 1695   4.574   4.365   0.108  0.0754 -0.7799 -0.0376
    4MOL    C10 1696   4.724   4.382   0.079  0.7172  0.0189 -0.3277
    4MOL    C11 1697   4.505   4.269   0.018  0.0249 -0.8212  0.0200
    4MOL    C12 1698   4.363   4.231   0.058 -0.0615 -0.0240 -0.0942
    4MOL    H13 1699   4.110   4.094   0.051  0.4406  0.4398 -0.3519
    4MOL    H14 1700   4.160   3.948   0.137  0.0627  1.0846 -0.2386
    4MOL    H15 1701   4.137   4.234   0.257  0.8535  1.4483 -1.3882
    4MOL    H16 1702   4.112   4.073   0.408  0.4326 -1.3268  0.0640
    4MOL    H17 1703   4.419   4.104   0.225 -1.0427 -0.2953  1.9051
    4MOL    H18 1704   4.333   4.398   0.249  0.7440  1.3539  0.2295
    4MOL    H19 1705   4.361   4.302   0.388 -0.4406 -0.6908  0.2806
    4MOL    H20 1706   4.595   4.247   0.293  0.1935  1.0692  1.6588
    4MOL    H21 1707   4.683   4.438   0.342  0.0079 -0.3974  0.5036
    4MOL    H22 1708   4.533   4.466   0.096 -1.9752 -1.6130 -0.2726
    4MOL    H23 1709   4.753   4.461   0.148 -1.0116  1.3267 -1.0500
    4MOL    H24 1710   4.778   4.289   0.095 -0.5712 -1.2059 -2.9134
    4MOL    H25 1711   4.565   4.178   0.013  0.7552 -0.4808  1.9330
    4MOL    H26 1712   4.514   4.293   7.542  1.3761 -2.3503 -0.2406
    4MOL    H27 1713   4.340   4.146   7.623 -0.1152 -1.3183  1.5975
    4MOL    H28 1714   4.283   4.305   0.056 -0.0387  0.0099  0.2297
    4MOL    H29 1715   3.952   4.126   0.167  0.3585  0.1503 -0.5186
    4MOL    O30 1716   4.744   4.428   7.574  0.6515 -0.2919 -0.6187
    4MOL    C31 1717   4.881   4.446   7.535  1.0835 -0.0521  0.2960
    4MOL    C32 1718   4.928   4.595   7.542 -0.3357 -0.9003 -0.2398
    4MOL    O33 1719   4.976   4.611   0.049  0.5809 -0.7177 -0.3284
    4MOL    C34 1720   5.039   4.625   7.436 -0.2421  0.2662 -0.0963
    4MOL    C35 1721   5.146   4.516   7.436 -0.6122  0.1157 -0.3984
    4MOL    C36 1722   5.245   4.547   7.327  0.2338 -0.1508  0.4419
    4MOL    O37 1723   5.342   4.446   7.337  0.2222  0.2789  0.1944
    4MOL    C38 1724   5.303   4.689   7.333  0.1948 -0.0679 -0.2882
    4MOL    C39 1725   5.392   4.705   7.210 -0.2898 -0.0581  0.4670
    4MOL    C40 1726   5.193   4.801   7.341 -0.6036  0.5961  0.4957
    4MOL    C41 1727   5.100   4.763   7.451 -0.4374  0.4338  0.1434
    4MOL    H42 1728   4.864   4.406   7.435 -1.6311 -0.4557  0.8654
    4MOL    H43 1729   4.953   4.388   7.593  2.2663  0.9217 -0.1710
    4MOL    H44 1730   4.844   4.663   7.528 -1.9609 -2.7015  0.4205
    4MOL    H45 1731   4.988   4.703   0.067  1.1256 -0.4686 -1.8753
    4MOL    H46 1732   4.978   4.618   7.347  1.0020  0.3845 -0.9766
    4MOL    H47 1733   5.195   4.511   7.533  0.7712  0.1801 -1.0843
    4MOL    H48 1734   5.096   4.421   7.418 -1.2412  0.3547  0.0897
    4MOL    H49 1735   5.199   4.532   7.229 -1.3376 -1.1124  1.2959
    4MOL    H50 1736   5.414   4.464   7.395  1.5346  0.7084 -1.5309
    4MOL    H51 1737   5.367   4.686   7.421 -0.9029  0.7870  0.5308
    4MOL    H52 1738   5.433   4.806   7.213  0.1668 -0.2082 -0.4981
    4MOL    H53 1739   5.476   4.638   7.229  0.1803  1.1475  2.8992
    4MOL    H54 1740   5.139   4.813   7.247 -0.2588 -1.4318  0.0081
    4MOL    H55 1741   5.238   4.897   7.365  0.5758  0.3565 -0.6515
    4MOL    H56 1742   5.022   4.838   7.457 -0.7644  0.1035  0.0262
    4MOL    H57 1743   5.149   4.756   7.548  2.4894 -1.0504 -1.3513
    4MOL    O58 1744   5.315   4.692   7.092  0.8237  0.0536  0.2636
    4MOL    C59 1745   5.384   4.694   6.965  0.4141  0.1578  0.2429
    4MOL    C60 1746   5.291   4.720   6.842 -0.5903 -0.1429 -0.4099
    4MOL    O61 1747   5.219   4.604   6.821 -0.4754 -0.3483 -0.2976
    4MOL    C62 1748   5.185   4.827   6.872 -0.1517  0.1675 -0.1087
    4MOL    C63 1749   5.095   4.846   6.748  0.1038 -0.3945 -0.6765
    4MOL    C64 1750   4.978   4.947   6.773 -0.3872 -0.0826 -0.2521
    4MOL    O65 1751   4.904   4.972   6.651 -0.8132 -0.4594 -0.2327
    4MOL    C66 1752   5.035   5.083   6.822 -0.0768 -0.1482  0.1393
    4MOL    C67 1753   4.921   5.187   6.853 -1.0546 -0.3587 -0.0100
    4MOL    C68 1754   5.140   5.066   6.931 -0.2628 -0.4290  0.1072
    4MOL    C69 1755   5.249   4.961   6.907  0.0676  0.3410 -0.3826
    4MOL    H70 1756   5.429   4.597   6.945  0.3738 -0.0470  1.1480
    4MOL    H71 1757   5.467   4.765   6.971  0.2661  0.3227  0.3334
    4MOL    H72 1758   5.346   4.749   6.753  0.9214  2.4595  1.3254
    4MOL    H73 1759   5.216   4.563   6.907  1.0604 -0.0742 -0.0867
    4MOL    H74 1760   5.121   4.786   6.950 -1.4035  0.2204 -1.0855
    4MOL    H75 1761   5.151   4.893   6.667 -0.0625  2.4633  0.8047
    4MOL    H76 1762   5.041   4.760   6.708 -1.3307  0.7034 -1.1686
    4MOL    H77 1763   4.908   4.912   6.849  0.7164 -0.7157  0.4933
    4MOL    H78 1764   4.832   5.029   6.675  1.5556  2.0106  1.2924
    4MOL    H79 1765   5.090   5.128   6.740  0.0467 -0.6926 -0.0817
    4MOL    H80 1766   4.954   5.287   6.881 -0.7811 -0.4661  0.0559
    4MOL    H81 1767   4.854   5.204   6.768 -0.1756 -0.7785 -0.8042
    4MOL    H82 1768   5.103   5.046   7.032  2.5312 -1.3354  1.0057
    4MOL    H83 1769   5.193   5.159   6.950 -0.2407 -0.9404  2.7323
    4MOL    H84 1770   5.306   4.962   7.000  0.0285  1.0068 -0.3613
    4MOL    H85 1771   5.322   4.994   6.833  0.2392  0.6539 -0.0785
    4MOL    O86 1772   4.829   5.134   6.952 -0.6000 -0.1130  0.1841
    4MOL    C87 1773   4.836   5.205   7.080 -0.2875 -0.7702 -0.3413
    4MOL    C88 1774   4.740   5.136   7.174 -0.3955  0.2076  0.4947
    4MOL    O89 1775   4.806   5.021   7.209 -0.1629 -0.0737  0.4597
    4MOL    C90 1776   4.711   5.210   7.305 -0.8854  0.2782  0.3657
    4MOL    C91 1777   4.603   5.131   7.381  0.1348 -0.1673  0.1728
    4MOL    C92 1778   4.557   5.200   7.506  0.5658  0.5748 -0.2321
    4MOL    O93 1779   4.464   5.114   7.570  0.1017 -0.2831  0.0939
    4MOL    C94 1780   4.512   5.345   7.489 -0.7429  0.5706 -0.1095
    4MOL    C95 1781   4.497   5.412   7.623  0.2538 -0.1555  0.2696
    4MOL    C96 1782   4.611   5.425   7.401 -0.3980  0.6901  0.3665
    4MOL    C97 1783   4.658   5.350   7.271  0.1385  0.1412 -0.2127
    4MOL    H98 1784   4.809   5.309   7.066  1.1705  0.1763  3.2371
    4MOL    H99 1785   4.935   5.210   7.126 -0.5761 -2.7915  0.5736
    4MOL   H100 1786   4.649   5.121   7.116 -2.2611  2.9643  2.5756
    4MOL   H101 1787   4.789   4.960   7.139  2.0527  0.2178 -0.3827
    4MOL   H102 1788   4.805   5.221   7.359 -0.8240  0.5746  0.1982
    4MOL   H103 1789   4.519   5.113   7.314 -0.3805  0.8840  0.5127
    4MOL   H104 1790   4.641   5.034   7.414  0.3948 -0.1100  0.0513
    4MOL   H105 1791   4.643   5.200   7.573 -0.8487 -2.9718  1.6956
    4MOL   H106 1792   4.386   5.110   7.516 -1.1950  3.3525  1.5472
    4MOL   H107 1793   4.413   5.346   7.442 -0.3818 -1.5582 -0.9492
    4MOL   H108 1794   4.453   5.355   0.075  0.4230  1.2304  1.3442
    4MOL   H109 1795   4.599   5.439   0.017 -0.1602  0.6502  1.1774
    4MOL   H110 1796   4.707   5.446   7.448  0.9579 -0.0971 -2.0102
    4MOL   H111 1797   4.563   5.519   7.376 -1.7802  0.4946  2.1634
    4MOL   H112 1798   4.733   5.417   7.230 -0.7817 -0.0952 -2.4193
    4MOL   H113 1799   4.587   5.349   7.188  0.8925 -3.5006 -0.8924
    4MOL   O114 1800   4.405   5.517   7.605 -0.3883  0.2348 -0.0730
    4MOL   C115 1801   4.427   5.626   0.072  0.1102 -0.5267 -0.4761
    4MOL   C116 1802   4.313   5.722   0.036 -0.3806  0.2013  1.2579
    4MOL   O117 1803   4.199   5.660   0.087  0.4566  0.6248 -0.0712
    4MOL   C118 1804   4.330   5.862   0.102 -0.0003 -0.2919  0.1840
    4MOL   C119 1805   4.231   5.961   0.040  0.4379  0.1890  0.0241
    4MOL   C120 1806   4.240   6.100   0.096 -0.6892  0.1298  0.0459
    4MOL   O121 1807   4.145   6.168   0.027  0.0993 -0.7125  0.4352
    4MOL   C122 1808   4.382   6.162   0.076  0.3175 -0.0949  0.0322
    4MOL   C123 1809   4.398   6.308   0.132 -0.7620  0.6959  0.5756
    4MOL   C124 1810   4.475   6.070   0.153  0.1744  0.1320  0.4535
    4MOL   C125 1811   4.475   5.925   0.103 -0.1536  0.1153  0.2561
    4MOL   H126 1812   4.527   5.658   0.046  0.2409 -0.4946  0.0601
    4MOL   H127 1813   4.422   5.581   0.171  0.5159 -1.3264 -0.8212
    4MOL   H128 1814   4.307   5.720   7.557 -0.0848  0.2531  1.2388
    4MOL   H129 1815   4.202   5.567   0.074 -1.8218  0.6496 -0.9489
    4MOL   H130 1816   4.307   5.852   0.208 -0.0374 -1.8958  0.0312
    4MOL   H131 1817   4.253   5.967   7.562  1.2018 -2.4949 -0.0149
    4MOL   H132 1818   4.131   5.920   0.054  0.5059 -0.8659 -2.2335
    4MOL   H133 1819   4.206   6.114   0.199 -1.7972  4.0267 -0.7474
    4MOL   H134 1820   4.076   6.206   0.080  0.2576  1.4746 -0.8698
    4MOL   H135 1821   4.419   6.161   7.602 -1.0604  2.4487 -0.5314
    4MOL   H136 1822   4.330   6.374   0.078 -0.1898  0.7489 -0.0747
    4MOL   H137 1823   4.358   6.333   0.231 -0.0077  2.4531  0.4627
    4MOL   H138 1824   4.438   6.064   0.255 -2.1230  0.0062 -0.3752
    4MOL   H139 1825   4.572   6.117   0.134  0.1944 -0.6114 -1.3259
    4MOL   H140 1826   4.552   5.860   0.144 -0.1842 -0.2424 -0.2522
    4MOL   H141 1827   4.516   5.938   0.003 -2.2028  1.4056 -0.4351
    4MOL   O142 1828   4.533   6.354   0.099  0.0907  0.1049 -0.2064
    4MOL   C143 1829   4.561   6.480   0.167  0.1532 -0.0264  0.0557
    4MOL   C144 1830   4.707   6.512   0.140  0.2312  0.7162  0.0219
    4MOL   O145 1831   4.722   6.650   0.175  0.0659 -0.0352 -0.3159
    4MOL   C146 1832   4.812   6.422   0.217  0.0319  0.8152  0.2024
    4MOL   C147 1833   4.792   6.434   0.376  0.4382  0.0267  0.2542
    4MOL   C148 1834   4.898   6.340   0.448 -0.0179  0.0104 -0.7552
    4MOL   O149 1835   4.861   6.353   0.585  0.2617  0.1199 -0.2448
    4MOL   C150 1836   5.051   6.378   0.412  0.0524 -0.3182 -0.3915
    4MOL   C151 1837   5.161   6.289   0.473 -0.2191  0.6777  0.3394
    4MOL   C152 1838   5.065   6.377   0.259  0.3474 -0.2310 -0.0699
    4MOL   C153 1839   4.959   6.457   0.186 -0.3262 -0.4644  0.3192
    4MOL   H154 1840   4.538   6.463   0.272 -1.6429 -2.4645 -0.6955
    4MOL   H155 1841   4.503   6.562   0.125 -1.4879 -0.7491  0.8852
    4MOL   H156 1842   4.729   6.513   0.033 -2.3035  1.9138 -0.5279
    4MOL   H157 1843   4.811   6.681   0.170 -0.0967  0.7431  1.1356
    4MOL   H158 1844   4.788   6.320   0.189 -1.3133  1.2354 -0.2449
    4MOL   H159 1845   4.803   6.538   0.405 -0.3683  0.1452  0.1640
    4MOL   H160 1846   4.695   6.402   0.414  1.0474 -2.2535 -0.0363
    4MOL   H161 1847   4.885   6.236   0.417  0.9649 -0.7051  1.1353
    4MOL   H162 1848   4.827   6.271   0.620 -0.5693  0.5780  0.0380
    4MOL   H163 1849   5.061   6.481   0.445 -0.4753  0.1788 -1.7447
    4MOL   H164 1850   5.264   6.320   0.460 -0.3796  1.0919  0.0561
    4MOL   H165 1851   5.135   6.290   0.579 -3.0781  1.7976 -0.3163
    4MOL   H166 1852   5.050   6.273   0.229 -0.7604 -0.2834  0.6698
    4MOL   H167 1853   5.165   6.400   0.222  0.6221 -2.2398 -0.6312
    4MOL   H168 1854   4.963   6.436   0.079 -4.8466 -0.9310  0.1549
    4MOL   H169 1855   4.981   6.561   0.207  1.7723 -0.7106 -0.5430
    4MOL   O170 1856   5.138   6.156   0.417  0.1259  0.2253  0.0730
    4MOL   C171 1857   5.204   6.048   0.475  0.8439  0.2990  0.2688
    4MOL   C172 1858   5.110   6.002   0.582 -0.0855  0.5933 -0.0207
    4MOL   O173 1859   5.000   5.934   0.520  0.1097 -0.0240  0.3655
    4MOL   C174 1860   5.172   5.907   0.679 -0.1578  0.8298 -0.5457
    4MOL   C175 1861   5.194   5.763   0.626  0.2284 -0.0342  0.7688
    4MOL   C176 1862   5.258   5.668   0.727  0.5372 -0.1180 -0.7500
    4MOL   O177 1863   5.259   5.535   0.674 -0.1105  0.2121 -0.0326
    4MOL   C178 1864   5.174   5.667   0.854 -0.2385 -0.5207  0.7385
    4MOL   C179 1865   5.216   5.572   0.969  0.2450  0.4614 -0.1510
    4MOL   C180 1866   5.171   5.813   0.906 -0.1735 -0.5485 -0.5078
    4MOL   C181 1867   5.097   5.903   0.813 -0.2324  0.7188  0.0109
    4MOL   H182 1868   5.300   6.086   0.509  0.8967 -1.1330  1.8107
    4MOL   H183 1869   5.211   5.964   0.406 -0.6422 -0.2436  0.7428
    4MOL   H184 1870   5.065   6.084   0.638 -0.7110  1.0640 -1.2015
    4MOL   H185 1871   4.981   5.982   0.441  0.2989  0.3281  0.5336
    4MOL   H186 1872   5.273   5.945   0.699 -0.9165  1.1998  2.9958
    4MOL   H187 1873   5.094   5.721   0.612  1.2316 -2.5502  0.8542
    4MOL   H188 1874   5.237   5.764   0.526 -1.4245  0.9148  0.0416
    4MOL   H189 1875   5.360   5.697   0.754  0.4950 -0.9084  0.2684
    4MOL   H190 1876   5.202   5.535   0.599 -2.5887  1.2261  1.7424
    4MOL   H191 1877   5.077   5.641   0.814  0.1491  0.1178 -0.6526
    4MOL   H192 1878   5.244   5.474   0.930  0.7570 -0.7721  3.1572
    4MOL   H193 1879   5.307   5.614   1.013  0.0745  1.7852 -1.0474
    4MOL   H194 1880   5.275   5.844   0.913 -0.9892  2.0583  0.7338
    4MOL   H195 1881   5.133   5.818   1.008  2.5644 -1.8295  0.6528
    4MOL   H196 1882   5.097   6.007   0.847  2.2309 -0.0393  2.5038
    4MOL   H197 1883   4.992   5.876   0.811 -0.2375  0.7320  0.1273
    4MOL   O198 1884   5.123   5.565   1.071  0.2909  0.5877 -0.3465
    4MOL   C199 1885   5.003   5.501   1.038  0.6083  0.3750  0.4192
    4MOL   C200 1886   4.905   5.491   1.158  0.1265 -0.0072  0.4340
    4MOL   O201 1887   4.958   5.398   1.246  0.4646 -0.7775 -0.1104
    4MOL   C202 1888   4.887   5.630   1.237 -0.1015  0.1694 -0.5745
    4MOL   C203 1889   4.780   5.612   1.346  0.2991  0.0621  0.2056
    4MOL   C204 1890   4.772   5.738   1.429  0.0526 -0.5540 -0.2651
    4MOL   O205 1891   4.671   5.724   1.527  0.3489  0.1264 -0.1549
    4MOL   C206 1892   4.735   5.864   1.333 -0.0452 -0.3229 -0.0902
    4MOL   C207 1893   4.703   5.995   1.407 -0.0819 -0.2505  0.1599
    4MOL   C208 1894   4.841   5.878   1.220  0.1414 -0.0371 -1.0557
    4MOL   C209 1895   4.854   5.743   1.145 -0.6474 -0.6714  0.0454
    4MOL   H210 1896   5.023   5.399   1.005  0.0594  0.1993  0.6038
    4MOL   H211 1897   4.956   5.555   0.956  2.5586  1.1721 -0.1788
    4MOL   H212 1898   4.810   5.456   1.118  1.2993 -1.6025 -1.0412
    4MOL   H213 1899   5.047   5.427   1.258 -0.0468 -0.1184  2.2853
    4MOL   H214 1900   4.981   5.657   1.286 -0.0629 -0.6364 -0.2028
    4MOL   H215 1901   4.685   5.584   1.301 -0.1245  1.7224  0.0449
    4MOL   H216 1902   4.798   5.536   1.422 -0.6299 -0.1517  0.2060
    4MOL   H217 1903   4.865   5.770   1.476  0.4213 -1.1522 -0.5788
    4MOL   H218 1904   4.627   5.804   1.551 -0.4263 -0.2271 -0.3919
    4MOL   H219 1905   4.638   5.854   1.283 -1.0187  2.4322  1.1456
    4MOL   H220 1906   4.657   6.074   1.349  0.0917 -0.2562  0.0136
    4MOL   H221 1907   4.623   5.994   1.481 -1.7219  0.2560 -1.5674
    4MOL   H222 1908   4.936   5.901   1.268 -1.5976 -0.3852  2.7321
    4MOL   H223 1909   4.807   5.957   1.153  0.0830  0.2130 -0.7353
    4MOL   H224 1910   4.933   5.762   1.072  0.3724 -1.4457  0.9330
    4MOL   H225 1911   4.768   5.721   1.081 -0.7302 -1.0673  0.2958
    4MOL   O226 1912   4.817   6.031   1.483 -0.2310  0.4749 -0.0950
    4MOL   C227 1913   4.809   6.148   1.570 -0.0940 -0.8433  0.3721
    4MOL   C228 1914   4.955   6.160   1.637  0.0065 -0.2158 -0.5360
    4MOL   O229 1915   5.046   6.213   1.544 -0.4876 -0.2953 -0.3579
    4MOL   C230 1916   4.960   6.236   1.771  1.1942  0.0246  0.0686
    4MOL   C231 1917   4.889   6.371   1.766  0.0087  0.1490 -0.1951
    4MOL   C232 1918   4.892   6.434   1.906 -0.4048  0.2340 -0.6205
    4MOL   O233 1919   4.865   6.577   1.880 -0.6024  0.4876 -0.2713
    4MOL   C234 1920   5.022   6.429   1.987 -0.7185 -0.9694 -0.1491
    4MOL   C235 1921   5.009   6.489   2.134 -0.2326  0.2108  0.4467
    4MOL   C236 1922   5.094   6.296   1.973 -0.5711  0.3372 -0.4517
    4MOL   C237 1923   5.101   6.244   1.828  0.0540 -0.6088 -0.6263
    4MOL   H238 1924   4.750   6.125   1.658 -0.1225 -0.2086  0.5219
    4MOL   H239 1925   4.768   6.236   1.521 -0.2846 -1.4773 -0.6172
    4MOL   H240 1926   4.985   6.057   1.651  0.6873 -0.0275 -0.6089
    4MOL   H241 1927   5.061   6.146   1.480  1.0523 -0.9563  0.6539
    4MOL   H242 1928   4.904   6.174   1.841  1.8084  0.0416  0.5870
    4MOL   H243 1929   4.938   6.442   1.701  0.8879  0.0369  0.3336
    4MOL   H244 1930   4.793   6.349   1.720  0.3000 -0.0543 -0.7026
    4MOL   H245 1931   4.810   6.408   1.974  3.2775 -0.9508  3.6024
    4MOL   H246 1932   4.938   6.611   1.831 -0.6622 -1.3404 -1.6681
    4MOL   H247 1933   5.098   6.492   1.941 -1.7006 -0.7480 -1.4712
    4MOL   H248 1934   4.960   6.586   2.136 -2.8270 -1.0076 -0.4320
    4MOL   H249 1935   4.950   6.423   2.198 -1.0808 -0.7409 -1.2483
    4MOL   H250 1936   5.040   6.224   2.034 -0.5691 -0.2365 -1.1148
    4MOL   H251 1937   5.190   6.291   2.024 -1.2111  0.0143  0.7463
    4MOL   H252 1938   5.149   6.147   1.840  1.2410  0.0220 -0.2090
    4MOL   H253 1939   5.163   6.305   1.763  1.5164 -2.4577 -0.9970
    4MOL   O254 1940   5.140   6.485   2.191  0.3142 -0.1526  0.3516
    4MOL   C255 1941   5.142   6.529   2.329  0.0763 -0.2689 -0.5104
    4MOL   C256 1942   5.286   6.508   2.384 -0.3331 -0.0604 -0.1743
    4MOL   O257 1943   5.381   6.607   2.341 -0.1553  0.0370 -0.8327
    4MOL   C258 1944   5.290   6.498   2.540  0.1578  0.0492  0.1730
    4MOL   C259 1945   5.252   6.626   2.609 -0.5644 -0.4638  0.1019
    4MOL   C260 1946   5.243   6.607   2.761 -0.0495  1.1284  0.3027
    4MOL   O261 1947   5.215   6.723   2.828  0.3266 -0.1705 -0.8724
    4MOL   C262 1948   5.376   6.548   2.818  0.9330 -0.1038  0.4396
    4MOL   C263 1949   5.368   6.525   2.971  0.4782  0.0112  0.3782
    4MOL   C264 1950   5.406   6.413   2.741 -0.0959  0.6630 -0.0305
    4MOL   C265 1951   5.423   6.442   2.591 -0.4437  0.5068 -0.0085
    4MOL   H266 1952   5.071   6.466   2.383 -1.4079  0.4933 -1.5389
    4MOL   H267 1953   5.098   6.628   2.344  1.0182 -0.1259  1.4111
    4MOL   H268 1954   5.330   6.416   2.346  0.3990 -0.3295  1.2872
    4MOL   H269 1955   5.410   6.572   2.258  2.1906 -2.6854  1.0272
    4MOL   H270 1956   5.213   6.424   2.562  1.8561 -1.7830  0.0339
    4MOL   H271 1957   5.318   6.708   2.579 -1.5038  0.9894  1.8643
    4MOL   H272 1958   5.155   6.660   2.573  0.1242  1.8282  0.3254
    4MOL   H273 1959   5.153   6.550   2.784  1.4249 -1.5502 -0.4176
    4MOL   H274 1960   5.194   6.788   2.763  0.9035  0.5523 -0.3546
    4MOL   H275 1961   5.461   6.615   2.804 -0.1940  1.5736  1.4603
    4MOL   H276 1962   5.342   6.618   3.021 -1.4544 -1.0133  1.3469
    4MOL   H277 1963   5.283   6.456   2.976  0.2161  0.3479  0.5894
    4MOL   H278 1964   5.320   6.349   2.754  0.3386 -0.3900 -2.1134
    4MOL   H279 1965   5.487   6.358   2.788 -0.1093  1.8949  1.5024
    4MOL   H280 1966   5.442   6.349   2.537  0.0940  0.9401 -0.5822
    4MOL   H281 1967   5.504   6.514   2.580 -0.3651  0.5294  0.7390
    4MOL   O282 1968   5.489   6.467   3.016 -0.5192 -0.7945 -0.1479
    4MOL   C283 1969   5.602   6.560   3.033  0.6617 -0.3195  0.4293
    4MOL   C284 1970   5.715   6.507   2.944  0.3167 -0.1908 -0.1980
    4MOL   O285 1971   5.815   6.614   2.953  0.6718  0.1556  0.2410
    4MOL   C286 1972   5.764   6.366   2.977  0.8353  0.1958 -0.3174
    4MOL   C287 1973   5.805   6.338   3.122  0.6787  0.0398  0.2447
    4MOL   C288 1974   5.852   6.192   3.151 -0.6165  0.1677 -0.3537
    4MOL   O289 1975   5.904   6.203   3.279  0.5320  0.0102 -0.4642
    4MOL   C290 1976   5.961   6.152   3.044 -0.0203 -0.0154  0.4074
    4MOL   C291 1977   6.012   6.001   3.054  0.3789 -0.4510  0.1329
    4MOL   C292 1978   5.915   6.178   2.898 -0.6437  0.2541  0.3243
    4MOL   C293 1979   5.879   6.328   2.882  0.2979  0.6142  0.4505
    4MOL   H294 1980   5.624   6.578   3.138 -2.1298  0.9251  0.8726
    4MOL   H295 1981   5.566   6.657   2.999 -2.1181 -1.7981 -1.0633
    4MOL   H296 1982   5.675   6.523   2.844 -4.8227 -0.8703  1.6036
    4MOL   H297 1983   5.854   6.618   3.039  2.6242 -0.2025 -0.6005
    4MOL   H298 1984   5.678   6.308   2.944 -0.0020 -0.4216  2.8191
    4MOL   H299 1985   5.880   6.415   3.143 -0.4633  0.9383  1.0607
    4MOL   H300 1986   5.719   6.369   3.182 -0.1943  2.1530 -2.0378
    4MOL   H301 1987   5.772   6.117   3.151 -0.0819 -0.4283 -1.7408
    4MOL   H302 1988   5.925   6.117   3.313 -1.7969 -0.4177  0.0052
    4MOL   H303 1989   6.051   6.209   3.069 -0.3333 -0.2033  2.0491
    4MOL   H304 1990   6.044   5.982   3.156  0.1961  0.8963  0.4458
    4MOL   H305 1991   5.929   5.935   3.025  1.0291 -0.4457 -1.7996
    4MOL   H306 1992   5.823   6.121   2.880  0.7767 -2.3638  1.0499
    4MOL   H307 1993   5.995   6.148   2.831 -0.1428  2.4255 -0.0874
    4MOL   H308 1994   5.835   6.326   2.782  0.3952 -0.6335  0.4230
    4MOL   H309 1995   5.969   6.390   2.878 -0.2770  1.3879 -0.8330
    4MOL   O310 1996   6.117   5.991   2.960 -0.5746 -0.2474 -0.0150
    4MOL   C311 1997   6.193   5.873   2.946 -0.4144  0.2108 -0.1587
    4MOL   C312 1998   6.240   5.812   3.079 -0.4207  0.3545 -1.4680
    4MOL   O313 1999   6.292   5.681   3.053 -0.1193 -0.4890 -0.0191
    4MOL   C314 2000   6.352   5.893   3.160 -0.3652  0.2939  0.0305
    4MOL   C315 2001   6.370   5.853   3.307  0.3086  0.4921 -0.1074
    4MOL   C316 2002   6.496   5.908   3.373  0.3740  0.4915  0.1877
    4MOL   O317 2003   6.492   5.887   3.514  0.4081  0.2041  0.4679
    4MOL   C318 2004   6.496   6.056   3.354 -0.5436 -0.6716  0.4910
    4MOL   C319 2005   6.621   6.129   3.404  0.2947 -0.1344  0.4240
    4MOL   C320 2006   6.488   6.093   3.201 -0.5446 -0.1303  0.2133
    4MOL   C321 2007   6.352   6.041   3.150 -0.2668 -0.1631 -0.4394
    4MOL   H322 2008   6.281   5.896   2.886  0.8979 -1.7928  0.9547
    4MOL   H323 2009   6.126   5.803   2.895  0.4011 -0.1855 -0.6913
    4MOL   H324 2010   6.153   5.791   3.142  0.9336  2.1307  1.0825
    4MOL   H325 2011   6.222   5.647   2.999  1.1273 -1.3805 -1.1000
    4MOL   H326 2012   6.448   5.861   3.121 -0.5312  0.0575 -0.1856
    4MOL   H327 2013   6.280   5.895   3.352 -1.0903 -0.4386 -1.9644
    4MOL   H328 2014   6.363   5.745   3.321 -1.0727  0.3645 -1.6622
    4MOL   H329 2015   6.584   5.864   3.327  1.0022  1.7352  0.1608
    4MOL   H330 2016   6.489   5.796   3.540  0.3568 -0.1283 -0.6449
    4MOL   H331 2017   6.416   6.099   3.414  0.7448  1.0829  1.0081
    4MOL   H332 2018   6.617   6.098   3.509 -0.6908 -3.6959 -0.5799
    4MOL   H333 2019   6.715   6.095   3.362  0.1676  1.5265 -1.2710
    4MOL   H334 2020   6.569   6.057   3.137 -0.0306 -0.6147  1.1423
    4MOL   H335 2021   6.492   6.201   3.189  1.1665 -0.1231  0.7223
    4MOL   H336 2022   6.327   6.071   3.048 -1.6649  0.3743  0.0540
    4MOL   H337 2023   6.271   6.074   3.214 -1.0485 -2.0580 -0.4187
    4MOL   O338 2024   6.601   6.267   3.385  0.1550 -0.2743  0.0842
    4MOL   C339 2025   6.691   6.361   3.443 -0.3170  1.1392  0.6606
    4MOL   C340 2026   6.639   6.502   3.413 -0.3065 -0.4682 -0.0809
    4MOL   O341 2027   6.525   6.527   3.492  0.2265  0.2644 -0.2657
    4MOL   C342 2028   6.740   6.619   3.411  0.9004  0.4004  0.1408
    4MOL   C343 2029   6.810   6.640   3.547 -0.2384  1.0630 -0.4943
    4MOL   C344 2030   6.902   6.768   3.532 -0.5056  0.1325 -0.7008
    4MOL   O345 2031   6.992   6.756   3.645  0.5902  0.1894  0.1840
    4MOL   C346 2032   6.821   6.889   3.516 -0.2278 -0.6828  0.3047
    4MOL   C347 2033   6.906   7.021   3.514  0.5404 -0.4772 -0.4839
    4MOL   C348 2034   6.758   6.872   3.375 -0.7155  0.3025 -0.2515
    4MOL   C349 2035   6.672   6.750   3.372  0.5812 -0.1876 -0.3484
    4MOL   H350 2036   6.789   6.344   3.397  0.0227  0.9482  1.4347
    4MOL   H351 2037   6.694   6.361   3.552  0.6079 -0.3063  0.6588
    4MOL   H352 2038   6.603   6.492   3.310 -4.4047  1.0573  1.1091
    4MOL   H353 2039   6.463   6.456   3.485 -2.1654  2.0712  1.6709
    4MOL   H354 2040   6.824   6.589   3.347 -0.1908 -0.0105 -1.1135
    4MOL   H355 2041   6.726   6.647   3.615  0.0999  0.1938  0.0271
    4MOL   H356 2042   6.865   6.549   3.574 -1.8386  1.2080  3.6191
    4MOL   H357 2043   6.971   6.763   3.447 -0.4523  0.2012 -0.6618
    4MOL   H358 2044   6.936   6.741   3.720  0.7107 -1.5624 -0.0461
    4MOL   H359 2045   6.752   6.884   3.600 -1.2061  0.9763 -0.3715
    4MOL   H360 2046   6.958   7.041   3.607 -0.0061 -0.4989 -0.1704
    4MOL   H361 2047   6.983   7.000   3.440  0.0972 -1.5080 -0.6586
    4MOL   H362 2048   6.844   6.864   3.308  0.2659  0.1424  1.0178
    4MOL   H363 2049   6.693   6.957   3.354 -0.0956  0.6610 -0.7359
    4MOL   H364 2050   6.639   6.744   3.268 -1.0321  0.8710  0.0889
    4MOL   H365 2051   6.580   6.766   3.427  0.6708 -0.5180 -0.1019
    4MOL   O366 2052   6.824   7.135   3.477  0.0221  0.5544  0.0358
    4MOL   C367 2053   6.770   7.201   3.589 -0.3124  0.0393 -0.3283
    4MOL   C368 2054   6.649   7.287   3.548  0.4860 -0.1543 -0.0883
    4MOL   O369 2055   6.696   7.403   3.481  0.6180 -0.7318 -0.2267
    4MOL   C370 2056   6.540   7.224   3.467 -1.2799  0.6805 -0.5625
    4MOL   C371 2057   6.427   7.328   3.457 -0.1211  0.2310 -0.2853
    4MOL   C372 2058   6.303   7.255   3.392 -0.8605 -0.5011  0.1512
    4MOL   O373 2059   6.202   7.356   3.385 -0.3159 -0.0462  0.6470
    4MOL   C374 2060   6.257   7.130   3.473 -0.0505 -0.1347 -0.8934
    4MOL   C375 2061   6.126   7.060   3.431 -0.0202  0.5071  0.8415
    4MOL   C376 2062   6.371   7.025   3.480  0.2869  0.4479  0.3639
    4MOL   C377 2063   6.493   7.098   3.532  0.0159  0.6967 -1.0211
    4MOL   H378 2064   6.855   7.256   3.629 -0.4910 -1.0926  1.7159
    4MOL   H379 2065   6.731   7.129   3.661 -1.3598  3.0327  2.1983
    4MOL   H380 2066   6.604   7.331   3.637  1.8101  0.1370  0.4529
    4MOL   H381 2067   6.769   7.371   3.431 -0.0532  0.0052 -1.6951
    4MOL   H382 2068   6.575   7.198   3.368 -1.6381 -0.6670 -0.3480
    4MOL   H383 2069   6.381   7.367   3.548  1.2319  1.1634 -0.0034
    4MOL   H384 2070   6.444   7.416   3.396  1.3166  0.7307  0.8144
    4MOL   H385 2071   6.325   7.231   3.288 -0.9457 -2.5072  0.5607
    4MOL   H386 2072   6.141   7.333   3.317 -1.1202 -0.0467  1.3453
    4MOL   H387 2073   6.245   7.167   3.575  1.9911  3.0205 -1.7077
    4MOL   H388 2074   6.093   7.011   3.522 -0.1521  1.0051  1.0641
    4MOL   H389 2075   6.061   7.143   3.403  0.7388  0.9666  0.4070
    4MOL   H390 2076   6.392   6.979   3.383 -0.3341  1.9000 -0.4831
    4MOL   H391 2077   6.342   6.947   3.549  2.1432  0.9852  1.8192
    4MOL   H392 2078   6.571   7.023   3.541  0.4153  1.1019 -1.1209
    4MOL   H393 2079   6.458   7.121   3.633 -1.4087  0.1429 -1.3659
    4MOL   O394 2080   6.149   6.964   3.326 -0.0022 -0.0264  0.3861
    4MOL   C395 2081   6.037   6.894   3.292 -0.0102 -0.7438 -0.0851
    4MOL   C396 2082   6.057   6.789   3.181 -0.9823 -0.0010 -0.0805
    4MOL   O397 2083   5.939   6.714   3.157 -0.2410 -0.2711 -0.5617
    4MOL   C398 2084   6.114   6.849   3.047  0.4844  0.1843 -0.2352
    4MOL   C399 2085   6.003   6.932   2.974  0.5133 -0.1904 -0.3175
    4MOL   C400 2086   6.054   6.993   2.842 -0.3189 -0.4001 -0.3292
    4MOL   O401 2087   5.954   7.086   2.793  0.3043  0.2012 -0.0639
    4MOL   C402 2088   6.085   6.876   2.752  0.5096 -0.1369  0.1956
    4MOL   C403 2089   6.130   6.933   2.613  0.2650 -0.1132 -0.2354
    4MOL   C404 2090   6.202   6.797   2.810  0.1007  0.0279 -0.1858
    4MOL   C405 2091   6.171   6.742   2.950 -0.3043  0.7496 -0.5081
    4MOL   H406 2092   5.963   6.966   3.255 -0.9810 -1.8648 -0.3323
    4MOL   H407 2093   5.992   6.840   3.375  0.0348 -0.7014 -0.0325
    4MOL   H408 2094   6.135   6.723   3.219  0.5585  2.0057  0.2946
    4MOL   H409 2095   5.870   6.766   3.193 -0.9809 -1.0665 -0.8034
    4MOL   H410 2096   6.187   6.924   3.078 -0.7348  0.7170  1.4252
    4MOL   H411 2097   5.913   6.874   2.954  2.2917 -3.1346  0.0289
    4MOL   H412 2098   5.989   7.019   3.038  0.6009  0.1830 -0.7985
    4MOL   H413 2099   6.147   7.050   2.847 -0.7894  0.3541 -0.0760
    4MOL   H414 2100   5.878   7.038   2.766 -0.5697  1.0306  0.8585
    4MOL   H415 2101   6.004   6.803   2.740 -0.9631  0.9650  2.8872
    4MOL   H416 2102   6.049   6.987   2.564  0.7161 -0.6399 -1.5754
    4MOL   H417 2103   6.202   7.014   2.621  0.0535  0.0229  0.3633
    4MOL   H418 2104   6.292   6.859   2.805 -0.2375  0.7135  1.8217
    4MOL   H419 2105   6.220   6.710   2.745 -3.1841 -0.8538  0.0322
    4MOL   H420 2106   6.262   6.696   2.990  0.3666  1.4757 -1.1847
    4MOL   H421 2107   6.104   6.657   2.937  0.2709  0.2069  0.0375
    4MOL   O422 2108   6.163   6.823   2.530 -0.3895  0.3418  0.3212
    4MOL   C423 2109   6.202   6.851   2.400  0.3987 -1.0371  0.2413
    4MOL   C424 2110   6.353   6.882   2.400  0.1780 -0.2202  0.4896
    4MOL   O425 2111   6.381   7.008   2.454  0.0594 -0.1680 -0.0925
    4MOL   C426 2112   6.436   6.765   2.462  0.0325 -1.0792 -0.0700
    4MOL   C427 2113   6.579   6.815   2.507 -0.7826 -0.0755 -0.7724
    4MOL   C428 2114   6.667   6.705   2.563  0.0592 -0.5443 -0.2875
    4MOL   O429 2115   6.799   6.756   2.594 -0.5689  0.1379 -0.3219
    4MOL   C430 2116   6.675   6.585   2.469 -0.3574 -0.2988  0.3024
    4MOL   C431 2117   6.766   6.469   2.525 -0.0267 -0.1200 -0.0369
    4MOL   C432 2118   6.530   6.528   2.453  0.1581 -0.0976  0.8847
    4MOL   C433 2119   6.438   6.631   2.384  0.3935 -0.0844  0.3739
    4MOL   H434 2120   6.142   6.932   2.359  1.0255 -0.0438  1.2616
    4MOL   H435 2121   6.176   6.762   2.342 -1.5813  0.9972 -2.1298
    4MOL   H436 2122   6.388   6.897   2.298  2.2417 -0.4702  1.1579
    4MOL   H437 2123   6.416   6.994   2.541 -0.8545 -1.8264  0.0296
    4MOL   H438 2124   6.376   6.745   2.550 -0.0835  0.1065  0.1290
    4MOL   H439 2125   6.634   6.851   2.420  0.7891  0.6825  0.5008
    4MOL   H440 2126   6.578   6.907   2.567  1.0705  0.8461 -2.1303
    4MOL   H441 2127   6.623   6.682   2.660 -0.1577  0.8355 -0.0528
    4MOL   H442 2128   6.832   6.815   2.528 -0.0138  1.4996  1.1482
    4MOL   H443 2129   6.710   6.615   2.371 -0.5101  1.7394  0.8552
    4MOL   H444 2130   6.871   6.484   2.503  0.8028 -0.0992  3.6380
    4MOL   H445 2131   6.765   6.467   2.634  1.1526  0.5826 -0.0078
    4MOL   H446 2132   6.492   6.503   2.552 -1.4003 -3.1441 -0.4118
    4MOL   H447 2133   6.529   6.443   2.384  0.0717  1.1696 -0.7169
    4MOL   H448 2134   6.337   6.592   2.386 -0.6102  2.1583 -2.4762
    4MOL   H449 2135   6.446   6.642   2.276  0.6474 -1.1606  0.2736
    4MOL   O450 2136   6.729   6.347   2.449 -0.1855 -0.0356 -0.7038
    4MOL   C451 2137   6.804   6.234   2.487 -0.2610  0.1608  0.0501
    4MOL   C452 2138   6.743   6.100   2.433 -0.0332  0.2454 -0.5968
    4MOL   O453 2139   6.790   6.085   2.296 -0.3113 -0.2059  0.1423
    4MOL   C454 2140   6.770   5.967   2.509 -0.1391 -0.0086  1.2081
    4MOL   C455 2141   6.921   5.943   2.529 -0.3316  0.1237 -0.8298
    4MOL   C456 2142   6.943   5.811   2.599 -0.4757 -0.4465  0.2750
    4MOL   O457 2143   7.087   5.780   2.583  0.7268 -0.7551 -0.1332
    4MOL   C458 2144   6.861   5.700   2.524 -0.4368  0.4557  0.1402
    4MOL   C459 2145   6.887   5.565   2.594 -0.1107 -0.7332 -0.5278
    4MOL   C460 2146   6.711   5.724   2.518  0.1297 -0.3700 -0.3356
    4MOL   C461 2147   6.674   5.858   2.455 -0.3070  0.2819 -1.0441
    4MOL   H462 2148   6.800   6.227   2.596 -1.0599  0.7637  0.0608
    4MOL   H463 2149   6.906   6.260   2.460  0.5728 -3.4362 -0.5488
    4MOL   H464 2150   6.634   6.111   2.429 -0.1484 -1.4044 -2.7980
    4MOL   H465 2151   6.785   6.170   2.254 -1.4237 -0.8752 -1.0949
    4MOL   H466 2152   6.731   5.977   2.610 -1.1175  1.4432  0.7217
    4MOL   H467 2153   6.980   5.938   2.438  3.6037  0.1660  1.5961
    4MOL   H468 2154   6.964   6.026   2.585  1.7781  0.2100 -2.5130
    4MOL   H469 2155   6.926   5.819   2.706 -1.0635  0.1481  0.1401
    4MOL   H470 2156   7.120   5.745   2.664 -1.1441  0.6679  1.2940
    4MOL   H471 2157   6.894   5.696   2.420  1.4277 -0.9566  0.7663
    4MOL   H472 2158   6.988   5.552   2.633 -0.3207  1.9054  1.0491
    4MOL   H473 2159   6.826   5.561   2.685  0.4268  1.5660 -0.0315
    4MOL   H474 2160   6.675   5.735   2.621  1.5288 -0.7172  0.2025
    4MOL   H475 2161   6.657   5.638   2.477 -1.7098 -0.0341  1.2620
    4MOL   H476 2162   6.573   5.885   2.484 -0.0970 -0.5414  0.4948
    4MOL   H477 2163   6.689   5.847   2.348  0.4461  0.5581 -0.9726
    4MOL   O478 2164   6.850   5.460   2.504 -0.1033  0.1580 -0.6823
    4MOL   C479 2165   6.972   5.401   2.443 -0.4654  0.3280 -0.4602
    4MOL   C480 2166   6.925   5.296   2.335 -0.0509  0.4787  0.0702
    4MOL   O481 2167   7.010   5.310   2.225 -0.2028 -0.0476 -0.1442
    4MOL   C482 2168   6.933   5.155   2.387  0.4317 -0.0443  0.1203
    4MOL   C483 2169   6.905   5.056   2.270 -0.1407 -0.6911  0.0189
    4MOL   C484 2170   6.925   4.911   2.326 -0.1901 -0.2438 -0.9835
    4MOL   O485 2171   6.902   4.819   2.220 -0.4255  0.2433 -0.1019
    4MOL   C486 2172   6.828   4.880   2.438  0.0045  0.1476  0.1742
    4MOL   C487 2173   6.840   4.736   2.502  0.0394 -0.4611 -0.1587
    4MOL   C488 2174   6.830   4.986   2.552  0.0017  0.3496  0.4054
    4MOL   C489 2175   6.827   5.129   2.500 -0.2570 -0.8905  0.6269
    4MOL   H490 2176   7.025   5.349   2.523 -0.4750 -1.1339 -1.3883
    4MOL   H491 2177   7.030   5.483   2.400 -0.1338  0.0989 -0.4497
    4MOL   H492 2178   6.825   5.320   2.299  0.4256  2.4707  0.0346
    4MOL   H493 2179   6.972   5.374   2.166 -0.1508  1.9973  1.9448
    4MOL   H494 2180   7.036   5.132   2.414 -0.2456 -2.5650  0.6320
    4MOL   H495 2181   6.811   5.073   2.217  1.9235 -0.1268 -3.6474
    4MOL   H496 2182   6.975   5.073   2.188 -0.5153 -0.7112 -0.3094
    4MOL   H497 2183   7.022   4.886   2.370 -0.1052  0.0832 -0.9800
    4MOL   H498 2184   6.985   4.797   2.180 -0.2405 -0.6667  0.7550
    4MOL   H499 2185   6.725   4.874   2.402  0.4835  0.4028 -1.2668
    4MOL   H500 2186   6.758   4.730   2.574 -0.3078  0.5120 -0.4592
    4MOL   H501 2187   6.823   4.659   2.428  1.2804  0.9415 -1.9426
    4MOL   H502 2188   6.924   4.975   2.606 -0.3336  1.3542  1.2104
    4MOL   H503 2189   6.751   4.970   2.625 -0.0161 -1.6140 -0.0296
    4MOL   H504 2190   6.853   5.196   2.582 -0.4987 -1.0033  0.7959
    4MOL   H505 2191   6.731   5.158   2.456  1.4207  3.5237 -0.2996
    4MOL   O506 2192   6.971   4.720   2.560 -0.4597  0.6116  0.3554
    4MOL   C507 2193   6.970   4.597   2.627  0.5479 -0.4350  0.7877
    4MOL   C508 2194   7.111   4.563   2.682 -0.2749 -0.3692  0.6064
    4MOL   O509 2195   7.096   4.421   2.718 -0.1983  0.2192 -0.1001
    4MOL   C510 2196   7.224   4.571   2.574 -0.2244 -0.0703  0.7501
    4MOL   C511 2197   7.205   4.475   2.455  0.4967  0.3868  0.3953
    4MOL   C512 2198   7.317   4.493   2.351 -0.4099 -0.2206  0.9198
    4MOL   O513 2199   7.281   4.407   2.243 -0.2579  0.2740  0.0925
    4MOL   C514 2200   7.456   4.462   2.408 -0.2611 -0.6973  0.9447
    4MOL   C515 2201   7.572   4.463   2.310  0.3008 -0.0687 -0.1747
    4MOL   C516 2202   7.479   4.551   2.531  0.0547 -0.1556 -0.6377
    4MOL   C517 2203   7.364   4.548   2.639 -0.3158 -0.2172  0.8269
    4MOL   H518 2204   6.946   4.526   2.547  0.6999  1.5862 -1.0821
    4MOL   H519 2205   6.891   4.594   2.703 -0.8269 -1.0261 -0.6175
    4MOL   H520 2206   7.139   4.630   2.763 -0.9014  0.0371  0.4884
    4MOL   H521 2207   7.074   4.382   2.635  2.6573 -1.6295 -0.0333
    4MOL   H522 2208   7.202   4.674   2.547 -0.7055 -0.6571 -1.1872
    4MOL   H523 2209   7.197   4.372   2.490  0.5927  0.2511  0.0135
    4MOL   H524 2210   7.108   4.494   2.411  0.5129 -0.2548  0.0744
    4MOL   H525 2211   7.324   4.592   2.306  1.8534 -0.2367  1.1759
    4MOL   H526 2212   7.354   4.382   2.187 -0.8060  1.5022 -1.2095
    4MOL   H527 2213   7.445   4.358   2.441  0.8347 -1.1363 -0.0489
    4MOL   H528 2214   7.568   4.564   2.267 -0.1310 -0.0309 -0.0464
    4MOL   H529 2215   0.043   4.468   2.353  0.4389  4.8722 -0.7359
    4MOL   H530 2216   7.496   4.651   2.490  1.4459  0.1066  0.5273
    4MOL   H531 2217   7.569   4.508   2.578 -1.4638 -2.6529  0.0826
    4MOL   H532 2218   7.384   4.629   2.710  3.8367 -0.3976  0.0232
    4MOL   H533 2219   7.364   4.453   2.693 -0.7705 -1.1699 -0.8401
    4MOL   O534 2220   7.575   4.371   2.201  0.8263 -0.6000  0.4777
    4MOL   C535 2221   7.597   4.236   2.249  0.4642  0.6760  0.1932
    4MOL   C536 2222   0.015   4.152   2.126  0.2245  0.3111  0.1321
    4MOL   O537 2223   0.151   4.117   2.137 -0.1381 -0.1708  0.2135
    4MOL   C538 2224   7.560   4.029   2.100 -0.6332  0.0331 -0.1606
    4MOL   C539 2225   7.610   3.952   1.978  0.1103  0.1272 -0.4576
    4MOL   C540 2226   7.527   3.824   1.950 -0.3453  0.2854  0.1793
    4MOL   O541 2227   7.562   3.776   1.818 -0.1884 -0.2243 -0.9685
    4MOL   C542 2228   7.376   3.855   1.946  0.6554  0.5975  0.2189
    4MOL   C543 2229   7.303   3.722   1.953 -0.1964  0.5680 -0.3865
    4MOL   C544 2230   7.327   3.932   2.064 -0.2644 -0.3980 -0.2856
    4MOL   C545 2231   7.410   4.060   2.085  0.1832 -0.1880  0.3922
    4MOL   H546 2232   7.509   4.199   2.301 -0.4521 -0.1761 -1.9104
    4MOL   H547 2233   0.051   4.231   2.320  2.4396  0.7413 -2.0517
    4MOL   H548 2234   0.010   4.222   2.043 -0.0519  0.8963  0.6352
    4MOL   H549 2235   0.195   4.176   2.078  0.2449  1.1627  1.7945
    4MOL   H550 2236   7.571   3.958   2.182 -1.3452  1.2585  1.0069
    4MOL   H551 2237   7.613   4.012   1.887 -1.0499 -1.2913 -1.4390
    4MOL   H552 2238   0.085   3.927   1.993  0.8105  3.0646 -0.0772
    4MOL   H553 2239   7.554   3.750   2.025 -1.8124 -0.2102  0.2258
    4MOL   H554 2240   7.525   3.690   1.811 -1.1882  0.1815 -0.6828
    4MOL   H555 2241   7.335   3.914   1.864 -1.6164 -0.0876  0.8332
    4MOL   H556 2242   7.198   3.745   1.973 -0.5980  0.8687 -2.6161
    4MOL   H557 2243   7.303   3.655   1.866 -0.4720 -1.2870  1.0139
    4MOL   H558 2244   7.330   3.873   2.156  1.3288  0.6152  0.3243
    4MOL   H559 2245   7.226   3.970   2.048 -0.2776  0.2286  1.2152
    4MOL   H560 2246   7.375   4.104   2.179 -1.4455  2.4746 -1.3927
    4MOL   H561 2247   7.391   4.133   2.006  1.1293 -0.1754  0.1638
    4MOL   H562 2248   7.339   3.659   2.034 -2.8002 -0.4390  0.0482
    5MOL     O1 2249   5.934   3.671   6.991  0.4514  0.6297 -0.1689
    5MOL     C2 2250   6.012   3.565   6.930  0.2853 -0.0552  0.0088
    5MOL     C3 2251   6.046   3.470   7.049  0.3427  0.2346 -0.0052
    5MOL     O4 2252   5.924   3.454   7.118  0.5102 -0.0754 -0.2174
    5MOL     C5 2253   6.113   3.338   7.001  0.7685 -0.1758  0.6739
    5MOL     C6 2254   6.025   3.240   6.921 -0.3138 -0.3411  0.1721
    5MOL     C7 2255   6.116   3.121   6.871  0.0329  0.4927 -0.4443
    5MOL     O8 2256   6.027   3.027   6.802 -0.0560 -0.3975 -0.5143
    5MOL     C9 2257   6.193   3.049   6.990 -0.0195 -0.7104 -0.3967
    5MOL    C10 2258   6.284   2.938   6.944  0.0119  0.3614  0.6171
    5MOL    C11 2259   6.267   3.157   7.076 -0.3699 -0.2437  0.5366
    5MOL    C12 2260   6.184   3.278   7.116 -0.0467 -0.5161 -0.4632
    5MOL    H13 2261   6.095   3.607   6.872 -0.8716  0.5833 -1.2183
    5MOL    H14 2262   5.948   3.515   6.857 -0.0153  1.3872 -0.7346
    5MOL    H15 2263   6.121   3.521   7.109 -1.9364  1.0573  2.1732
    5MOL    H16 2264   5.948   3.485   7.204  1.1977  1.4386 -0.9326
    5MOL    H17 2265   6.185   3.370   6.926  0.6149 -2.4191 -0.4746
    5MOL    H18 2266   5.955   3.196   6.992  1.0547  1.6157  2.8342
    5MOL    H19 2267   5.971   3.294   6.843  0.4910 -0.4572 -0.4785
    5MOL    H20 2268   6.173   3.163   6.788 -2.0112  1.5055 -1.3582
    5MOL    H21 2269   6.044   3.034   6.709  0.6214  1.8522 -0.2465
    5MOL    H22 2270   6.127   2.990   7.052 -1.2448  1.0538  0.0174
    5MOL    H23 2271   6.226   2.863   6.888  1.3781 -0.2214 -0.0508
    5MOL    H24 2272   6.358   2.985   6.879  1.5379 -0.5940  1.6581
    5MOL    H25 2273   6.350   3.193   7.015 -0.8408  0.2876  0.2041
    5MOL    H26 2274   6.312   3.109   7.163  2.8786  1.1266 -0.2794
    5MOL    H27 2275   6.258   3.351   7.149  1.1294 -1.0200 -1.9545
    5MOL    H28 2276   6.128   3.235   7.200  2.7828 -0.0108  1.7635
    5MOL    H29 2277   5.887   3.622   7.056  0.5798  3.8347  2.4452
    5MOL    O30 2278   6.347   2.872   7.054 -0.4783  0.0110 -0.4075
    5MOL    C31 2279   6.455   2.774   7.022  0.3650 -0.3130  0.0177
    5MOL    C32 2280   6.401   2.635   7.016  0.6922 -0.3937 -0.3398
    5MOL    O33 2281   6.317   2.620   6.903  0.8286  0.4519  0.9623
    5MOL    C34 2282   6.512   2.529   7.023  0.0517 -0.2150  0.1796
    5MOL    C35 2283   6.610   2.524   6.900  0.0067  0.3928  0.0638
    5MOL    C36 2284   6.718   2.416   6.906 -0.9843  0.6529 -0.8643
    5MOL    O37 2285   6.786   2.412   6.785 -0.3015  0.2491  0.5008
    5MOL    C38 2286   6.663   2.273   6.935 -0.3228 -0.3231 -0.0861
    5MOL    C39 2287   6.774   2.171   6.957 -0.5830 -0.3809  0.1845
    5MOL    C40 2288   6.556   2.271   7.044 -0.0532 -0.8038  0.3236
    5MOL    C41 2289   6.456   2.386   7.041  0.6160 -0.5934  0.2336
    5MOL    H42 2290   6.536   2.774   7.096  0.4854  0.8619 -0.0976
    5MOL    H43 2291   6.509   2.796   6.929  1.1298  0.3972  0.6216
    5MOL    H44 2292   6.332   2.625   7.100  0.6819  0.4190 -0.2485
    5MOL    H45 2293   6.355   2.671   6.833  0.0785  0.0988  0.3004
    5MOL    H46 2294   6.577   2.542   7.109  0.5027 -1.1020 -0.0246
    5MOL    H47 2295   6.558   2.497   6.807  0.3084  0.6964 -0.1946
    5MOL    H48 2296   6.646   2.624   6.875 -1.0307  0.6580 -0.4238
    5MOL    H49 2297   6.794   2.440   6.980 -0.5721  0.1532 -1.1234
    5MOL    H50 2298   6.732   2.378   6.715 -0.6125  3.2269 -0.7870
    5MOL    H51 2299   6.609   2.234   6.850  1.4827  0.6855 -1.7309
    5MOL    H52 2300   6.846   2.178   6.876 -0.0803 -0.5596  0.6110
    5MOL    H53 2301   6.839   2.194   7.042 -0.4140 -0.8591  0.1880
    5MOL    H54 2302   6.602   2.272   7.143 -1.1959  0.5222  0.8495
    5MOL    H55 2303   6.505   2.174   7.045 -0.0302 -0.8102  2.1658
    5MOL    H56 2304   6.369   2.379   7.108  0.8498  0.1627  0.6241
    5MOL    H57 2305   6.423   2.376   6.938  0.2709  2.0849  0.0587
    5MOL    O58 2306   6.736   2.031   6.947  0.3633  0.6003  0.1318
    5MOL    C59 2307   6.850   1.942   6.942 -0.6363 -0.5596  0.0922
    5MOL    C60 2308   6.800   1.807   6.886 -0.3724 -0.6314 -0.2801
    5MOL    O61 2309   6.773   1.810   6.750 -0.5221  0.0403 -0.2917
    5MOL    C62 2310   6.888   1.683   6.918 -0.2881  1.1453  1.4773
    5MOL    C63 2311   6.825   1.547   6.869 -0.1707  0.1959  0.3261
    5MOL    C64 2312   6.896   1.421   6.913  0.2674 -0.2314 -0.5110
    5MOL    O65 2313   6.820   1.311   6.878 -0.0480  0.2879  0.4071
    5MOL    C66 2314   6.916   1.415   7.065  0.0355  0.1325 -0.1897
    5MOL    C67 2315   6.988   1.287   7.117 -0.2722  0.2080  0.3713
    5MOL    C68 2316   7.000   1.542   7.107 -0.0212  0.4838  0.0989
    5MOL    C69 2317   6.927   1.672   7.068  0.0586 -0.1978 -0.3972
    5MOL    H70 2318   6.883   1.936   7.045 -1.2480 -1.4845  0.2434
    5MOL    H71 2319   6.936   1.978   6.886  2.3870 -2.2161  3.5196
    5MOL    H72 2320   6.700   1.788   6.925 -0.7128  1.0057 -0.3348
    5MOL    H73 2321   6.680   1.789   6.745 -0.5386  0.3363 -1.5274
    5MOL    H74 2322   6.976   1.695   6.855 -0.3836 -2.1650  0.6288
    5MOL    H75 2323   6.718   1.541   6.890 -0.5836  0.1540 -1.6700
    5MOL    H76 2324   6.824   1.537   6.760  1.2203  1.4715  0.1949
    5MOL    H77 2325   6.989   1.415   6.858  1.6246  0.7716  1.5948
    5MOL    H78 2326   6.811   1.320   6.784  0.2708  0.0947  0.3557
    5MOL    H79 2327   6.819   1.409   7.115 -0.2424 -0.7331 -0.8160
    5MOL    H80 2328   6.978   1.281   7.226 -2.1459 -1.6788  0.1262
    5MOL    H81 2329   6.936   1.200   7.077 -1.8997  0.4436  1.9250
    5MOL    H82 2330   7.096   1.533   7.056  0.4887  0.6320  1.0224
    5MOL    H83 2331   7.010   1.553   7.215 -2.9543 -1.6108  0.6582
    5MOL    H84 2332   6.994   1.750   7.103 -0.0838 -0.6514  0.9490
    5MOL    H85 2333   6.837   1.676   7.129  1.2303  0.3861  1.3287
    5MOL    O86 2334   7.122   1.268   7.074 -0.6563 -0.3592  0.0759
    5MOL    C87 2335   7.174   1.144   7.118  0.5381  0.3862  0.1177
    5MOL    C88 2336   7.247   1.146   7.254  0.2481  0.3613  0.1564
    5MOL    O89 2337   7.160   1.112   7.356 -0.0801 -0.2633  0.4735
    5MOL    C90 2338   7.370   1.061   7.290 -0.2159 -0.5654  0.1346
    5MOL    C91 2339   7.336   0.907   7.270  0.8738  0.3100  0.0020
    5MOL    C92 2340   7.449   0.810   7.300 -0.1139  0.2883 -0.0184
    5MOL    O93 2341   7.389   0.683   7.316 -0.0489 -0.0240  0.2431
    5MOL    C94 2342   7.524   0.840   7.432 -0.4522 -0.0984  0.8119
    5MOL    C95 2343   0.008   0.751   7.453 -0.7711  0.3234  0.4503
    5MOL    C96 2344   7.571   0.991   7.430 -0.0177  1.0237  0.2697
    5MOL    C97 2345   7.447   1.083   7.422  0.1969  0.4787  0.5273
    5MOL    H98 2346   7.241   1.111   7.039 -0.9178  2.3503 -1.9810
    5MOL    H99 2347   7.103   1.062   7.111  3.1114 -1.9301  0.2263
    5MOL   H100 2348   7.286   1.247   7.268 -0.6975  0.4918  2.0123
    5MOL   H101 2349   7.202   1.100   7.439 -1.4813 -0.8001  1.1112
    5MOL   H102 2350   7.442   1.087   7.212 -0.3964  3.1571  1.1274
    5MOL   H103 2351   7.243   0.872   7.314  0.9247 -0.4594 -0.5050
    5MOL   H104 2352   7.304   0.880   7.170 -0.1285 -1.9525  0.9146
    5MOL   H105 2353   7.517   0.814   7.216  0.8964  1.5943  0.8539
    5MOL   H106 2354   7.344   0.666   7.234  1.4151 -0.2366 -0.5315
    5MOL   H107 2355   7.458   0.823   7.517  1.1761  0.3774  2.2100
    5MOL   H108 2356   0.070   0.804   7.526  1.7535  0.4671 -1.7003
    5MOL   H109 2357   7.602   0.657   7.494 -0.5350 -0.3435 -0.8492
    5MOL   H110 2358   0.014   1.017   7.352  0.2553  1.0450  0.5272
    5MOL   H111 2359   7.615   1.007   7.529 -0.6927  1.3483  0.5156
    5MOL   H112 2360   7.472   1.189   7.425  1.6281  0.3851 -3.7147
    5MOL   H113 2361   7.374   1.051   7.495 -0.2355  1.3984  0.5043
    5MOL   O114 2362   0.084   0.729   7.329 -0.5981  0.2049  0.5833
    5MOL   C115 2363   0.228   0.703   7.339 -0.5066  0.3481  0.4725
    5MOL   C116 2364   0.259   0.599   7.229  0.4154 -0.1267 -0.3875
    5MOL   O117 2365   0.187   0.477   7.266 -0.2657 -0.6116 -0.5496
    5MOL   C118 2366   0.223   0.650   7.090  0.3489  0.0195  0.1268
    5MOL   C119 2367   0.240   0.536   6.984  0.2808 -0.0437  0.0418
    5MOL   C120 2368   0.204   0.586   6.837  0.1712  0.6033 -0.0458
    5MOL   O121 2369   0.241   0.483   6.749 -0.1401  0.7848 -0.3082
    5MOL   C122 2370   0.284   0.712   6.809 -0.1305 -0.3290  1.1136
    5MOL   C123 2371   0.246   0.774   6.672 -0.4699 -0.3640  0.0657
    5MOL   C124 2372   0.270   0.820   6.914 -0.3675  0.0531  0.0441
    5MOL   C125 2373   0.297   0.778   7.053 -0.1184  0.4063  0.1207
    5MOL   H126 2374   0.252   0.660   7.436  0.2758  1.3666  0.7479
    5MOL   H127 2375   0.286   0.794   7.323  2.7475 -1.1920  2.8748
    5MOL   H128 2376   0.357   0.551   7.226 -0.4730 -2.1913  2.0066
    5MOL   H129 2377   0.095   0.488   7.251  0.2170  0.6950 -2.7175
    5MOL   H130 2378   0.121   0.685   7.102 -0.3812 -1.7609 -0.6991
    5MOL   H131 2379   0.344   0.506   6.991  0.2896  0.3951  2.3280
    5MOL   H132 2380   0.186   0.446   7.016  0.3547 -0.2981 -0.5545
    5MOL   H133 2381   0.100   0.616   6.832  0.4936  1.4903 -2.1244
    5MOL   H134 2382   0.205   0.498   6.664  0.5403 -2.6614 -1.2568
    5MOL   H135 2383   0.389   0.684   6.795  0.3379  1.5662  0.7886
    5MOL   H136 2384   0.276   0.704   6.594 -2.4483 -0.3477 -0.7502
    5MOL   H137 2385   0.137   0.780   6.668 -0.3817  1.6289 -0.0039
    5MOL   H138 2386   0.167   0.857   6.917  0.6941  3.2380 -0.9260
    5MOL   H139 2387   0.336   0.902   6.886 -2.5414  1.9312  0.2714
    5MOL   H140 2388   0.256   0.861   7.111 -2.8810 -1.5578  1.0757
    5MOL   H141 2389   0.401   0.765   7.080 -0.0063 -0.2698 -0.6245
    5MOL   O142 2390   0.308   0.904   6.657  0.9031 -0.0923 -0.2859
    5MOL   C143 2391   0.245   1.003   6.576  0.0645 -0.1522  1.1522
    5MOL   C144 2392   0.148   1.084   6.658 -0.4997  0.0839  0.5583
    5MOL   O145 2393   0.232   1.187   6.721  0.1426 -0.4726 -0.0592
    5MOL   C146 2394   0.032   1.153   6.579  0.6167  0.1256 -0.3155
    5MOL   C147 2395   0.079   1.249   6.472  0.5630 -0.0228  0.1827
    5MOL   C148 2396   7.589   1.309   6.398  0.2756 -0.2422  0.2105
    5MOL   O149 2397   0.005   1.406   6.308  0.5393  0.4382 -0.4363
    5MOL   C150 2398   7.489   1.383   6.490  0.1850 -0.3441  0.3325
    5MOL   C151 2399   7.364   1.436   6.406  0.5907  0.5068 -0.6619
    5MOL   C152 2400   7.443   1.294   6.602  0.0865  0.7398  0.4186
    5MOL   C153 2401   7.561   1.225   6.671  0.4791  0.1509  0.3927
    5MOL   H154 2402   0.200   0.953   6.490  1.3846 -0.4732  0.6251
    5MOL   H155 2403   0.321   1.076   6.548  1.1284 -1.5739  0.2428
    5MOL   H156 2404   0.103   1.027   6.739  1.6224 -1.1211  0.9337
    5MOL   H157 2405   0.300   1.133   6.757 -1.5569 -2.3478  0.4646
    5MOL   H158 2406   7.608   1.069   6.534  1.7010 -0.5440 -0.3667
    5MOL   H159 2407   0.141   1.330   6.511 -0.5779 -0.4412  2.9450
    5MOL   H160 2408   0.142   1.188   6.408 -2.8446 -0.1874 -3.1658
    5MOL   H161 2409   7.537   1.228   6.348  2.6386 -1.3433 -0.5378
    5MOL   H162 2410   0.002   1.364   6.224 -2.0863 -1.7023  0.6845
    5MOL   H163 2411   7.546   1.467   6.530  0.8159 -0.0570 -1.1388
    5MOL   H164 2412   7.394   1.489   6.315  0.3405  1.4063 -0.2247
    5MOL   H165 2413   7.304   1.348   6.383 -0.1752  1.0185 -0.6183
    5MOL   H166 2414   7.372   1.219   6.566  0.4711  0.1749  0.8161
    5MOL   H167 2415   7.390   1.352   6.676  1.4080 -0.5207  2.4122
    5MOL   H168 2416   7.513   1.149   6.732  0.3448  0.8830  1.2139
    5MOL   H169 2417   7.625   1.286   6.736 -0.0781  0.6166  0.5087
    5MOL   O170 2418   7.284   1.527   6.477 -0.1364 -0.4155 -0.3045
    5MOL   C171 2419   7.229   1.628   6.390  0.0284  0.0555 -0.1134
    5MOL   C172 2420   7.104   1.703   6.453  0.2520  0.4359  0.0453
    5MOL   O173 2421   7.096   1.834   6.416  0.0850 -0.2060  0.5926
    5MOL   C174 2422   6.970   1.643   6.437  0.0652  0.1021 -0.4420
    5MOL   C175 2423   6.952   1.509   6.503  0.3023 -0.3507 -0.1625
    5MOL   C176 2424   6.799   1.468   6.511 -0.2831 -0.7062 -0.1619
    5MOL   O177 2425   6.802   1.355   6.592 -0.1078  0.2490  0.0775
    5MOL   C178 2426   6.730   1.453   6.373  0.6395  0.0630 -1.0263
    5MOL   C179 2427   6.570   1.441   6.382 -0.1016 -0.7172  0.4083
    5MOL   C180 2428   6.767   1.581   6.292  0.4694  0.5859 -0.1077
    5MOL   C181 2429   6.912   1.625   6.292  0.0256  0.2225  0.2082
    5MOL   H182 2430   7.198   1.586   6.294 -0.7614 -2.1818  1.0818
    5MOL   H183 2431   7.306   1.703   6.374 -0.2622  0.4361  0.2503
    5MOL   H184 2432   7.124   1.709   6.560  0.9413 -4.0569  0.2418
    5MOL   H185 2433   7.153   1.891   6.466 -1.4401 -1.1310  3.5285
    5MOL   H186 2434   6.906   1.710   6.494  1.6864  1.7496 -0.4981
    5MOL   H187 2435   7.011   1.433   6.452  0.9033 -0.5906  0.8749
    5MOL   H188 2436   7.007   1.509   6.597  0.9851  0.0329 -0.5651
    5MOL   H189 2437   6.742   1.544   6.564  0.0438 -0.9830  0.5904
    5MOL   H190 2438   6.783   1.279   6.538  0.4912  0.1691 -0.0162
    5MOL   H191 2439   6.766   1.364   6.321  0.2600 -0.8483  0.2085
    5MOL   H192 2440   6.529   1.520   6.446  0.4775 -0.0245 -0.0667
    5MOL   H193 2441   6.535   1.459   6.280 -0.6027  0.7436  0.8132
    5MOL   H194 2442   6.708   1.660   6.339 -2.7207 -2.5583  1.4053
    5MOL   H195 2443   6.725   1.583   6.192  1.6061 -4.0163 -0.7985
    5MOL   H196 2444   6.935   1.721   6.243  1.6115 -0.0821  0.3363
    5MOL   H197 2445   6.971   1.552   6.237 -0.3461  0.1619 -0.1165
    5MOL   O198 2446   6.511   1.317   6.417  0.3096  0.6427 -0.2413
    5MOL   C199 2447   6.370   1.308   6.417  0.0929 -0.8342 -0.1520
    5MOL   C200 2448   6.325   1.195   6.503 -0.5073  0.0562 -1.0695
    5MOL   O201 2449   6.372   1.075   6.443 -0.4199  0.2154 -0.2320
    5MOL   C202 2450   6.345   1.219   6.658  0.1172  0.5192  0.1062
    5MOL   C203 2451   6.477   1.183   6.719 -0.4955 -0.2318  0.5392
    5MOL   C204 2452   6.473   1.201   6.868  0.4312 -0.1005  0.6130
    5MOL   O205 2453   6.599   1.152   6.909 -0.1356 -0.6723 -0.6453
    5MOL   C206 2454   6.359   1.133   6.950 -1.2143 -0.0336 -0.3524
    5MOL   C207 2455   6.354   1.186   7.101  0.6093  0.4019 -0.4035
    5MOL   C208 2456   6.232   1.157   6.886 -0.2049 -0.9036 -0.3909
    5MOL   C209 2457   6.236   1.139   6.732 -0.4028  0.2625  0.3303
    5MOL   H210 2458   6.337   1.297   6.314 -0.6227 -2.0912  0.1868
    5MOL   H211 2459   6.323   1.401   6.450 -0.9244 -1.3167 -0.1983
    5MOL   H212 2460   6.218   1.209   6.486 -1.2146 -1.7254  1.5207
    5MOL   H213 2461   6.365   1.086   6.350 -2.7634 -0.6501 -0.2064
    5MOL   H214 2462   6.313   1.320   6.683 -0.2799 -0.3423  3.3749
    5MOL   H215 2463   6.503   1.081   6.688  0.7994  0.2121  0.1720
    5MOL   H216 2464   6.563   1.241   6.687 -1.2810  0.2402 -0.7503
    5MOL   H217 2465   6.466   1.309   6.880  1.6887 -0.0173  0.5959
    5MOL   H218 2466   6.668   1.215   6.898 -2.0687  1.4720 -1.0623
    5MOL   H219 2467   6.382   1.027   6.956  2.1350  0.6920  0.6957
    5MOL   H220 2468   6.451   1.223   7.134  0.8594  1.0746 -1.8364
    5MOL   H221 2469   6.299   1.280   7.100 -1.4790 -0.7452  2.0290
    5MOL   H222 2470   6.189   1.255   6.903 -1.4827 -1.3968 -0.6985
    5MOL   H223 2471   6.161   1.085   6.927  0.1268 -0.7894  0.3779
    5MOL   H224 2472   6.136   1.159   6.693 -1.1522  0.8923  2.4770
    5MOL   H225 2473   6.253   1.035   6.707 -1.7651  0.5379 -1.9596
    5MOL   O226 2474   6.299   1.090   7.185 -0.2467 -0.1573  0.5404
    5MOL   C227 2475   6.403   1.007   7.242  0.3710  0.2711  0.5596
    5MOL   C228 2476   6.374   0.960   7.392 -0.1220 -0.2244  0.2442
    5MOL   O229 2477   6.379   1.085   7.463  0.2758 -0.7634  0.1319
    5MOL   C230 2478   6.230   0.907   7.426  0.2792 -1.0991 -0.3339
    5MOL   C231 2479   6.230   0.879   7.581 -0.0021 -0.1521  0.9898
    5MOL   C232 2480   6.095   0.829   7.626 -0.3751 -0.4210  0.4047
    5MOL   O233 2481   6.095   0.830   0.138  0.2653  0.2530  0.1343
    5MOL   C234 2482   6.060   0.696   7.550  0.2526 -0.1071  0.2913
    5MOL   C235 2483   5.925   0.644   7.603 -0.3820 -0.0328 -0.1612
    5MOL   C236 2484   6.058   0.720   7.401 -0.1017 -0.2296  0.0282
    5MOL   C237 2485   6.188   0.781   7.348  0.4027  0.0933 -0.0946
    5MOL   H238 2486   6.496   1.061   7.260 -0.2457  1.2914  0.7377
    5MOL   H239 2487   6.428   0.922   7.179  0.0006  0.1475  0.5779
    5MOL   H240 2488   6.449   0.893   7.434 -1.4335 -1.2474  1.0157
    5MOL   H241 2489   6.312   1.140   7.426  1.6183  0.4048 -0.6119
    5MOL   H242 2490   6.156   0.985   7.410  2.4010  0.8382 -0.9601
    5MOL   H243 2491   6.297   0.795   7.602  0.3609 -0.6002 -1.6967
    5MOL   H244 2492   6.253   0.960   0.020  0.5141 -1.5653  2.5238
    5MOL   H245 2493   6.038   0.915   7.591 -0.6644 -1.3624 -1.5168
    5MOL   H246 2494   6.021   0.785   0.177 -0.0211 -0.2877 -1.0173
    5MOL   H247 2495   6.134   0.618   7.568  0.0173 -0.0089  1.8143
    5MOL   H248 2496   5.933   0.634   0.082 -1.0684 -0.7217 -0.1704
    5MOL   H249 2497   5.848   0.720   7.587  1.6758  1.6443 -2.5350
    5MOL   H250 2498   5.975   0.788   7.380  0.3436  0.0697 -0.8168
    5MOL   H251 2499   6.040   0.624   7.351  1.7216 -0.4287 -0.2921
    5MOL   H252 2500   6.179   0.806   7.242  0.5223  0.7516  0.0476
    5MOL   H253 2501   6.269   0.708   7.357  2.0914  2.0730  1.4209
    5MOL   O254 2502   5.896   0.517   7.533 -0.3466  0.1651 -0.3903
    5MOL   C255 2503   5.760   0.486   7.511 -0.0703 -0.3383 -0.2535
    5MOL   C256 2504   5.760   0.340   7.452 -0.1774 -0.1150 -0.4048
    5MOL   O257 2505   5.821   0.366   7.318 -0.3009  0.2805 -0.1578
    5MOL   C258 2506   5.828   0.236   7.535  0.5286 -0.3831  0.0186
    5MOL   C259 2507   5.845   0.097   7.477 -0.2738  0.1123  0.0243
    5MOL   C260 2508   5.921   0.004   7.573 -0.2286  0.2969  0.2620
    5MOL   O261 2509   5.937   7.519   7.498 -0.4730 -0.5453  0.1853
    5MOL   C262 2510   5.845   7.622   0.073 -0.0995  0.0851 -0.4744
    5MOL   C263 2511   5.912   7.519   0.171 -0.4553 -0.1831  0.6700
    5MOL   C264 2512   5.838   0.129   0.137  0.0334 -0.5096 -0.6257
    5MOL   C265 2513   5.759   0.225   0.046  0.2973 -0.2046  0.5486
    5MOL   H266 2514   5.708   0.557   7.445 -0.0747 -1.4136 -1.4230
    5MOL   H267 2515   5.713   0.491   7.609 -2.5212  1.5234 -1.4414
    5MOL   H268 2516   5.660   0.306   7.428 -0.3034  0.8409 -1.2827
    5MOL   H269 2517   5.912   0.388   7.334 -0.0906 -0.0758 -0.8217
    5MOL   H270 2518   5.928   0.275   7.555  0.6663 -0.4390 -0.5655
    5MOL   H271 2519   5.753   0.046   7.447  0.0811 -0.6097  0.1607
    5MOL   H272 2520   5.905   0.102   7.386  1.5588 -1.4721  1.1231
    5MOL   H273 2521   6.024   0.039   7.587  0.3574 -1.4097  0.3388
    5MOL   H274 2522   5.972   7.549   7.416  0.2279  3.5562  1.8806
    5MOL   H275 2523   5.744   7.588   0.050 -0.7621  1.4011  0.4333
    5MOL   H276 2524   5.908   7.416   0.136  1.7128  0.2803 -1.0571
    5MOL   H277 2525   6.014   7.556   0.182  0.0132 -1.4600  0.7099
    5MOL   H278 2526   5.941   0.164   0.141  0.2678 -1.2289 -0.2207
    5MOL   H279 2527   5.786   0.129   0.233  1.5193 -3.3466  0.2445
    5MOL   H280 2528   5.753   0.325   0.090  1.3527 -0.6603  1.7616
    5MOL   H281 2529   5.655   0.192   0.046 -0.0750  0.8602  2.7230
    5MOL   O282 2530   5.841   7.520   0.296 -0.2660 -0.3911 -0.2480
    5MOL   C283 2531   5.925   7.531   0.407 -0.2267 -0.1258  0.1150
    5MOL   C284 2532   5.840   7.511   0.531 -0.3598  0.4940  0.2861
    5MOL   O285 2533   5.766   0.005   0.538  0.5041  0.0413  0.4455
    5MOL   C286 2534   5.764   7.382   0.539  0.1517  0.1805  0.1457
    5MOL   C287 2535   5.614   7.400   0.523  0.5001 -0.0767 -0.5056
    5MOL   C288 2536   5.538   7.268   0.526  0.1252  0.4809 -0.3911
    5MOL   O289 2537   5.398   7.302   0.518  0.0129  0.1298 -0.2108
    5MOL   C290 2538   5.562   7.190   0.661 -0.2541  0.1057  0.6618
    5MOL   C291 2539   5.503   7.053   0.662 -0.5158  0.0828  0.1470
    5MOL   C292 2540   5.717   7.184   0.679  0.3143  0.3269  0.3635
    5MOL   C293 2541   5.790   7.315   0.675 -0.1348  0.2131  0.1895
    5MOL   H294 2542   5.960   0.004   0.397 -1.0496 -0.0341 -2.1551
    5MOL   H295 2543   6.006   7.458   0.410 -0.2454 -0.3092 -2.9925
    5MOL   H296 2544   5.917   7.509   0.608  0.8936  0.0764 -0.9401
    5MOL   H297 2545   5.804   0.070   0.481 -2.5375  2.7312  1.2995
    5MOL   H298 2546   5.801   7.322   0.456  0.3126 -0.8398  0.9433
    5MOL   H299 2547   5.572   7.457   0.607  1.4132 -4.1825  2.8916
    5MOL   H300 2548   5.601   7.443   0.424 -0.8447 -1.0629 -0.7708
    5MOL   H301 2549   5.561   7.207   0.439 -1.3005  0.0374 -0.4789
    5MOL   H302 2550   5.380   7.300   0.425 -2.6070 -0.6460  0.2535
    5MOL   H303 2551   5.511   7.237   0.745 -0.9556  0.4712  0.0362
    5MOL   H304 2552   5.400   7.044   0.630 -1.0217 -1.1329  2.0523
    5MOL   H305 2553   5.567   6.989   0.602 -1.2468 -2.4950  2.0123
    5MOL   H306 2554   5.752   7.122   0.596 -1.8489 -1.4729  0.7461
    5MOL   H307 2555   5.737   7.128   0.770  0.4262 -1.8192 -0.9417
    5MOL   H308 2556   5.895   7.293   0.693  0.1822  0.9730 -0.7018
    5MOL   H309 2557   5.754   7.373   0.760  2.7640  1.4361  0.6556
    5MOL   O310 2558   5.504   7.006   0.793 -0.1795  0.8428  0.1314
    5MOL   C311 2559   5.500   6.859   0.801 -0.4046 -0.3864  0.1491
    5MOL   C312 2560   5.551   6.807   0.942  0.8903  0.1367  0.2370
    5MOL   O313 2561   5.523   6.668   0.942 -0.3779  0.3470  0.4494
    5MOL   C314 2562   5.701   6.838   0.962 -0.8319 -0.1302 -0.1216
    5MOL   C315 2563   5.722   6.975   1.022 -0.5745  0.3016  0.3128
    5MOL   C316 2564   5.867   7.022   1.038 -0.2500  0.3477  0.4177
    5MOL   O317 2565   5.864   7.166   1.053 -0.1291  0.1676 -0.4140
    5MOL   C318 2566   5.961   6.984   0.921 -0.6116  0.7322 -0.8091
    5MOL   C319 2567   6.109   7.025   0.932 -0.0227  0.0185  0.3508
    5MOL   C320 2568   5.943   6.836   0.887 -0.2183  0.5687  0.3483
    5MOL   C321 2569   5.795   6.801   0.851 -0.3104 -1.0138  0.0114
    5MOL   H322 2570   5.540   6.804   0.715 -1.7773 -1.9935  0.5114
    5MOL   H323 2571   5.394   6.833   0.797 -0.6195  0.0434  2.5121
    5MOL   H324 2572   5.481   6.855   1.011  0.6388  3.8509 -2.4140
    5MOL   H325 2573   5.431   6.652   0.929 -0.8501  2.2084  1.2936
    5MOL   H326 2574   5.733   6.771   1.043 -1.0410 -1.2464 -0.9529
    5MOL   H327 2575   5.666   7.044   0.960  2.5885  1.7709 -1.0133
    5MOL   H328 2576   5.669   6.982   1.118 -0.7873  0.1248  0.2092
    5MOL   H329 2577   5.916   6.994   1.132 -1.1129 -2.5879  0.0363
    5MOL   H330 2578   5.770   7.180   1.062 -0.0853 -0.2685  0.9412
    5MOL   H331 2579   5.924   7.041   0.836  0.3859  4.1425  0.9559
    5MOL   H332 2580   6.121   7.130   0.957 -1.6776  0.6052 -1.2161
    5MOL   H333 2581   6.169   6.971   1.006  1.1172  0.1670 -0.4571
    5MOL   H334 2582   5.964   6.763   0.965  0.3412 -0.0810 -0.4124
    5MOL   H335 2583   6.016   6.809   0.812  1.1481 -1.2255  2.2626
    5MOL   H336 2584   5.798   6.692   0.838 -1.0580 -0.9724 -0.5702
    5MOL   H337 2585   5.765   6.852   0.759  1.1321 -0.7032 -0.2955
    5MOL   O338 2586   6.168   7.017   0.803  0.0749  0.6174 -0.2698
    5MOL   C339 2587   6.308   7.053   0.807  0.3089 -0.2255 -0.5338
    5MOL   C340 2588   6.368   6.987   0.688 -0.9446 -0.0497  0.7439
    5MOL   O341 2589   6.315   7.059   0.571 -0.3085 -0.1060 -0.4147
    5MOL   C342 2590   6.530   6.981   0.681  0.7082  0.1601 -0.4538
    5MOL   C343 2591   6.597   7.115   0.697  0.6015  0.0044 -0.5525
    5MOL   C344 2592   6.750   7.104   0.689  0.7189  0.2610 -0.3850
    5MOL   O345 2593   6.797   7.232   0.702  0.4753 -0.0166 -0.1682
    5MOL   C346 2594   6.781   7.047   0.543  0.7313  0.0701  0.1915
    5MOL   C347 2595   6.922   7.059   0.500  0.4718  0.6039  0.1215
    5MOL   C348 2596   6.732   6.906   0.529 -0.3040  0.0044  0.6830
    5MOL   C349 2597   6.572   6.906   0.549 -0.6265  0.5032  0.2543
    5MOL   H350 2598   6.363   7.016   0.894 -0.8779 -0.1109  0.2747
    5MOL   H351 2599   6.334   7.159   0.802  1.8005 -0.5431  0.1548
    5MOL   H352 2600   6.338   6.882   0.682 -1.2320 -0.0019  1.2943
    5MOL   H353 2601   6.225   7.031   0.569 -0.4078  0.2604 -1.2857
    5MOL   H354 2602   6.561   6.916   0.764  2.8627 -0.4993 -1.7315
    5MOL   H355 2603   6.553   7.182   0.623 -1.0143  1.7325  1.8962
    5MOL   H356 2604   6.560   7.165   0.786  2.3476  0.3574  0.0018
    5MOL   H357 2605   6.795   7.045   0.769 -1.2526  1.0163  1.3363
    5MOL   H358 2606   6.736   7.283   0.754  0.1963 -0.5592  0.0511
    5MOL   H359 2607   6.730   7.110   0.469 -0.6916  0.1494  1.2188
    5MOL   H360 2608   6.965   7.159   0.505  0.1328  0.8257 -1.3409
    5MOL   H361 2609   6.983   7.004   0.573  0.0743  0.2644  0.1990
    5MOL   H362 2610   6.776   6.844   0.608  2.4080  1.3071  0.2666
    5MOL   H363 2611   6.741   6.867   0.428 -1.3441  0.2009  0.5077
    5MOL   H364 2612   6.530   6.805   0.555  1.3979 -0.3688  0.2264
    5MOL   H365 2613   6.517   6.937   0.460 -1.5783  0.8563  0.9602
    5MOL   O366 2614   6.936   7.011   0.367 -0.0967 -0.5088 -0.1395
    5MOL   C367 2615   6.941   7.135   0.283  0.0391 -0.1575 -0.2448
    5MOL   C368 2616   6.924   7.091   0.136  0.0110  0.0541  0.4211
    5MOL   O369 2617   7.043   7.015   0.100 -0.7305  0.2176 -0.0844
    5MOL   C370 2618   6.799   7.004   0.118 -0.3598 -0.5095  0.6402
    5MOL   C371 2619   6.790   6.949   7.602  0.6856  0.5251  0.1286
    5MOL   C372 2620   6.662   6.883   7.556  0.8530 -0.4020 -0.1370
    5MOL   O373 2621   6.662   6.880   7.413 -0.3246  0.3549  0.6605
    5MOL   C374 2622   6.531   6.950   7.594  0.1231  0.2592 -0.2588
    5MOL   C375 2623   6.407   6.862   7.558  0.4684  0.0811 -0.0607
    5MOL   C376 2624   6.542   6.993   0.113  0.0959  0.0267  0.1054
    5MOL   C377 2625   6.670   7.078   0.155  0.2646 -0.8063  0.2018
    5MOL   H378 2626   7.041   7.178   0.287 -0.0918  0.2519 -1.1220
    5MOL   H379 2627   6.864   7.209   0.301 -0.5715 -0.5555 -1.1811
    5MOL   H380 2628   6.926   7.182   0.076 -0.9116  0.0300  0.3461
    5MOL   H381 2629   7.099   7.061   0.040 -0.0676  0.3855  0.6593
    5MOL   H382 2630   6.801   6.914   0.179 -1.2983 -1.7060 -1.0382
    5MOL   H383 2631   6.829   7.018   7.527 -0.5941  0.9059 -0.2007
    5MOL   H384 2632   6.860   6.867   7.586 -1.9347 -1.3588 -2.0180
    5MOL   H385 2633   6.654   6.782   7.594 -1.7782 -0.5577 -0.9821
    5MOL   H386 2634   6.751   6.891   7.384 -0.1162  1.7631  1.7573
    5MOL   H387 2635   6.525   7.039   7.531 -1.4694  0.0013 -0.5106
    5MOL   H388 2636   6.410   6.836   7.452  0.5288 -0.6244  0.1138
    5MOL   H389 2637   6.413   6.771   7.617 -1.1165  0.3130  0.4777
    5MOL   H390 2638   6.548   6.909   0.182  2.6052 -0.0207 -0.0935
    5MOL   H391 2639   6.459   7.058   0.138 -1.4507 -1.7191 -0.3773
    5MOL   H392 2640   6.654   7.098   0.261  0.3141  0.0147  0.0585
    5MOL   H393 2641   6.660   7.172   0.101 -0.4736 -1.2179 -0.3968
    5MOL   O394 2642   6.284   6.916   7.600  0.1936 -0.1282  0.2367
    5MOL   C395 2643   6.185   6.862   7.511 -0.3608  0.2869  0.9233
    5MOL   C396 2644   6.044   6.880   7.572 -0.8762 -0.6163 -0.3927
    5MOL   O397 2645   6.012   7.018   7.553 -0.1349  0.2291  0.5109
    5MOL   C398 2646   5.937   6.796   7.496 -0.5035 -0.0384 -0.1182
    5MOL   C399 2647   5.796   6.814   7.554 -0.5403  0.2459  0.8305
    5MOL   C400 2648   5.689   6.725   7.482  0.8153 -0.1128 -0.1532
    5MOL   O401 2649   5.570   6.731   7.556  0.3383  0.2533 -0.0636
    5MOL   C402 2650   5.728   6.576   7.460  0.8340 -0.2543 -0.5920
    5MOL   C403 2651   5.627   6.503   7.367 -0.1995 -0.0679 -0.1817
    5MOL   C404 2652   5.867   6.562   7.404  0.3228  0.1936  0.4868
    5MOL   C405 2653   5.961   6.647   7.489  0.3242 -0.3917 -0.5550
    5MOL   H406 2654   6.196   6.754   7.513  1.1715  0.3286 -2.1392
    5MOL   H407 2655   6.192   6.889   7.406 -3.0227  1.0627  0.9174
    5MOL   H408 2656   6.038   6.868   0.050 -0.2274 -0.4559 -0.3358
    5MOL   H409 2657   6.075   7.071   7.600 -0.1821  2.0248 -1.3805
    5MOL   H410 2658   5.933   6.833   7.394  0.7019  0.4941  0.0263
    5MOL   H411 2659   5.789   6.789   0.030 -1.2790 -0.2100  0.6751
    5MOL   H412 2660   5.762   6.917   7.555 -0.2819  0.3327  2.5423
    5MOL   H413 2661   5.666   6.754   7.380  0.6008  0.4401  0.0476
    5MOL   H414 2662   5.509   6.670   7.515  0.6904 -1.4725  1.8577
    5MOL   H415 2663   5.734   6.518   7.552  1.7133 -0.0025 -0.4932
    5MOL   H416 2664   5.606   6.561   7.277  1.9447  0.9954 -0.0265
    5MOL   H417 2665   5.670   6.410   7.327 -0.5455 -1.3752  2.3971
    5MOL   H418 2666   5.875   6.596   7.301  0.8524 -2.2451 -0.3058
    5MOL   H419 2667   5.903   6.459   7.398  1.7157  0.4706  3.1086
    5MOL   H420 2668   6.058   6.628   7.442 -0.4097  2.7339 -3.5372
    5MOL   H421 2669   5.966   6.609   7.591 -1.7939  1.4168  0.2540
    5MOL   O422 2670   5.510   6.494   7.445  0.3609  0.1127  0.2791
    5MOL   C423 2671   5.408   6.405   7.388 -0.2594  0.9660  0.8087
    5MOL   C424 2672   5.269   6.438   7.455 -0.4927  0.0975 -0.1034
    5MOL   O425 2673   5.272   6.378   7.587 -0.6435  0.1978  0.1153
    5MOL   C426 2674   5.233   6.589   7.456 -0.2623 -0.2182 -0.6096
    5MOL   C427 2675   5.112   6.603   7.555  0.8831 -0.3127  0.4747
    5MOL   C428 2676   5.070   6.753   7.568 -0.9447 -0.5587  0.1612
    5MOL   O429 2677   4.948   6.758   0.008  0.4833  0.1418  0.4892
    5MOL   C430 2678   5.049   6.827   7.431 -0.2280 -0.0280 -0.3738
    5MOL   C431 2679   5.017   6.979   7.446 -0.3148  0.1410  0.1294
    5MOL   C432 2680   5.170   6.806   7.337 -0.2136  0.1006  0.4965
    5MOL   C433 2681   5.199   6.652   7.322 -0.0729 -0.3699 -0.9817
    5MOL   H434 2682   5.423   6.298   7.405  1.4232  0.5758 -2.6999
    5MOL   H435 2683   5.397   6.426   7.281 -4.4379  5.0303  1.8987
    5MOL   H436 2684   5.200   6.371   7.404 -0.4342  1.6931 -2.3243
    5MOL   H437 2685   5.333   6.430   0.007 -1.9033  1.4708  0.3587
    5MOL   H438 2686   5.322   6.642   7.488 -1.1613  0.0993  1.4310
    5MOL   H439 2687   5.032   6.547   7.505  1.0377 -0.3066  0.2202
    5MOL   H440 2688   5.134   6.558   0.022  0.0227  0.3521  0.9904
    5MOL   H441 2689   5.154   6.800   7.619  0.5449  0.0045 -2.7302
    5MOL   H442 2690   4.970   6.743   0.099  0.1486  2.8814  1.0805
    5MOL   H443 2691   4.962   6.783   7.382 -2.3285  0.7038  2.5310
    5MOL   H444 2692   5.004   7.018   7.346  0.1173  1.0825  0.4274
    5MOL   H445 2693   4.925   7.002   7.500  0.1606 -0.2258  1.1227
    5MOL   H446 2694   5.262   6.851   7.372 -0.3134 -1.0119  2.2731
    5MOL   H447 2695   5.149   6.850   7.240  1.0522  0.0916  0.2179
    5MOL   H448 2696   5.275   6.626   7.249  2.1567 -1.9756  1.8006
    5MOL   H449 2697   5.105   6.608   7.289 -0.7246 -1.4349  2.1453
    5MOL   O450 2698   5.136   7.048   7.490 -0.3350  0.5516  0.1875
    5MOL   C451 2699   5.110   7.166   7.566 -0.1013 -0.3141  0.1806
    5MOL   C452 2700   5.231   7.254   7.552 -0.7940  0.2417 -0.8184
    5MOL   O453 2701   5.223   7.358   0.018  0.2089  0.4672  0.1431
    5MOL   C454 2702   5.367   7.181   7.567  0.1687 -0.2345 -0.3453
    5MOL   C455 2703   5.385   7.097   0.065  0.3923 -0.2686  0.0582
    5MOL   C456 2704   5.448   7.172   0.179 -0.2763  0.4412  0.2383
    5MOL   O457 2705   5.341   7.246   0.243 -0.3910 -0.0053  0.1081
    5MOL   C458 2706   5.571   7.263   0.138 -0.0943 -0.4133  0.1303
    5MOL   C459 2707   5.712   7.195   0.118  0.4965 -0.7476  0.1736
    5MOL   C460 2708   5.535   7.360   0.018  0.0337 -0.3083  0.2766
    5MOL   C461 2709   5.488   7.276   7.533  0.3486  0.2529 -0.3218
    5MOL   H462 2710   5.086   7.146   0.041 -2.4503  0.2205 -0.2263
    5MOL   H463 2711   5.027   7.221   7.522 -0.5229 -1.3353 -0.2964
    5MOL   H464 2712   5.238   7.301   7.454  0.1290  1.6522 -0.0952
    5MOL   H465 2713   5.166   7.418   7.603  0.6407  0.5548 -0.3030
    5MOL   H466 2714   5.366   7.109   7.485  1.4659  0.5012 -1.0110
    5MOL   H467 2715   5.293   7.049   0.098 -0.3271 -1.2874 -3.2477
    5MOL   H468 2716   5.441   7.005   0.049  0.1296 -0.8673  2.3731
    5MOL   H469 2717   5.475   7.104   0.259  1.6398 -0.0204 -0.7575
    5MOL   H470 2718   5.303   7.299   0.174  0.3281  0.5057  0.0942
    5MOL   H471 2719   5.578   7.326   0.227 -0.7260 -0.9543  0.5663
    5MOL   H472 2720   5.695   7.115   0.046 -0.1763 -1.7782  1.4622
    5MOL   H473 2721   5.789   7.262   0.080 -0.2059 -1.4653 -2.5941
    5MOL   H474 2722   5.612   7.427   7.610  0.0589  0.2610  1.3322
    5MOL   H475 2723   5.456   7.420   0.063  1.2117  0.5603  1.2370
    5MOL   H476 2724   5.568   7.211   7.496 -0.3561 -0.7145 -0.1635
    5MOL   H477 2725   5.469   7.341   7.447  1.6823 -0.1925 -0.9622
    5MOL   O478 2726   5.746   7.140   0.241  0.0912  0.2056 -0.0993
    5MOL   C479 2727   5.863   7.056   0.228  0.1971  0.2914 -0.0717
    5MOL   C480 2728   5.891   6.994   0.368 -0.4760  0.1449 -0.2866
    5MOL   O481 2729   5.769   6.942   0.400  0.3470 -0.0892  0.2943
    5MOL   C482 2730   6.005   6.890   0.346  0.3080 -0.0860 -0.3177
    5MOL   C483 2731   6.036   6.806   0.476 -0.3847 -1.3498  0.2342
    5MOL   C484 2732   6.138   6.694   0.452 -0.0681  0.0379 -0.2549
    5MOL   O485 2733   6.157   6.609   0.573 -0.3151 -0.2838 -0.2081
    5MOL   C486 2734   6.277   6.749   0.397  0.0939 -0.5018  0.0934
    5MOL   C487 2735   6.377   6.647   0.368  0.2776 -0.1641  0.1478
    5MOL   C488 2736   6.241   6.832   0.278 -0.3712 -0.6774  0.4199
    5MOL   C489 2737   6.142   6.948   0.308 -0.3428 -0.0446  0.1711
    5MOL   H490 2738   5.950   7.108   0.187 -0.0302  2.3296  1.9440
    5MOL   H491 2739   5.860   6.964   0.170 -2.0592 -0.1428  0.6991
    5MOL   H492 2740   5.919   7.073   0.437  0.5054 -0.4926  0.0573
    5MOL   H493 2741   5.704   6.967   0.336  0.5986  1.6145  0.6867
    5MOL   H494 2742   5.968   6.820   0.272 -1.7013  0.4965  0.0835
    5MOL   H495 2743   6.066   6.879   0.551  1.6450  0.9235 -2.6303
    5MOL   H496 2744   5.939   6.769   0.511  0.7211 -3.8716  0.7141
    5MOL   H497 2745   6.099   6.626   0.377  1.1224  0.6511 -1.4647
    5MOL   H498 2746   6.237   6.559   0.565  0.8417  1.2363  1.2436
    5MOL   H499 2747   6.320   6.809   0.478  0.2961  0.3924 -0.6730
    5MOL   H500 2748   6.348   6.571   0.296 -1.0902 -0.8629  1.4321
    5MOL   H501 2749   6.465   6.699   0.329  1.3042 -1.2866  0.9466
    5MOL   H502 2750   6.212   6.763   0.198 -0.7017 -0.8288  0.6690
    5MOL   H503 2751   6.330   6.877   0.234 -0.3111 -1.9477 -0.8266
    5MOL   H504 2752   6.129   6.994   0.210  1.1292 -1.9736 -0.9635
    5MOL   H505 2753   6.181   7.030   0.367  0.5702 -1.2181  1.2067
    5MOL   O506 2754   6.412   6.569   0.481 -0.0423  0.1279 -0.0644
    5MOL   C507 2755   6.514   6.463   0.466  0.4562  0.7948 -1.0842
    5MOL   C508 2756   6.604   6.435   0.591  0.0095 -0.2815 -0.0351
    5MOL   O509 2757   6.655   6.301   0.585  0.7787 -0.2680 -0.0383
    5MOL   C510 2758   6.718   6.538   0.605  0.2427 -0.0188  0.9216
    5MOL   C511 2759   6.815   6.530   0.484  1.5042 -0.4770  0.1523
    5MOL   C512 2760   6.940   6.445   0.514  0.1339 -0.0865  0.2337
    5MOL   O513 2761   6.904   6.309   0.496  0.0329 -0.5220 -0.1280
    5MOL   C514 2762   7.000   6.461   0.651  0.4379  0.5173 -0.6953
    5MOL   C515 2763   7.088   6.586   0.653 -0.8525  0.2227  0.3751
    5MOL   C516 2764   6.899   6.456   0.764 -0.7364  0.2361  0.2888
    5MOL   C517 2765   6.790   6.562   0.738 -0.7679 -0.2830 -0.8938
    5MOL   H518 2766   6.558   6.458   0.366  1.9721 -1.9109 -0.3307
    5MOL   H519 2767   6.448   6.377   0.452  0.5297  0.3816  1.0552
    5MOL   H520 2768   6.528   6.441   0.668  0.2596 -2.2352  0.3975
    5MOL   H521 2769   6.588   6.235   0.591  1.7277 -1.2777 -0.4217
    5MOL   H522 2770   6.667   6.631   0.579 -1.5902 -0.4205  2.9593
    5MOL   H523 2771   6.781   6.510   0.383 -0.1408  0.4723  0.4997
    5MOL   H524 2772   6.850   6.632   0.473 -0.9627  0.4508  0.5944
    5MOL   H525 2773   7.006   6.461   0.428 -0.2543 -0.3766 -0.1207
    5MOL   H526 2774   6.825   6.300   0.547 -0.9251 -2.8751 -1.9631
    5MOL   H527 2775   7.070   6.378   0.661 -0.2600  0.0686  0.6470
    5MOL   H528 2776   7.049   6.686   0.630  4.2548  1.9992 -1.3634
    5MOL   H529 2777   7.128   6.582   0.754 -0.2553 -1.3929  0.0806
    5MOL   H530 2778   6.938   6.460   0.866 -0.5324 -1.0503  0.2592
    5MOL   H531 2779   6.857   6.356   0.760 -0.7684  0.2100  1.0932
    5MOL   H532 2780   6.835   6.661   0.737  0.6779 -0.8785  0.6067
    5MOL   H533 2781   6.722   6.571   0.823 -2.0833  2.1426 -2.1428
    5MOL   O534 2782   7.207   6.568   0.581 -0.1592 -0.0282 -0.1524
    5MOL   C535 2783   7.262   6.685   0.523 -0.3327  0.2335  0.4912
    5MOL   C536 2784   7.174   6.724   0.399 -0.1963  0.1190 -0.0525
    5MOL   O537 2785   7.186   6.867   0.381  0.1802  0.1599 -0.4158
    5MOL   C538 2786   7.195   6.637   0.272 -0.7083  0.1758  0.1029
    5MOL   C539 2787   7.339   6.656   0.213  0.0038 -0.0551  0.3283
    5MOL   C540 2788   7.361   6.579   0.079 -0.5516  0.1562  0.2658
    5MOL   O541 2789   7.490   6.600   0.040 -0.9669  0.1686 -0.8127
    5MOL   C542 2790   7.254   6.610   7.598  0.1643 -0.2612 -0.2043
    5MOL   C543 2791   7.291   6.547   7.460 -0.3594  0.1203 -0.6395
    5MOL   C544 2792   7.114   6.580   0.023  0.1736  0.2201  0.0799
    5MOL   C545 2793   7.083   6.648   0.166 -0.0158  0.1970 -0.4231
    5MOL   H546 2794   7.368   6.671   0.500 -0.4393 -1.2785  0.9138
    5MOL   H547 2795   7.261   6.761   0.601 -3.4749  0.5776  0.1610
    5MOL   H548 2796   7.071   6.702   0.426  0.8446 -1.8040  2.5805
    5MOL   H549 2797   7.111   6.890   0.329 -1.7271 -2.0705  1.2129
    5MOL   H550 2798   7.187   6.536   0.311  2.6362 -0.1961  0.0416
    5MOL   H551 2799   7.355   6.763   0.204 -3.1336  0.5733  1.5324
    5MOL   H552 2800   7.417   6.625   0.281  1.2003 -1.4633 -1.6227
    5MOL   H553 2801   7.360   6.471   0.094 -0.6907 -0.1957 -2.1349
    5MOL   H554 2802   7.513   6.686   0.073  0.3541 -0.4608 -0.0849
    5MOL   H555 2803   7.257   6.718   7.583  1.2476 -0.0552  1.3580
    5MOL   H556 2804   7.204   6.558   7.395 -1.3613  1.9758  0.9540
    5MOL   H557 2805   7.380   6.600   7.426 -1.1869  0.2595 -2.6412
    5MOL   H558 2806   7.107   6.473   0.041  1.4744  0.2189  0.6152
    5MOL   H559 2807   7.038   6.608   7.579  0.3863 -2.1061 -1.0886
    5MOL   H560 2808   6.988   6.612   0.206  0.1534 -0.6826 -0.8020
    5MOL   H561 2809   7.058   6.752   0.145 -0.0793 -0.0843 -1.8089
    5MOL   H562 2810   7.318   6.444   7.482  3.0692  0.8953 -0.9629
    6MOL     O1 2811   3.348   6.735   1.217  0.6186 -0.3447  0.3985
    6MOL     C2 2812   3.436   6.804   1.297  0.6349  0.1456 -0.7438
    6MOL     C3 2813   3.553   6.860   1.221 -0.4542  0.0529  0.7195
    6MOL     O4 2814   3.612   6.750   1.164 -0.4100  0.0318 -0.1974
    6MOL     C5 2815   3.539   6.963   1.106 -0.0582 -0.6082 -0.1840
    6MOL     C6 2816   3.672   7.014   1.045  0.1616  0.1796  0.9703
    6MOL     C7 2817   3.645   7.110   0.923 -0.1679  0.3840  0.2057
    6MOL     O8 2818   3.758   7.189   0.902  0.4224 -0.2725 -0.3575
    6MOL     C9 2819   3.541   7.222   0.942  0.1821  0.4197  0.1543
    6MOL    C10 2820   3.494   7.274   0.811 -0.1182 -0.4305 -0.0325
    6MOL    C11 2821   3.416   7.158   1.022  0.9584 -0.3314  0.0147
    6MOL    C12 2822   3.449   7.081   1.147 -0.5337  0.2417  0.2357
    6MOL    H13 2823   3.446   6.741   1.385  0.9850 -0.7698 -1.4262
    6MOL    H14 2824   3.386   6.894   1.333 -0.3582  0.2096 -2.2618
    6MOL    H15 2825   3.629   6.895   1.291  0.6809 -0.7330 -0.1033
    6MOL    H16 2826   3.547   6.697   1.120 -0.0098 -2.7879  2.3996
    6MOL    H17 2827   3.475   6.902   1.042  0.7904 -0.5240 -1.1230
    6MOL    H18 2828   3.720   7.083   1.114 -1.7334  2.1423  0.3657
    6MOL    H19 2829   3.744   6.938   1.014 -0.7954  0.7465 -2.9059
    6MOL    H20 2830   3.614   7.054   0.835 -0.2528  0.4994  0.1621
    6MOL    H21 2831   3.828   7.128   0.884  0.0196 -0.8770  0.1229
    6MOL    H22 2832   3.587   7.295   1.009 -2.5134  0.3927  2.1323
    6MOL    H23 2833   3.578   7.291   0.744 -1.0452 -0.9189 -1.3405
    6MOL    H24 2834   3.442   7.193   0.760  0.7251 -0.2994 -1.1200
    6MOL    H25 2835   3.360   7.097   0.952  0.9564 -0.1474 -0.1465
    6MOL    H26 2836   3.350   7.242   1.042  2.6823  0.8282  0.9911
    6MOL    H27 2837   3.354   7.052   1.192 -0.8283  1.2352  0.2475
    6MOL    H28 2838   3.499   7.147   1.217 -2.0917  2.7258 -0.9452
    6MOL    H29 2839   3.330   6.651   1.254 -0.5944 -0.2686  0.0092
    6MOL    O30 2840   3.418   7.391   0.832 -0.0193 -0.3951  0.1135
    6MOL    C31 2841   3.393   7.469   0.710 -0.3608 -0.4141  0.4870
    6MOL    C32 2842   3.303   7.589   0.737 -0.0759 -0.0120 -0.0611
    6MOL    O33 2843   3.185   7.530   0.785  0.9901 -0.3771 -0.1890
    6MOL    C34 2844   3.358   0.066   0.839  0.3120  0.1613 -0.3485
    6MOL    C35 2845   3.249   0.168   0.892  0.5712  0.1335  0.5709
    6MOL    C36 2846   3.295   0.285   0.984  0.8548 -0.0550 -0.2368
    6MOL    O37 2847   3.193   0.378   1.001  0.3872 -0.6682 -0.2006
    6MOL    C38 2848   3.408   0.363   0.916  0.3945 -0.1057  0.2974
    6MOL    C39 2849   3.467   0.472   1.003 -0.6340 -0.1596  0.2035
    6MOL    C40 2850   3.510   0.265   0.866  0.3599 -0.2427 -0.4331
    6MOL    C41 2851   3.462   0.157   0.775  0.4425  0.6861 -0.0001
    6MOL    H42 2852   3.351   7.400   0.636 -2.9933  1.3726  0.2704
    6MOL    H43 2853   3.490   7.496   0.668 -0.4028  1.3137  1.4611
    6MOL    H44 2854   3.285   0.022   0.650  0.2320  0.0836 -0.0563
    6MOL    H45 2855   3.217   7.471   0.852 -0.7458  1.6956  2.5998
    6MOL    H46 2856   3.394   0.017   0.930  0.3105 -1.6634 -1.2930
    6MOL    H47 2857   3.197   0.214   0.809 -0.0430 -1.2168  0.1897
    6MOL    H48 2858   3.175   0.111   0.949 -0.6655  2.3492  1.2260
    6MOL    H49 2859   3.338   0.257   1.079 -0.1340  0.4162  0.3572
    6MOL    H50 2860   3.225   0.464   0.980  0.1610 -0.2555  1.0901
    6MOL    H51 2861   3.362   0.404   0.826 -1.9428 -0.1420  1.4591
    6MOL    H52 2862   3.495   0.420   1.095  3.5568 -1.7704 -1.8730
    6MOL    H53 2863   3.560   0.514   0.964 -0.4481 -0.7147  0.0465
    6MOL    H54 2864   3.555   0.224   0.957  0.8486 -2.4440 -1.6157
    6MOL    H55 2865   3.588   0.317   0.810  0.6420 -1.0502 -0.7956
    6MOL    H56 2866   3.546   0.092   0.749  0.0737  0.1058  0.2397
    6MOL    H57 2867   3.417   0.197   0.684  1.3590 -1.0153 -1.2361
    6MOL    O58 2868   3.367   0.576   1.025 -0.0593 -0.2020 -0.0091
    6MOL    C59 2869   3.420   0.690   1.097 -0.8086  0.3595  0.6797
    6MOL    C60 2870   3.297   0.758   1.157 -0.2014 -0.1090 -0.0202
    6MOL    O61 2871   3.312   0.772   1.295 -0.4493 -0.6629 -0.0495
    6MOL    C62 2872   3.261   0.895   1.095  0.8873  0.6135  0.1534
    6MOL    C63 2873   3.347   1.018   1.138 -0.7636 -0.5607 -0.6006
    6MOL    C64 2874   3.306   1.152   1.071 -0.2212  0.5783 -0.2092
    6MOL    O65 2875   3.384   1.249   1.129 -0.2790  0.2058 -0.0393
    6MOL    C66 2876   3.159   1.187   1.097 -0.7225 -0.0404 -0.3346
    6MOL    C67 2877   3.127   1.314   1.019  0.5330  0.2607  0.1024
    6MOL    C68 2878   3.069   1.068   1.054  0.0235 -0.0941  0.6305
    6MOL    C69 2879   3.112   0.937   1.118 -0.4233 -0.2176  0.0309
    6MOL    H70 2880   3.475   0.754   1.028 -2.6962  0.1601 -1.0536
    6MOL    H71 2881   3.497   0.657   1.168 -0.4244  0.3905  0.2821
    6MOL    H72 2882   3.207   0.700   1.137  0.3031 -1.0973  0.5565
    6MOL    H73 2883   3.270   0.699   1.338  0.2350 -1.0306 -0.0077
    6MOL    H74 2884   3.265   0.883   0.987 -0.8340 -0.9708  0.2307
    6MOL    H75 2885   3.344   1.017   1.247  1.7491  0.8906 -0.4714
    6MOL    H76 2886   3.452   0.995   1.121 -0.9021 -0.6071 -1.3946
    6MOL    H77 2887   3.326   1.151   0.963 -2.8339 -0.8170 -0.7387
    6MOL    H78 2888   3.343   1.334   1.135  3.3857  2.0515  0.9687
    6MOL    H79 2889   3.140   1.200   1.204  1.1579 -1.0474  0.1521
    6MOL    H80 2890   3.182   1.313   0.925 -0.0983 -1.0404 -0.2605
    6MOL    H81 2891   3.026   1.324   0.981  1.1025 -0.1930 -1.5850
    6MOL    H82 2892   3.073   1.064   0.945  0.0028  0.5416  0.6039
    6MOL    H83 2893   2.963   1.080   1.073 -0.0489 -1.5519  1.2258
    6MOL    H84 2894   3.046   0.860   1.078 -1.3202  0.1450  0.7984
    6MOL    H85 2895   3.100   0.928   1.226  1.2295  0.6838  0.3115
    6MOL    O86 2896   3.169   1.427   1.100 -0.6206 -0.3258  0.0128
    6MOL    C87 2897   3.153   1.552   1.044 -0.5237  0.0535 -0.0780
    6MOL    C88 2898   3.211   1.662   1.146  0.0893 -0.1758 -0.5096
    6MOL    O89 2899   3.240   1.771   1.063 -0.3535  0.9496 -0.1248
    6MOL    C90 2900   3.115   1.688   1.265 -0.1169  0.7233 -0.0396
    6MOL    C91 2901   2.970   1.719   1.234  1.0832 -0.3217 -0.8195
    6MOL    C92 2902   2.941   1.860   1.192 -0.2192  0.4823 -0.1134
    6MOL    O93 2903   3.003   1.890   1.065  0.2881 -0.3250  0.3078
    6MOL    C94 2904   2.995   1.963   1.298 -0.6707 -0.0333  0.2574
    6MOL    C95 2905   2.896   1.967   1.421  0.6195  0.8547  0.5168
    6MOL    C96 2906   3.143   1.935   1.345 -0.0047  0.9249  0.7443
    6MOL    C97 2907   3.163   1.784   1.376 -0.0678  0.7882  0.4254
    6MOL    H98 2908   3.046   1.560   1.027 -0.4823 -0.4699 -0.5987
    6MOL    H99 2909   3.212   1.561   0.953 -0.5597  2.9018  0.1414
    6MOL   H100 2910   3.307   1.635   1.191 -0.8052 -0.0262  1.5463
    6MOL   H101 2911   3.322   1.740   1.027 -0.0786 -0.8720  1.9146
    6MOL   H102 2912   3.107   1.587   1.304  1.7361  0.3646 -0.5905
    6MOL   H103 2913   2.921   1.655   1.160 -2.1622  2.4127 -1.1150
    6MOL   H104 2914   2.902   1.705   1.318  1.5310  3.0527  0.1516
    6MOL   H105 2915   2.834   1.878   1.184 -0.2775 -0.1521 -0.8500
    6MOL   H106 2916   3.096   1.873   1.068  0.6079  1.3577  0.5230
    6MOL   H107 2917   2.987   2.062   1.253  0.3076 -1.0799 -2.3329
    6MOL   H108 2918   2.794   1.990   1.394 -0.1263  0.8539  3.1468
    6MOL   H109 2919   2.909   1.874   1.478 -1.9454  0.3637  0.3267
    6MOL   H110 2920   3.173   1.988   1.436 -0.6695 -2.5030  3.0499
    6MOL   H111 2921   3.216   1.961   1.268 -1.5370 -2.9908 -2.2186
    6MOL   H112 2922   3.111   1.769   1.470 -0.9332 -0.4999 -0.2451
    6MOL   H113 2923   3.267   1.756   1.392 -0.7709 -3.0453 -1.1850
    6MOL   O114 2924   2.933   2.077   1.506 -0.2009 -0.1130  0.3487
    6MOL   C115 2925   2.888   2.064   1.637 -0.6616 -0.5455 -0.4981
    6MOL   C116 2926   2.919   2.195   1.704 -0.4346  0.1570  0.2047
    6MOL   O117 2927   2.845   2.287   1.638  0.2672  0.0901  0.1068
    6MOL   C118 2928   2.906   2.188   1.861  0.1075  0.9765  0.4862
    6MOL   C119 2929   2.752   2.163   1.907  0.1887  0.4291  0.3538
    6MOL   C120 2930   2.726   2.167   2.056 -0.1774 -0.0550  0.4084
    6MOL   O121 2931   2.586   2.179   2.060 -0.3493 -0.6153 -0.8787
    6MOL   C122 2932   2.779   2.291   2.121  0.2267 -0.5296  0.1756
    6MOL   C123 2933   2.755   2.292   2.273  0.2549  0.2846  0.2318
    6MOL   C124 2934   2.927   2.287   2.086  0.1068  0.3339 -0.2306
    6MOL   C125 2935   2.957   2.311   1.934 -0.1883 -0.1164  0.0892
    6MOL   H126 2936   2.951   1.984   1.675 -0.2415  0.3142  0.6490
    6MOL   H127 2937   2.783   2.034   1.636 -1.0136  0.6449 -0.1902
    6MOL   H128 2938   3.019   2.227   1.674 -0.5183 -1.1047 -1.4942
    6MOL   H129 2939   2.864   2.267   1.547 -0.7960 -3.1787  0.5340
    6MOL   H130 2940   2.955   2.105   1.911  0.0191  2.3757  3.0031
    6MOL   H131 2941   2.691   2.239   1.858 -2.1217  0.1894  2.7873
    6MOL   H132 2942   2.728   2.065   1.865 -2.5768  1.2285 -0.0650
    6MOL   H133 2943   2.764   2.076   2.102 -0.9653 -0.2738  0.6416
    6MOL   H134 2944   2.556   2.199   2.147 -2.3882  0.7110 -1.8529
    6MOL   H135 2945   2.735   2.383   2.082  0.7959 -0.1401  0.4518
    6MOL   H136 2946   2.650   2.315   2.288  0.3953  1.8676 -1.0446
    6MOL   H137 2947   2.774   2.194   2.315  0.4784  0.4726  0.5743
    6MOL   H138 2948   2.973   2.196   2.125  0.9295 -0.1273 -2.2491
    6MOL   H139 2949   2.979   2.371   2.133 -0.0256  0.8055 -0.9313
    6MOL   H140 2950   3.064   2.317   1.910  0.3110  0.0288  2.2767
    6MOL   H141 2951   2.906   2.399   1.896 -1.1851 -0.6199  0.2442
    6MOL   O142 2952   2.842   2.392   2.332 -0.1424 -0.1933 -0.3377
    6MOL   C143 2953   2.853   2.369   2.476 -0.2963  0.3974  0.4206
    6MOL   C144 2954   2.854   2.500   2.553  0.0451 -0.1552  0.3805
    6MOL   O145 2955   2.722   2.550   2.566  0.1904  0.5797 -0.3737
    6MOL   C146 2956   2.899   2.487   2.701 -0.0720 -0.0621 -0.8610
    6MOL   C147 2957   2.887   2.619   2.786 -0.6880  0.2347  0.3544
    6MOL   C148 2958   2.945   2.617   2.930 -1.0300  0.3085 -0.4934
    6MOL   O149 2959   2.932   2.748   2.985  0.7163 -0.0142 -0.2912
    6MOL   C150 2960   3.087   2.562   2.932 -0.3927  0.2779  0.2533
    6MOL   C151 2961   3.151   2.568   3.068 -1.1996  0.2193 -0.3562
    6MOL   C152 2962   3.093   2.427   2.855  0.4152 -0.4036 -0.1786
    6MOL   C153 2963   3.052   2.438   2.710  0.5283 -0.1806 -0.2445
    6MOL   H154 2964   2.945   2.311   2.484 -0.1125  0.9030  2.0710
    6MOL   H155 2965   2.768   2.315   2.517  1.9921 -2.0449  2.1538
    6MOL   H156 2966   2.911   2.580   2.504 -0.4361  0.9788  1.6398
    6MOL   H157 2967   2.695   2.589   2.484 -0.9972  0.5556 -0.0039
    6MOL   H158 2968   2.832   2.417   2.752  0.2501  0.5191  0.3979
    6MOL   H159 2969   2.940   2.697   2.731 -1.2785  0.6171  0.3334
    6MOL   H160 2970   2.784   2.655   2.787 -0.5400  0.7104 -0.5034
    6MOL   H161 2971   2.885   2.544   2.985 -0.3258 -0.0890 -0.2494
    6MOL   H162 2972   2.843   2.777   2.970  1.0291  0.6875 -0.8644
    6MOL   H163 2973   3.138   2.639   2.874  1.7189  0.1627  1.8961
    6MOL   H164 2974   3.169   2.670   3.103  1.3004  0.9956 -3.5229
    6MOL   H165 2975   3.104   2.514   3.149 -0.6147 -0.0318 -0.1779
    6MOL   H166 2976   3.031   2.348   2.898 -1.0136  1.1111  0.6193
    6MOL   H167 2977   3.193   2.386   2.864 -0.1767 -1.3689  2.6812
    6MOL   H168 2978   3.057   2.339   2.664  1.0511  0.2287 -1.0869
    6MOL   H169 2979   3.129   2.495   2.659  0.5843  0.2957  0.3692
    6MOL   O170 2980   3.283   2.516   3.044  0.2565  0.6976  0.7283
    6MOL   C171 2981   3.360   2.508   3.165 -0.0512 -0.2349 -0.2517
    6MOL   C172 2982   3.500   2.456   3.136  0.0778  0.5756 -0.4400
    6MOL   O173 2983   3.594   2.521   3.208  0.6910  0.8448 -0.1238
    6MOL   C174 2984   3.525   2.306   3.168 -0.2637 -0.5570  0.1582
    6MOL   C175 2985   3.437   2.215   3.087 -0.9136  0.0845 -0.2196
    6MOL   C176 2986   3.475   2.073   3.095  0.0460 -0.2831 -0.6680
    6MOL   O177 2987   3.392   1.997   3.008 -0.2169  0.8811 -0.1811
    6MOL   C178 2988   3.475   2.017   3.245  0.7133 -1.2798  0.5298
    6MOL   C179 2989   3.527   1.876   3.264  0.4651  0.6329  0.0705
    6MOL   C180 2990   3.541   2.114   3.345 -0.2414 -0.0514 -0.2949
    6MOL   C181 2991   3.524   2.265   3.318 -0.2671 -0.0395 -0.5732
    6MOL   H182 2992   3.315   2.454   3.248  0.6214  1.0403  0.9553
    6MOL   H183 2993   3.357   2.613   3.196  1.3814  0.3851 -2.1217
    6MOL   H184 2994   3.523   2.474   3.032 -1.1484  1.6354 -0.5473
    6MOL   H185 2995   3.575   2.612   3.194  0.0891  0.6932 -0.3318
    6MOL   H186 2996   3.630   2.291   3.142  0.3762  3.6945 -0.0674
    6MOL   H187 2997   3.337   2.210   3.131 -0.4233  0.5786  0.9664
    6MOL   H188 2998   3.443   2.247   2.983  0.8929 -1.1440 -0.5090
    6MOL   H189 2999   3.577   2.068   3.057 -0.6974 -2.2048 -2.5121
    6MOL   H190 3000   3.368   2.051   2.934  1.4258  0.6965 -0.8692
    6MOL   H191 3001   3.369   2.006   3.264  0.5916  1.3518  1.5616
    6MOL   H192 3002   3.458   1.816   3.205  1.0675 -1.6783  1.6517
    6MOL   H193 3003   3.631   1.886   3.233 -0.0763  0.6381 -1.8314
    6MOL   H194 3004   3.650   2.102   3.346 -0.0172  1.7921 -0.6879
    6MOL   H195 3005   3.510   2.087   3.446  0.3811 -2.5188 -0.7232
    6MOL   H196 3006   3.597   2.308   3.387 -0.5372 -2.5937  1.3535
    6MOL   H197 3007   3.429   2.300   3.357  0.1844 -0.9342  1.4053
    6MOL   O198 3008   3.528   1.839   3.398 -0.0054  0.2463  0.2523
    6MOL   C199 3009   3.564   1.701   3.431 -0.5593 -0.2521 -0.2341
    6MOL   C200 3010   3.602   1.701   3.577 -0.4256 -0.0721 -0.4037
    6MOL   O201 3011   3.475   1.691   3.646  0.2588  0.3113 -0.1950
    6MOL   C202 3012   3.674   1.569   3.642 -0.1249 -0.0848 -0.5891
    6MOL   C203 3013   3.695   1.572   3.791 -0.1512 -0.0318 -0.1475
    6MOL   C204 3014   3.784   1.466   3.845 -0.0189 -0.2256 -0.2035
    6MOL   O205 3015   3.811   1.488   3.982  0.0940  0.4793  0.4137
    6MOL   C206 3016   3.920   1.452   3.766 -0.0379 -0.6947 -0.1871
    6MOL   C207 3017   4.019   1.341   3.826 -0.1775  0.3818  0.0416
    6MOL   C208 3018   3.881   1.424   3.621 -0.3747 -0.4718  0.0060
    6MOL   C209 3019   3.795   1.540   3.563  0.3127 -0.1969  0.5461
    6MOL   H210 3020   3.638   1.685   3.352 -1.5569  0.3465 -1.3168
    6MOL   H211 3021   3.479   1.635   3.416 -2.1188  1.7333 -0.2319
    6MOL   H212 3022   3.657   1.790   3.608  0.3538 -1.1207  1.2962
    6MOL   H213 3023   3.433   1.772   3.621 -2.7742 -1.4092 -0.9701
    6MOL   H214 3024   3.609   1.482   3.627  0.0147 -0.3393  0.2509
    6MOL   H215 3025   3.743   1.662   3.830 -2.5090  1.2901 -0.2270
    6MOL   H216 3026   3.594   1.560   3.830  0.4629  0.0611  1.4954
    6MOL   H217 3027   3.734   1.371   3.826 -0.2934  0.0777 -1.0180
    6MOL   H218 3028   3.784   1.402   4.010  0.1369 -0.6765 -2.8510
    6MOL   H219 3029   3.970   1.549   3.767 -1.4954  0.0798  0.4513
    6MOL   H220 3030   4.021   1.356   3.934  0.4200  4.6049 -0.4827
    6MOL   H221 3031   4.004   1.236   3.799  0.3714  0.3524 -0.1497
    6MOL   H222 3032   3.818   1.335   3.615  0.9531 -1.3901 -0.6418
    6MOL   H223 3033   3.971   1.421   3.559  0.9666 -0.4736  1.9013
    6MOL   H224 3034   3.768   1.515   3.460 -2.4540  0.9051  0.9647
    6MOL   H225 3035   3.854   1.632   3.558 -3.5688  2.2636 -2.0688
    6MOL   O226 3036   4.152   1.364   3.784 -0.0131  0.1977  0.8597
    6MOL   C227 3037   4.254   1.320   3.863 -0.6800  1.4623  0.0619
    6MOL   C228 3038   4.290   1.402   3.988 -0.4250  0.1485  0.1521
    6MOL   O229 3039   4.405   1.342   4.052 -0.2150  0.0573  0.5181
    6MOL   C230 3040   4.299   1.550   3.977 -0.3480  0.1064 -0.1169
    6MOL   C231 3041   4.443   1.595   3.938 -0.0658 -0.7915  0.5891
    6MOL   C232 3042   4.451   1.749   3.933 -0.1813 -0.6779  0.1264
    6MOL   O233 3043   4.578   1.789   3.898 -0.4889  0.2049  0.0119
    6MOL   C234 3044   4.421   1.799   4.080 -0.6680 -0.2424  0.0449
    6MOL   C235 3045   4.415   1.953   4.087 -0.4031  0.1039  0.2175
    6MOL   C236 3046   4.279   1.750   4.126  0.3480  0.7749 -0.8735
    6MOL   C237 3047   4.261   1.602   4.119 -0.0474  0.0464 -0.0994
    6MOL   H238 3048   4.345   1.309   3.804 -1.4580 -0.8332 -0.7735
    6MOL   H239 3049   4.224   1.219   3.893 -0.6996  1.0845 -1.1803
    6MOL   H240 3050   4.209   1.373   4.055 -1.7398 -0.3964 -1.6355
    6MOL   H241 3051   4.460   1.310   3.982 -1.0871 -0.1281 -0.0962
    6MOL   H242 3052   4.225   1.582   3.903  0.5071  2.6950  0.0642
    6MOL   H243 3053   4.505   1.551   4.016  1.3547 -3.0364 -1.7322
    6MOL   H244 3054   4.470   1.554   3.841  0.6127 -1.0035  0.8615
    6MOL   H245 3055   4.389   1.796   3.857  0.5382  0.2454  0.1021
    6MOL   H246 3056   4.607   1.748   3.819 -0.9169  0.4916 -0.2945
    6MOL   H247 3057   4.507   1.783   4.144 -0.6890  1.0603  0.4231
    6MOL   H248 3058   4.518   1.974   4.059 -0.4075 -0.0299  0.0980
    6MOL   H249 3059   4.354   1.997   4.007  1.7066  1.3052 -0.7737
    6MOL   H250 3060   4.191   1.779   4.069 -0.7767  0.0787  0.4733
    6MOL   H251 3061   4.268   1.791   4.226  2.3277  2.6528 -1.3752
    6MOL   H252 3062   4.157   1.578   4.141 -0.1123 -0.2406 -0.7225
    6MOL   H253 3063   4.319   1.560   4.201 -0.2699 -1.9710 -0.9542
    6MOL   O254 3064   4.400   2.008   4.218 -0.4875  0.4449  0.3064
    6MOL   C255 3065   4.320   2.126   4.224  0.7199  0.1286  0.1723
    6MOL   C256 3066   4.345   2.199   4.359 -0.2600  0.0068 -0.9166
    6MOL   O257 3067   4.480   2.255   4.349 -0.5296 -0.5062  0.0149
    6MOL   C258 3068   4.245   2.307   4.403 -0.4520  0.1627  0.0590
    6MOL   C259 3069   4.228   2.423   4.299 -0.1210 -0.5682 -0.3273
    6MOL   C260 3070   4.133   2.532   4.359  1.0459 -0.0158 -0.0284
    6MOL   O261 3071   4.124   2.631   4.260 -0.3342 -0.2170  0.3229
    6MOL   C262 3072   4.181   2.587   4.497 -0.0147 -0.1643 -0.0941
    6MOL   C263 3073   4.105   2.704   4.567 -0.3595 -0.0897  0.4181
    6MOL   C264 3074   4.197   2.479   4.600 -0.2676 -0.4710  0.0703
    6MOL   C265 3075   4.280   2.355   4.547  0.0855  0.4297 -1.6164
    6MOL   H266 3076   4.217   2.096   4.206  1.4449 -2.4485  0.1049
    6MOL   H267 3077   4.347   2.194   4.142  0.8140  0.8659  0.8058
    6MOL   H268 3078   4.343   2.118   4.432  0.9568  1.5429  0.8861
    6MOL   H269 3079   4.547   2.188   4.359 -2.4378 -2.2214  1.5544
    6MOL   H270 3080   4.151   2.252   4.408 -0.2863 -0.0572  0.7735
    6MOL   H271 3081   4.329   2.462   4.284 -0.3557 -0.0371 -0.5258
    6MOL   H272 3082   4.186   2.388   4.204 -1.5000 -2.0391  0.8009
    6MOL   H273 3083   4.037   2.482   4.373  0.4707  0.9473 -0.5439
    6MOL   H274 3084   4.138   2.717   4.297  0.3741  0.3436 -1.2201
    6MOL   H275 3085   4.275   2.635   4.471  0.4962  0.2697  2.4369
    6MOL   H276 3086   4.170   2.730   4.651  0.9124 -1.0800 -0.2487
    6MOL   H277 3087   4.101   2.787   4.497  0.3263  0.8599  1.4974
    6MOL   H278 3088   4.095   2.443   4.614 -0.6918  0.6954  0.0088
    6MOL   H279 3089   4.229   2.518   4.697 -1.0204 -0.1490  0.1942
    6MOL   H280 3090   4.279   2.272   4.617 -0.0512  1.2697 -0.6055
    6MOL   H281 3091   4.384   2.384   4.534  0.6818 -1.8396 -2.0878
    6MOL   O282 3092   3.975   2.675   4.612 -0.3631 -0.1161 -0.2377
    6MOL   C283 3093   3.900   2.793   4.642  0.3292  0.0445 -1.1486
    6MOL   C284 3094   3.762   2.744   4.674  0.4196 -0.2281 -0.4814
    6MOL   O285 3095   3.729   2.683   4.550 -0.0517  0.0317  0.1723
    6MOL   C286 3096   3.760   2.644   4.795 -0.7337 -0.7981  0.8542
    6MOL   C287 3097   3.676   2.520   4.778 -0.5537  0.4869 -0.0474
    6MOL   C288 3098   3.526   2.547   4.798 -0.2687 -0.4893 -0.5197
    6MOL   O289 3099   3.471   2.636   4.701 -0.3070 -0.1888  0.8532
    6MOL   C290 3100   3.496   2.615   4.937  0.1374 -0.1077  0.2723
    6MOL   C291 3101   3.502   2.515   5.056 -0.6292  0.3233 -0.0155
    6MOL   C292 3102   3.580   2.746   4.948 -0.5935 -0.2625 -0.1616
    6MOL   C293 3103   3.726   2.713   4.934 -0.1769  0.2886  0.0809
    6MOL   H294 3104   3.900   2.862   4.558  0.2678 -0.5198 -1.6092
    6MOL   H295 3105   3.948   2.836   4.730 -0.0302 -1.9757  0.0809
    6MOL   H296 3106   3.699   2.832   4.691 -0.9340 -1.5902  1.8799
    6MOL   H297 3107   3.808   2.633   4.536  0.8462  0.4436  3.2790
    6MOL   H298 3108   3.862   2.611   4.811 -0.4005 -1.4843 -2.3114
    6MOL   H299 3109   3.690   2.465   4.685  0.5651 -0.1911  0.5165
    6MOL   H300 3110   3.700   2.444   4.852 -1.7933 -0.9905 -1.1174
    6MOL   H301 3111   3.469   2.457   4.780 -1.1642 -0.2252  1.0041
    6MOL   H302 3112   3.499   2.613   4.614 -2.6664  0.3645 -0.0825
    6MOL   H303 3113   3.397   2.659   4.928  0.2688  0.1887  0.2705
    6MOL   H304 3114   3.439   2.429   5.032  2.3774 -1.3624 -2.2011
    6MOL   H305 3115   3.605   2.482   5.071 -0.9756 -0.9473 -0.3552
    6MOL   H306 3116   3.565   2.783   5.050 -2.7258  0.6225 -0.7695
    6MOL   H307 3117   3.554   2.826   4.879  0.7099 -1.2370 -1.7895
    6MOL   H308 3118   3.739   2.649   5.021 -1.9310  1.6907  1.4184
    6MOL   H309 3119   3.803   2.790   4.946 -0.4621 -0.0244  4.5470
    6MOL   O310 3120   3.467   2.580   5.175 -0.0893 -0.2791  0.2017
    6MOL   C311 3121   3.331   2.629   5.180 -0.7474 -0.4448  0.4996
    6MOL   C312 3122   3.280   2.623   5.321 -0.5844  0.2772 -0.1556
    6MOL   O313 3123   3.176   2.722   5.335  0.5767 -0.3953  0.1298
    6MOL   C314 3124   3.224   2.481   5.352 -0.5757  0.1104 -0.6300
    6MOL   C315 3125   3.178   2.476   5.493  0.0254  0.4586  0.5933
    6MOL   C316 3126   3.135   2.337   5.545 -0.9991  0.7027  0.3379
    6MOL   O317 3127   3.094   2.358   5.679 -0.4489  0.0395 -0.1171
    6MOL   C318 3128   3.248   2.238   5.530 -0.4843 -0.5605  0.3324
    6MOL   C319 3129   3.196   2.098   5.582 -0.0630  0.6526  0.0848
    6MOL   C320 3130   3.287   2.234   5.374  0.7293  0.0514  0.1209
    6MOL   C321 3131   3.333   2.373   5.325 -0.2287  0.6339 -0.3931
    6MOL   H322 3132   3.267   2.569   5.114  1.7256 -1.0182 -1.4578
    6MOL   H323 3133   3.334   2.730   5.137  2.1006 -0.8680 -0.3960
    6MOL   H324 3134   3.361   2.658   5.385  0.1030  0.3375 -1.0382
    6MOL   H325 3135   3.202   2.794   5.280  1.6853 -0.9121 -0.0386
    6MOL   H326 3136   3.146   2.461   5.278 -0.8136  0.1030 -0.3765
    6MOL   H327 3137   3.255   2.525   5.552  0.3745  0.6407 -0.0169
    6MOL   H328 3138   3.092   2.541   5.509  0.0636  0.4138  0.9780
    6MOL   H329 3139   3.051   2.301   5.485 -0.0785 -1.1869  0.1581
    6MOL   H330 3140   3.173   2.376   5.728  0.4920 -1.7813 -0.9188
    6MOL   H331 3141   3.339   2.271   5.581 -1.4214  0.1476  1.5516
    6MOL   H332 3142   3.149   2.108   5.681  0.3117  0.4220  0.2867
    6MOL   H333 3143   3.114   2.066   5.518  2.4212 -2.5137 -1.6059
    6MOL   H334 3144   3.210   2.200   5.305  1.8419  2.1283 -2.2556
    6MOL   H335 3145   3.369   2.164   5.362  0.4797 -0.8897  3.3397
    6MOL   H336 3146   3.345   2.363   5.217  0.2074  1.5755 -0.4390
    6MOL   H337 3147   3.428   2.406   5.368  0.6430 -1.2164 -0.8257
    6MOL   O338 3148   3.300   1.997   5.586 -0.2449  0.3256  0.3305
    6MOL   C339 3149   3.416   2.039   5.656 -0.2775  0.1932  0.0272
    6MOL   C340 3150   3.493   1.938   5.732 -0.5550  0.0241  0.0948
    6MOL   O341 3151   3.433   1.906   5.856 -0.2462 -0.9163 -0.2492
    6MOL   C342 3152   3.531   1.813   5.653 -1.1441  0.2033  0.4991
    6MOL   C343 3153   3.626   1.726   5.737  0.6679 -0.6518 -0.2900
    6MOL   C344 3154   3.691   1.606   5.671  0.7050 -0.2458  0.1028
    6MOL   O345 3155   3.791   1.554   5.755 -0.7543 -0.4833 -0.4042
    6MOL   C346 3156   3.745   1.659   5.537  0.1477  0.3110 -0.5226
    6MOL   C347 3157   3.809   1.551   5.451  0.3567 -0.5051 -0.7377
    6MOL   C348 3158   3.635   1.722   5.443  0.5959  0.2563  0.5183
    6MOL   C349 3159   3.584   1.853   5.516 -0.6874  0.4520  0.1906
    6MOL   H350 3160   3.379   2.110   5.730 -1.6860  0.5876 -1.0211
    6MOL   H351 3161   3.489   2.091   5.594 -0.0399  1.4430  1.3363
    6MOL   H352 3162   3.583   1.994   5.760 -1.7091  0.2156  3.7553
    6MOL   H353 3163   3.363   1.846   5.838 -2.1872  1.0008  0.7217
    6MOL   H354 3164   3.437   1.760   5.642 -0.3641 -0.7252 -1.9426
    6MOL   H355 3165   3.708   1.783   5.780  0.1812  0.3470 -0.6876
    6MOL   H356 3166   3.566   1.675   5.813  0.4486 -2.9070 -1.9192
    6MOL   H357 3167   3.615   1.530   5.652  0.2209  0.3480 -0.3451
    6MOL   H358 3168   3.827   1.624   5.808 -0.0478 -2.4440  1.7895
    6MOL   H359 3169   3.824   1.730   5.561  0.2118 -0.2980  1.1606
    6MOL   H360 3170   3.859   1.605   5.370 -0.3345 -1.5298 -1.8621
    6MOL   H361 3171   3.888   1.502   5.507 -1.2719 -1.6479  0.6017
    6MOL   H362 3172   3.559   1.645   5.433 -0.6856  1.4018  1.3440
    6MOL   H363 3173   3.669   1.743   5.342 -0.6318 -0.2601 -0.0061
    6MOL   H364 3174   3.497   1.887   5.461 -2.0918 -3.2365  0.0040
    6MOL   H365 3175   3.666   1.925   5.521  1.7649 -1.7617 -4.3201
    6MOL   O366 3176   3.720   1.457   5.397 -0.1426 -0.0813  0.4142
    6MOL   C367 3177   3.767   1.371   5.295  0.5101 -0.0907 -0.3266
    6MOL   C368 3178   3.703   1.236   5.322  0.5755  1.0363 -0.5346
    6MOL   O369 3179   3.574   1.238   5.259  0.9806 -0.3898  0.5295
    6MOL   C370 3180   3.787   1.116   5.284 -0.2700  0.2906  0.4327
    6MOL   C371 3181   3.799   1.110   5.137 -0.2237 -0.0880 -0.1776
    6MOL   C372 3182   3.873   0.987   5.099  0.7101  0.1662  0.3533
    6MOL   O373 3183   3.903   0.995   4.957  0.3489  0.4965  0.5133
    6MOL   C374 3184   3.808   0.851   5.136  0.2336  0.5603 -0.8407
    6MOL   C375 3185   3.892   0.727   5.088  0.5234  0.1104  0.2063
    6MOL   C376 3186   3.780   0.857   5.285  0.6093 -0.0886  0.5178
    6MOL   C377 3187   3.716   0.989   5.327  0.9735  0.0370 -0.0779
    6MOL   H378 3188   3.875   1.360   5.304  0.8392  1.6228 -1.9120
    6MOL   H379 3189   3.750   1.401   5.191  0.3646 -0.8698 -0.5381
    6MOL   H380 3190   3.692   1.236   5.431 -0.3829  1.0146 -0.6208
    6MOL   H381 3191   3.534   1.316   5.294 -0.9420 -1.1349  0.0722
    6MOL   H382 3192   3.880   1.115   5.341  0.5885 -2.8220 -0.9165
    6MOL   H383 3193   3.703   1.128   5.088  0.1500 -0.0056 -0.8758
    6MOL   H384 3194   3.862   1.194   5.107  1.9388 -1.9798 -1.0812
    6MOL   H385 3195   3.966   0.998   5.156 -0.0323  1.6217  1.3163
    6MOL   H386 3196   3.950   1.072   4.930 -1.4214  0.6674 -2.2082
    6MOL   H387 3197   3.709   0.854   5.089  0.4161  2.1339 -1.1520
    6MOL   H388 3198   3.981   0.750   5.029  0.4566 -1.7689 -0.6494
    6MOL   H389 3199   3.921   0.667   5.173 -0.9637  0.7044  1.1563
    6MOL   H390 3200   3.879   0.848   5.331  1.6307  1.1717 -1.3800
    6MOL   H391 3201   3.719   0.775   5.323  0.4455  0.2999  1.0848
    6MOL   H392 3202   3.715   0.978   5.435  1.6816 -1.7190 -0.2350
    6MOL   H393 3203   3.614   0.987   5.289  0.5308 -1.9707  1.1245
    6MOL   O394 3204   3.815   0.632   5.019 -0.3170  0.7867 -0.0051
    6MOL   C395 3205   3.822   0.655   4.872 -0.2074 -0.1725 -0.5337
    6MOL   C396 3206   3.735   0.568   4.784  0.7293  0.4179 -0.0030
    6MOL   O397 3207   3.612   0.555   4.867 -0.3754  0.3201  0.0044
    6MOL   C398 3208   3.697   0.644   4.650  0.1094  0.2964  0.8478
    6MOL   C399 3209   3.606   0.547   4.574 -0.6892 -0.3673  0.1249
    6MOL   C400 3210   3.550   0.625   4.448  0.3250 -0.3875  1.0052
    6MOL   O401 3211   3.454   0.539   4.379 -0.4594 -0.4002  0.2562
    6MOL   C402 3212   3.668   0.656   4.355 -0.0097  0.6817 -0.2905
    6MOL   C403 3213   3.610   0.735   4.241  0.4613  0.1441  0.4063
    6MOL   C404 3214   3.779   0.738   4.432  0.2601 -0.4694 -0.3234
    6MOL   C405 3215   3.825   0.681   4.565  0.1472  0.6107  0.2754
    6MOL   H406 3216   3.927   0.655   4.842 -0.7001 -0.3180 -2.2897
    6MOL   H407 3217   3.787   0.757   4.862 -3.0867 -0.9837  0.7089
    6MOL   H408 3218   3.787   0.472   4.776  0.6162  0.3008  0.6543
    6MOL   H409 3219   3.641   0.574   4.954  2.3649  0.2765 -0.8589
    6MOL   H410 3220   3.642   0.736   4.667 -1.1558 -0.2339 -0.2871
    6MOL   H411 3221   3.650   0.451   4.548  0.2037 -0.3191  1.3918
    6MOL   H412 3222   3.520   0.522   4.635  0.1279 -0.7044  1.1679
    6MOL   H413 3223   3.515   0.723   4.482  0.7427 -1.1201  3.6504
    6MOL   H414 3224   3.494   0.463   4.341 -0.9769  0.1980 -1.5322
    6MOL   H415 3225   3.721   0.570   4.315 -0.3247 -0.1003  0.9577
    6MOL   H416 3226   3.529   0.678   4.195 -1.4060  2.6329  0.5081
    6MOL   H417 3227   3.554   0.823   4.274  0.7796  0.5699 -0.1830
    6MOL   H418 3228   3.730   0.833   4.454  0.2236 -0.7221  0.7236
    6MOL   H419 3229   3.866   0.771   4.376  0.8509 -0.6728  0.4609
    6MOL   H420 3230   3.889   0.757   4.611 -1.3947  0.8929  1.9985
    6MOL   H421 3231   3.882   0.590   4.543  0.1837  0.4321  1.1015
    6MOL   O422 3232   3.698   0.766   4.136  0.1546 -0.8159 -0.2748
    6MOL   C423 3233   3.632   0.830   4.031  0.1736  0.1112  0.1091
    6MOL   C424 3234   3.735   0.867   3.928  1.0449  0.2581 -0.6957
    6MOL   O425 3235   3.812   0.745   3.912 -0.6626  0.3963  0.9887
    6MOL   C426 3236   3.675   0.912   3.793 -0.3373  0.1724 -0.7477
    6MOL   C427 3237   3.787   0.966   3.702 -0.2048  0.1716  0.7396
    6MOL   C428 3238   3.732   1.018   3.564 -0.2673 -0.5972 -0.8870
    6MOL   O429 3239   3.836   1.073   3.500 -0.3146 -0.0284  0.8261
    6MOL   C430 3240   3.607   1.109   3.566 -0.1814 -0.0908 -0.0151
    6MOL   C431 3241   3.526   1.116   3.432 -0.1491  0.2608 -0.3366
    6MOL   C432 3242   3.507   1.061   3.676  0.4328 -0.9991  0.2251
    6MOL   C433 3243   3.575   1.032   3.810  0.3205  0.3230  0.0607
    6MOL   H434 3244   3.574   0.918   4.058 -0.5583 -0.4755  0.4731
    6MOL   H435 3245   3.560   0.757   3.995 -0.1618  0.1019  0.7798
    6MOL   H436 3246   3.801   0.945   3.967  0.2058  1.1975 -1.1233
    6MOL   H437 3247   3.848   0.723   3.997 -0.2183  1.2962  1.0444
    6MOL   H438 3248   3.637   0.827   3.736  0.7860 -1.3073  0.6684
    6MOL   H439 3249   3.847   1.032   3.764  0.2656  1.1334 -0.7187
    6MOL   H440 3250   3.857   0.886   3.676 -1.1929 -0.3700 -0.2917
    6MOL   H441 3251   3.701   0.933   3.503  0.9577 -1.2914 -0.5368
    6MOL   H442 3252   3.865   1.028   3.423 -0.0470  2.0715 -0.3396
    6MOL   H443 3253   3.633   1.213   3.588  0.6919 -0.2602 -0.2182
    6MOL   H444 3254   3.442   1.185   3.445 -0.2830 -0.1820  1.2544
    6MOL   H445 3255   3.586   1.158   3.351 -0.8672  0.2619 -0.8806
    6MOL   H446 3256   3.441   0.979   3.647 -0.5355 -0.1995  0.1177
    6MOL   H447 3257   3.442   1.148   3.689 -1.2275 -2.3109  0.8771
    6MOL   H448 3258   3.500   1.011   3.887  0.3443  0.3052  0.0788
    6MOL   H449 3259   3.629   1.121   3.842 -0.9242  1.6865 -1.5220
    6MOL   O450 3260   3.487   0.988   3.387 -0.3705  0.6053  0.1651
    6MOL   C451 3261   3.389   0.981   3.288 -0.2558  1.4540 -0.0497
    6MOL   C452 3262   3.374   0.834   3.246 -0.3639  1.0593  0.5341
    6MOL   O453 3263   3.314   0.773   3.357 -0.2087 -0.3065  0.3943
    6MOL   C454 3264   3.299   0.802   3.112  0.1346  0.0850  0.4751
    6MOL   C455 3265   3.152   0.853   3.124 -0.2218  0.4919  0.5020
    6MOL   C456 3266   3.085   0.827   2.989  0.1490  0.8128  0.3225
    6MOL   O457 3267   2.961   0.889   3.000 -0.3488  0.1008  0.7457
    6MOL   C458 3268   3.082   0.677   2.955  0.0957  0.1401 -0.4172
    6MOL   C459 3269   3.005   0.643   2.828 -0.2649  0.3835  0.8083
    6MOL   C460 3270   3.230   0.626   2.955  0.3374  0.0147 -1.0852
    6MOL   C461 3271   3.298   0.653   3.084  0.1852 -0.5387  0.7315
    6MOL   H462 3272   3.435   1.021   3.197 -0.4070  2.0172  0.1209
    6MOL   H463 3273   3.301   1.037   3.320  0.2820  1.8091  0.8191
    6MOL   H464 3274   3.470   0.785   3.227 -1.2747 -0.2387 -0.8466
    6MOL   H465 3275   3.372   0.800   3.426  0.4836 -0.3655 -0.1487
    6MOL   H466 3276   3.353   0.863   3.040  2.4155 -1.3436  0.9397
    6MOL   H467 3277   3.110   0.795   3.205 -0.4223  0.5152  0.4151
    6MOL   H468 3278   3.151   0.960   3.144  1.0377  0.1514  2.4747
    6MOL   H469 3279   3.134   0.882   2.908 -3.2807 -0.0539 -2.4382
    6MOL   H470 3280   2.918   0.841   3.069 -1.1302 -1.4820 -0.7730
    6MOL   H471 3281   3.041   0.620   3.039 -0.5025 -0.4147 -1.0802
    6MOL   H472 3282   2.945   0.553   2.839 -1.4815  0.8967 -1.3410
    6MOL   H473 3283   2.931   0.720   2.810 -0.8188 -0.5804 -1.1824
    6MOL   H474 3284   3.293   0.668   2.876  2.0047 -1.3195 -0.4996
    6MOL   H475 3285   3.233   0.519   2.933 -0.4469 -0.0422 -0.9472
    6MOL   H476 3286   3.402   0.620   3.081  0.5461  0.5956  0.2903
    6MOL   H477 3287   3.260   0.603   3.172 -0.1191  1.0928  1.5437
    6MOL   O478 3288   3.091   0.626   2.721  0.0166 -0.3970 -0.4904
    6MOL   C479 3289   3.012   0.573   2.613  0.2313 -0.1363  0.3989
    6MOL   C480 3290   3.106   0.525   2.503  0.5393  0.5227 -0.3564
    6MOL   O481 3291   3.191   0.446   2.578  0.0227  0.8606  0.7690
    6MOL   C482 3292   3.043   0.466   2.377  0.6035 -0.9311 -0.2651
    6MOL   C483 3293   2.984   0.332   2.399 -0.3696  0.5143  0.1923
    6MOL   C484 3294   2.917   0.276   2.265 -0.3113 -0.3503 -0.1491
    6MOL   O485 3295   2.858   0.150   2.281  1.0101  0.2762 -0.0881
    6MOL   C486 3296   3.016   0.273   2.145 -0.1626 -1.1605  0.4152
    6MOL   C487 3297   2.943   0.239   2.017  0.4804  0.4456  0.2274
    6MOL   C488 3298   3.089   0.407   2.127 -0.1157 -0.3501 -0.1553
    6MOL   C489 3299   3.145   0.450   2.260  0.3513 -0.6068 -0.7762
    6MOL   H490 3300   2.962   0.660   2.569  1.2086 -0.2982 -1.0855
    6MOL   H491 3301   2.932   0.503   2.636 -0.2703  0.6962  1.2335
    6MOL   H492 3302   3.167   0.609   2.468  0.9676 -0.5713 -2.2868
    6MOL   H493 3303   3.217   0.502   2.650 -0.4157  1.0488  0.7818
    6MOL   H494 3304   2.959   0.529   2.349  0.6708 -0.5470  0.3811
    6MOL   H495 3305   3.066   0.266   2.430 -0.2880 -0.3091 -1.7010
    6MOL   H496 3306   2.912   0.336   2.480  0.8629 -1.3385  1.4208
    6MOL   H497 3307   2.840   0.339   2.220 -0.3418 -1.0956 -1.1614
    6MOL   H498 3308   2.922   0.080   2.279  0.4750 -0.2214 -3.1855
    6MOL   H499 3309   3.096   0.200   2.157  1.5336  0.5244 -0.3618
    6MOL   H500 3310   2.876   0.153   2.018  0.2628  0.5902 -1.0223
    6MOL   H501 3311   2.873   0.321   2.002 -0.1192 -0.1548 -0.3274
    6MOL   H502 3312   3.024   0.483   2.083  1.6188  0.5426 -1.2473
    6MOL   H503 3313   3.175   0.389   2.063 -0.0875 -2.1285  0.3540
    6MOL   H504 3314   3.207   0.539   2.254 -1.1248  0.4655 -0.2864
    6MOL   H505 3315   3.218   0.371   2.279  1.8892  1.3246  1.5776
    6MOL   O506 3316   3.010   0.250   1.893  0.3634 -0.1404 -0.4152
    6MOL   C507 3317   3.017   0.123   1.821 -0.1011 -0.1766 -0.3480
    6MOL   C508 3318   2.883   0.100   1.748 -0.1318 -0.0625  0.1058
    6MOL   O509 3319   2.885   0.216   1.662 -0.0478  0.5313  0.5109
    6MOL   C510 3320   2.859   7.606   1.662  0.0858 -0.0448 -0.2162
    6MOL   C511 3321   2.720   7.611   1.593  0.0558 -0.2549  0.1098
    6MOL   C512 3322   2.699   7.501   1.496  0.8465  0.0287  0.1876
    6MOL   O513 3323   2.564   7.514   1.459 -0.5433 -0.0512 -0.4463
    6MOL   C514 3324   2.734   7.360   1.559  0.2108  0.0126 -0.4297
    6MOL   C515 3325   2.730   7.258   1.437 -0.4954 -0.4307  0.2849
    6MOL   C516 3326   2.867   7.357   1.636 -0.1801 -0.6701  0.0345
    6MOL   C517 3327   2.868   7.472   1.733  0.1974  0.2123 -0.2577
    6MOL   H518 3328   3.045   0.033   1.875  1.2194  0.1170 -0.5300
    6MOL   H519 3329   3.098   0.132   1.748 -0.2124  1.3175 -0.3134
    6MOL   H520 3330   2.805   0.103   1.824 -0.2554  2.9786 -0.0485
    6MOL   H521 3331   2.925   0.284   1.715  0.0405  0.7947  0.1087
    6MOL   H522 3332   2.938   7.612   1.587 -0.4129 -0.2304 -0.7610
    6MOL   H523 3333   2.654   7.622   1.679  0.9928 -1.0465  0.9386
    6MOL   H524 3334   2.709   0.067   1.527  1.8779  0.9233  1.3081
    6MOL   H525 3335   2.756   7.513   1.404  0.7343 -1.7186 -0.1252
    6MOL   H526 3336   2.575   7.534   1.367  0.8528  1.1462 -0.0452
    6MOL   H527 3337   2.657   7.331   1.630  0.1040 -1.6468 -1.1932
    6MOL   H528 3338   2.643   7.261   1.371 -0.0301 -0.9888 -0.3672
    6MOL   H529 3339   2.810   7.288   1.370 -1.1730  1.8052  0.4307
    6MOL   H530 3340   2.945   7.364   1.560 -2.1646  0.8840 -1.8738
    6MOL   H531 3341   2.880   7.260   1.686  1.2204 -0.3837  0.2489
    6MOL   H532 3342   2.963   7.469   1.785  0.6779 -2.3016 -1.2398
    6MOL   H533 3343   2.793   7.470   1.812  1.3331  0.4972  0.8428
    6MOL   O534 3344   2.777   7.124   1.474  0.3565  0.0160  0.8325
    6MOL   C535 3345   2.684   7.030   1.520  0.9527  0.4669 -0.3455
    6MOL   C536 3346   2.631   7.061   1.670  0.7412 -0.2318  1.0476
    6MOL   O537 3347   2.503   7.122   1.657 -0.0302 -0.5998  0.2964
    6MOL   C538 3348   2.611   6.933   1.760 -0.0546 -0.0652  0.7341
    6MOL   C539 3349   2.553   6.976   1.898  0.0969  0.0582 -0.3847
    6MOL   C540 3350   2.521   6.851   1.987  0.0951 -0.0119  0.1630
    6MOL   O541 3351   2.486   6.900   2.109  0.1246 -0.0681  0.3460
    6MOL   C542 3352   2.647   6.774   2.010  0.4481 -0.1946  0.3948
    6MOL   C543 3353   2.621   6.651   2.098 -0.1232  0.9562  0.0006
    6MOL   C544 3354   2.723   6.737   1.876  0.0932  0.6189  0.0221
    6MOL   C545 3355   2.748   6.866   1.797  0.4938 -1.7033 -0.2862
    6MOL   H546 3356   2.727   6.932   1.500  1.6374  0.6809  0.0633
    6MOL   H547 3357   2.597   7.034   1.455 -0.8027  1.9246  2.0406
    6MOL   H548 3358   2.700   7.129   1.719 -0.7368  2.1758 -0.1444
    6MOL   H549 3359   2.477   7.160   1.739 -0.6943  1.6824 -0.9432
    6MOL   H550 3360   2.553   6.860   1.703 -0.0756  1.4502 -1.2155
    6MOL   H551 3361   2.629   7.044   1.938 -1.1009 -0.3682  2.7501
    6MOL   H552 3362   2.455   7.022   1.887 -0.0862 -0.5720 -1.4078
    6MOL   H553 3363   2.437   6.797   1.943 -0.3647  1.8123 -1.2554
    6MOL   H554 3364   2.487   6.826   2.167 -1.3235 -1.7471 -1.6933
    6MOL   H555 3365   2.716   6.836   2.066 -0.6598  2.8679 -1.5333
    6MOL   H556 3366   2.530   6.596   2.075  1.9888 -1.4243 -3.1379
    6MOL   H557 3367   2.695   6.576   2.069 -0.7665 -0.1511  1.1963
    6MOL   H558 3368   2.692   6.654   1.813 -0.5673  0.7625  0.1603
    6MOL   H559 3369   2.819   6.700   1.912  0.7244  0.4132 -1.8137
    6MOL   H560 3370   2.803   6.832   1.709 -0.1982 -3.0730 -0.2152
    6MOL   H561 3371   2.811   6.923   1.865 -2.6286  2.3754 -0.6382
    6MOL   H562 3372   2.640   6.673   2.203  0.2401 -0.9501  0.3612
    7MOL     O1 3373   2.765   0.096   7.474 -0.4337 -0.3009 -0.5057
    7MOL     C2 3374   2.776   0.237   7.470 -0.2442 -0.0304 -0.4130
    7MOL     C3 3375   2.754   0.283   7.615  0.2386 -0.4242 -0.5149
    7MOL     O4 3376   2.809   0.199   0.087 -1.0492 -0.3011  0.0471
    7MOL     C5 3377   2.783   0.436   0.007 -0.1165  0.2009 -0.7518
    7MOL     C6 3378   2.935   0.460   0.015  0.1971  0.1138  0.5977
    7MOL     C7 3379   2.963   0.610   0.041  0.4628  0.2322 -0.4641
    7MOL     O8 3380   3.099   0.636   0.034 -0.3083 -0.0467 -0.2036
    7MOL     C9 3381   2.898   0.651   0.180 -0.8224  0.5304  0.7961
    7MOL    C10 3382   2.930   0.797   0.207  0.2178 -0.1780  0.3480
    7MOL    C11 3383   2.748   0.629   0.179 -0.1618  0.2598 -0.0519
    7MOL    C12 3384   2.712   0.485   0.138 -0.9820  0.6722 -0.7240
    7MOL    H13 3385   2.698   0.286   7.412 -2.0670 -0.6278  1.4567
    7MOL    H14 3386   2.875   0.262   7.431 -0.0523 -0.3018 -0.1073
    7MOL    H15 3387   2.650   0.273   0.018  0.2466  3.4639  0.8998
    7MOL    H16 3388   2.734   0.173   0.138 -1.7799 -0.7258 -1.2195
    7MOL    H17 3389   2.746   0.488   7.548  0.4167 -0.8537 -1.6073
    7MOL    H18 3390   2.975   0.391   0.088  1.7696  0.3405 -0.0410
    7MOL    H19 3391   2.975   0.445   7.544  0.2015 -0.6191  0.7125
    7MOL    H20 3392   2.914   0.663   7.589  2.6146  1.9629 -0.6728
    7MOL    H21 3393   3.147   0.574   7.610 -2.4658  0.8535 -3.3658
    7MOL    H22 3394   2.952   0.601   0.261 -0.4054 -1.7464 -0.8445
    7MOL    H23 3395   3.035   0.815   0.228 -0.4242  3.4466  0.7786
    7MOL    H24 3396   2.908   0.859   0.119  1.1480 -0.3271  0.0107
    7MOL    H25 3397   2.703   0.695   0.106 -1.1819 -0.3647  0.0091
    7MOL    H26 3398   2.708   0.657   0.277 -0.0769 -0.5185  0.2057
    7MOL    H27 3399   2.604   0.468   0.128 -0.7306 -1.4374 -0.0701
    7MOL    H28 3400   2.745   0.428   0.225  1.1897  0.6475 -1.5373
    7MOL    H29 3401   2.800   0.062   7.555  1.3151 -2.2839 -2.0295
    7MOL    O30 3402   2.856   0.839   0.321 -0.7324  0.2995 -0.3139
    7MOL    C31 3403   2.868   0.977   0.357 -1.0952  0.1783 -0.0011
    7MOL    C32 3404   2.750   1.024   0.444 -0.2523 -0.2171  0.1345
    7MOL    O33 3405   2.783   1.145   0.511 -0.0448  0.0629 -0.0911
    7MOL    C34 3406   2.622   1.048   0.351  0.2580 -0.3507 -0.5872
    7MOL    C35 3407   2.500   1.081   0.447 -0.8086 -0.1818 -0.7691
    7MOL    C36 3408   2.368   1.102   0.373 -0.0130 -0.6830 -0.9184
    7MOL    O37 3409   2.270   1.117   0.469  0.1729  0.0184 -0.3691
    7MOL    C38 3410   2.330   0.980   0.283  0.6473  0.4164 -0.2514
    7MOL    C39 3411   2.197   0.993   0.202 -0.2730 -0.1601 -0.6253
    7MOL    C40 3412   2.446   0.940   0.192  0.5757  0.1814 -0.2352
    7MOL    C41 3413   2.580   0.933   0.266  0.0976  0.2526 -0.5157
    7MOL    H42 3414   2.890   1.039   0.270 -0.1168  0.7456  0.6400
    7MOL    H43 3415   2.965   0.978   0.406 -0.6683 -0.6288 -0.8250
    7MOL    H44 3416   2.728   0.945   0.516  0.3934  0.8984  1.5822
    7MOL    H45 3417   2.788   1.123   0.603  5.9760  0.6396 -0.0543
    7MOL    H46 3418   2.641   1.130   0.282  0.8701 -1.4182 -1.7008
    7MOL    H47 3419   2.477   1.001   0.518 -0.1973 -0.5513 -0.9916
    7MOL    H48 3420   2.517   1.173   0.504  3.9518 -1.8116  0.7225
    7MOL    H49 3421   2.366   1.195   0.316  0.3036  0.5354  1.0093
    7MOL    H50 3422   2.200   1.165   0.427 -0.3621 -0.1174  0.3564
    7MOL    H51 3423   2.311   0.901   0.355  0.8203  0.3065 -0.3266
    7MOL    H52 3424   2.198   0.910   0.131  0.4242 -0.1198 -0.6663
    7MOL    H53 3425   2.109   1.007   0.266 -1.1901  0.1297 -1.9067
    7MOL    H54 3426   2.455   1.001   0.102 -2.2203  1.9595  0.6387
    7MOL    H55 3427   2.416   0.838   0.169 -1.0246  0.1210  1.9674
    7MOL    H56 3428   2.662   0.905   0.200 -0.3681  0.7100 -1.2903
    7MOL    H57 3429   2.578   0.848   0.335  0.8815  1.1816  0.6851
    7MOL    O58 3430   2.199   1.106   0.114 -0.4715 -0.3618 -0.4462
    7MOL    C59 3431   2.084   1.111   0.029 -0.3649 -0.3882 -0.0427
    7MOL    C60 3432   2.069   1.246   7.584 -0.4987  0.2001  0.4815
    7MOL    O61 3433   2.048   1.350   0.044 -0.2836 -0.4238 -0.0691
    7MOL    C62 3434   2.189   1.285   7.490  0.6529 -0.2790 -0.5913
    7MOL    C63 3435   2.154   1.416   7.415 -0.3984  0.1354  0.1831
    7MOL    C64 3436   2.264   1.475   7.334  0.1306  0.4737 -0.7796
    7MOL    O65 3437   2.228   1.594   7.284 -0.8074 -0.1122 -0.0613
    7MOL    C66 3438   2.313   1.382   7.225 -0.3598  0.0652 -0.4021
    7MOL    C67 3439   2.448   1.431   7.162 -0.5957 -0.4678 -0.6010
    7MOL    C68 3440   2.353   1.240   7.287  0.3118 -0.1836  0.3727
    7MOL    C69 3441   2.243   1.181   7.381 -0.1166  0.0000 -0.8038
    7MOL    H70 3442   1.984   1.102   0.072 -1.0718  0.8152 -1.3838
    7MOL    H71 3443   2.101   1.040   7.578  1.1442  0.1500 -0.2159
    7MOL    H72 3444   1.982   1.228   7.522 -0.8457 -0.1037  1.0620
    7MOL    H73 3445   2.069   1.330   0.134  0.2667 -0.3927 -0.1890
    7MOL    H74 3446   2.275   1.308   7.553 -0.8744  1.0964  1.0364
    7MOL    H75 3447   2.057   1.415   7.366 -1.4812 -0.9265  2.2576
    7MOL    H76 3448   2.132   1.491   7.491 -1.9892  1.1672 -1.2619
    7MOL    H77 3449   2.352   1.492   7.396  0.7050  0.8874 -1.6913
    7MOL    H78 3450   2.272   1.604   7.201 -1.1212  1.1144 -0.0947
    7MOL    H79 3451   2.237   1.375   7.147 -0.3340 -0.8198 -0.3558
    7MOL    H80 3452   2.512   1.470   7.241 -0.3590 -1.6607 -0.1943
    7MOL    H81 3453   2.504   1.356   7.106 -0.1138  0.5617 -1.5248
    7MOL    H82 3454   2.455   1.245   7.324  0.7204 -1.9097 -0.4861
    7MOL    H83 3455   2.353   1.165   7.207 -0.5598 -1.5559  1.6238
    7MOL    H84 3456   2.277   1.093   7.435 -2.6187 -0.9167 -0.6427
    7MOL    H85 3457   2.159   1.146   7.322 -0.2226 -0.3303 -0.4610
    7MOL    O86 3458   2.428   1.534   7.066 -0.3387 -0.1125 -0.3277
    7MOL    C87 3459   2.537   1.621   7.044 -1.0795 -0.4465 -0.2625
    7MOL    C88 3460   2.648   1.551   6.960 -0.4420 -0.2512  0.9061
    7MOL    O89 3461   2.584   1.511   6.837 -0.4834 -0.2829 -0.0128
    7MOL    C90 3462   2.773   1.639   6.923  0.4901 -0.8354 -0.3006
    7MOL    C91 3463   2.734   1.773   6.861 -0.0661  0.3282  0.2490
    7MOL    C92 3464   2.853   1.862   6.823 -0.0601  0.2204 -0.6685
    7MOL    O93 3465   2.795   1.952   6.733 -0.0889  0.0247  1.0877
    7MOL    C94 3466   2.975   1.788   6.763 -0.4130  0.7086 -0.1621
    7MOL    C95 3467   3.093   1.890   6.754 -0.2053 -0.2341  0.2108
    7MOL    C96 3468   3.002   1.656   6.830 -0.1400 -0.4134 -0.2691
    7MOL    C97 3469   2.883   1.561   6.853  0.5652 -0.0215  0.7390
    7MOL    H98 3470   2.590   1.638   7.137 -2.4133  1.0570  0.2442
    7MOL    H99 3471   2.499   1.713   6.999 -0.4779 -0.4696 -0.8342
    7MOL   H100 3472   2.694   1.471   7.017 -0.1958  0.3527  1.5607
    7MOL   H101 3473   2.510   1.457   6.860  1.0977 -2.2703  0.5661
    7MOL   H102 3474   2.816   1.675   7.016 -0.8938 -0.6292  0.2727
    7MOL   H103 3475   2.678   1.757   6.769  0.1907  2.8234 -0.3861
    7MOL   H104 3476   2.670   1.833   6.926 -2.3696 -1.6741 -0.1199
    7MOL   H105 3477   2.892   1.906   6.914 -0.0117  1.8215 -1.4430
    7MOL   H106 3478   2.761   1.915   6.653 -0.2013 -1.4209  1.7957
    7MOL   H107 3479   2.949   1.768   6.659  1.4561 -0.1209 -0.5045
    7MOL   H108 3480   3.187   1.852   6.715  0.4324  0.1485  1.3459
    7MOL   H109 3481   3.061   1.980   6.702 -1.2003 -0.0423  1.1387
    7MOL   H110 3482   3.050   1.674   6.926  1.8441  0.1374 -1.3431
    7MOL   H111 3483   3.075   1.607   6.767  0.1008  0.2164 -0.4832
    7MOL   H112 3484   2.909   1.465   6.897  0.1696 -1.0501 -1.1931
    7MOL   H113 3485   2.855   1.530   6.752  0.2906  1.1685  0.4459
    7MOL   O114 3486   3.140   1.916   6.895 -0.0113 -0.1171 -0.3783
    7MOL   C115 3487   3.226   2.036   6.908 -0.2001 -0.0550 -0.8097
    7MOL   C116 3488   3.164   2.114   7.025 -0.5370  0.3555  0.4703
    7MOL   O117 3489   3.265   2.202   7.076  0.2152 -0.1904  0.7035
    7MOL   C118 3490   3.036   2.179   6.979  0.0496 -1.2245  0.5877
    7MOL   C119 3491   3.059   2.290   6.874  0.5133  0.1340  0.7932
    7MOL   C120 3492   2.922   2.342   6.816  0.4478 -0.3229 -0.1067
    7MOL   O121 3493   2.954   2.430   6.704 -0.2207 -0.4308  0.6380
    7MOL   C122 3494   2.830   2.397   6.924  0.6305  1.1208 -0.1422
    7MOL   C123 3495   2.693   2.426   6.864  0.6363  0.3914 -0.9963
    7MOL   C124 3496   2.815   2.291   7.038  0.5730  0.1083 -0.6373
    7MOL   C125 3497   2.954   2.238   7.090  0.7367 -0.1469  0.2585
    7MOL   H126 3498   3.234   2.088   6.812  2.1126 -0.6864 -0.9923
    7MOL   H127 3499   3.323   1.997   6.939 -0.4051 -0.5577 -0.7916
    7MOL   H128 3500   3.129   2.048   7.105 -1.9996  0.8450  0.2466
    7MOL   H129 3501   3.315   2.156   7.142  3.1351 -0.7115 -1.7687
    7MOL   H130 3502   2.973   2.098   6.942  0.4345 -1.7120  0.9989
    7MOL   H131 3503   3.109   2.381   6.910  1.9077 -0.3561  0.1221
    7MOL   H132 3504   3.120   2.256   6.791  0.9839 -0.0975  1.2331
    7MOL   H133 3505   2.865   2.252   6.790 -2.0958  0.8485  1.2401
    7MOL   H134 3506   3.004   2.383   6.640 -1.3519 -1.6705  0.6639
    7MOL   H135 3507   2.875   2.484   6.971 -0.5017  1.5622  0.1392
    7MOL   H136 3508   2.700   2.503   6.788  0.7156  1.2323 -0.1350
    7MOL   H137 3509   2.675   2.332   6.812  1.1701 -0.1131 -0.2794
    7MOL   H138 3510   2.749   2.207   7.017 -0.3527  0.5340  0.5544
    7MOL   H139 3511   2.769   2.346   7.120 -1.0209 -1.0904 -0.7073
    7MOL   H140 3512   2.962   2.174   7.178  0.9071 -0.4666  0.0108
    7MOL   H141 3513   3.003   2.326   7.132  0.9010  0.2732 -0.8104
    7MOL   O142 3514   2.590   2.442   6.960 -0.1974 -0.4604 -0.1777
    7MOL   C143 3515   2.607   2.555   7.046  0.1612 -0.6214  0.3425
    7MOL   C144 3516   2.493   2.557   7.142 -0.5180  0.5489 -0.0349
    7MOL   O145 3517   2.378   2.515   7.073  0.5830 -0.0843  0.3379
    7MOL   C146 3518   2.509   2.455   7.256 -0.3438 -0.2755  0.2438
    7MOL   C147 3519   2.371   2.440   7.332  0.4223  0.1525 -0.1659
    7MOL   C148 3520   2.385   2.350   7.453 -0.1732 -0.9668  0.5709
    7MOL   O149 3521   2.265   2.368   7.527 -0.0094 -0.2530  0.1130
    7MOL   C150 3522   2.491   2.403   7.547  0.4938 -0.3114 -0.6462
    7MOL   C151 3523   2.497   2.316   0.042  0.4546  0.2443 -0.1802
    7MOL   C152 3524   2.628   2.400   7.480  0.2659  0.1640  0.2160
    7MOL   C153 3525   2.622   2.494   7.354  0.0516  0.1957 -0.1401
    7MOL   H154 3526   2.595   2.652   7.000  1.3001  0.9719  3.2824
    7MOL   H155 3527   2.701   2.553   7.101  0.9143 -1.1721 -0.9541
    7MOL   H156 3528   2.491   2.660   7.180  0.3675  1.2078 -1.7280
    7MOL   H157 3529   2.395   2.424   7.052 -1.7500 -0.9947  2.1624
    7MOL   H158 3530   2.529   2.359   7.209 -1.0894 -0.4119  0.1858
    7MOL   H159 3531   2.347   2.543   7.359  0.3584  0.4024 -1.1345
    7MOL   H160 3532   2.283   2.403   7.278 -0.3625  2.1594 -0.3089
    7MOL   H161 3533   2.394   2.243   7.435 -0.6039 -0.9635  0.3150
    7MOL   H162 3534   2.207   2.303   7.490 -0.6021 -1.0298  2.3220
    7MOL   H163 3535   2.473   2.506   7.577  1.1641  0.6838 -3.4705
    7MOL   H164 3536   2.400   2.307   0.092 -0.3417  2.5726 -1.2101
    7MOL   H165 3537   2.526   2.213   0.021  1.0323  0.5069 -0.6845
    7MOL   H166 3538   2.650   2.299   7.448 -1.0330 -0.5812  1.5906
    7MOL   H167 3539   2.716   2.431   7.537  2.0934 -1.4020 -1.6987
    7MOL   H168 3540   2.714   2.479   7.298 -0.2339  1.6119 -1.0045
    7MOL   H169 3541   2.622   2.594   7.398  0.1369 -0.0162  0.3430
    7MOL   O170 3542   2.582   2.377   0.136  0.1566 -0.3435  0.0384
    7MOL   C171 3543   2.513   2.465   0.229  0.5404 -0.1701 -0.2704
    7MOL   C172 3544   2.620   2.519   0.322  0.0885  0.1965  0.4388
    7MOL   O173 3545   2.734   2.550   0.247  0.0162  0.2677 -0.0403
    7MOL   C174 3546   2.577   2.655   0.386  0.3599 -0.2390  0.2798
    7MOL   C175 3547   2.683   2.706   0.481 -0.2488  1.4802  0.4338
    7MOL   C176 3548   2.641   2.839   0.531  0.5678  0.1726 -0.5031
    7MOL   O177 3549   2.746   2.883   0.615  0.3719 -0.2779 -0.2974
    7MOL   C178 3550   2.504   2.847   0.599 -0.2620 -0.1160  0.1390
    7MOL   C179 3551   2.451   2.989   0.623  0.9051 -0.1613  0.1725
    7MOL   C180 3552   2.399   2.774   0.521 -0.6559  0.1704 -0.8180
    7MOL   C181 3553   2.445   2.636   0.465  0.2958  0.1469 -0.6305
    7MOL   H182 3554   2.428   2.427   0.285  1.9850  0.1499  2.1675
    7MOL   H183 3555   2.474   2.549   0.171  1.5904 -0.4733 -1.4556
    7MOL   H184 3556   2.652   2.446   0.396  1.6387 -0.0848 -0.4867
    7MOL   H185 3557   2.723   2.496   0.171  1.4996 -1.1081  0.7109
    7MOL   H186 3558   2.554   2.722   0.304  0.1112  0.0057  0.5451
    7MOL   H187 3559   2.699   2.630   0.557 -0.0450  1.6684  0.5814
    7MOL   H188 3560   2.776   2.726   0.427 -1.4299 -3.3647 -3.7447
    7MOL   H189 3561   2.639   2.904   0.443 -2.3041 -1.2144 -1.4979
    7MOL   H190 3562   2.754   2.825   0.689 -1.2150 -1.2066 -0.8106
    7MOL   H191 3563   2.515   2.802   0.698  0.8936  0.2768  0.2087
    7MOL   H192 3564   2.352   2.992   0.669  0.8554  1.7635 -0.0226
    7MOL   H193 3565   2.507   3.061   0.682 -0.1662  1.0116 -0.2244
    7MOL   H194 3566   2.352   2.831   0.441  1.6925 -3.0451 -4.7244
    7MOL   H195 3567   2.315   2.767   0.589  0.6749  0.7518  0.9193
    7MOL   H196 3568   2.363   2.595   0.405 -0.5413  0.5615  0.2234
    7MOL   H197 3569   2.457   2.564   0.546 -1.1029 -0.0096 -0.5610
    7MOL   O198 3570   2.453   3.050   0.498  0.3566 -0.3302 -0.0837
    7MOL   C199 3571   2.363   3.165   0.474  0.0328  0.3293 -1.0647
    7MOL   C200 3572   2.402   3.217   0.336 -0.3363 -0.1796  0.1713
    7MOL   O201 3573   2.353   3.112   0.248 -0.1942  0.8420  0.3811
    7MOL   C202 3574   2.327   3.346   0.285 -0.5635 -0.1548 -0.0696
    7MOL   C203 3575   2.385   3.468   0.349  0.0974 -0.2375  0.3795
    7MOL   C204 3576   2.333   3.595   0.280  0.8242  0.2255 -0.0508
    7MOL   O205 3577   2.399   3.714   0.326 -0.1142  0.1158  0.0959
    7MOL   C206 3578   2.177   3.612   0.297  0.1494 -0.4753  0.8044
    7MOL   C207 3579   2.105   3.723   0.222 -0.1563 -0.1237 -0.4000
    7MOL   C208 3580   2.117   3.477   0.252  0.0042  0.1396  0.1617
    7MOL   C209 3581   2.179   3.347   0.302  0.1174 -0.1935 -0.2090
    7MOL   H210 3582   2.388   3.244   0.545  0.1765  0.2876 -1.0700
    7MOL   H211 3583   2.262   3.126   0.488 -0.8020  2.8216  0.0378
    7MOL   H212 3584   2.509   3.232   0.332 -0.3379 -0.1364  0.2891
    7MOL   H213 3585   2.275   3.074   0.285 -0.8228 -0.2561 -1.9567
    7MOL   H214 3586   2.360   3.351   0.182  2.1642 -0.7197  0.7304
    7MOL   H215 3587   2.355   3.477   0.454 -0.9252 -0.4147  0.1084
    7MOL   H216 3588   2.492   3.455   0.338  0.0693 -0.2314  0.1036
    7MOL   H217 3589   2.351   3.600   0.173 -1.3826 -1.1678 -0.5284
    7MOL   H218 3590   2.346   3.788   0.300 -0.5917  0.1110  1.0379
    7MOL   H219 3591   2.159   3.619   0.404  1.9157  0.1239  1.0635
    7MOL   H220 3592   2.123   3.694   0.119 -0.4774 -0.0966 -0.4638
    7MOL   H221 3593   1.998   3.722   0.243 -0.0150 -0.5890  0.2959
    7MOL   H222 3594   2.125   3.473   0.143  1.7713  0.6641  0.2516
    7MOL   H223 3595   2.011   3.473   0.278  0.1374 -1.0638  0.5416
    7MOL   H224 3596   2.133   3.264   0.248  2.3391 -1.1344 -0.7196
    7MOL   H225 3597   2.156   3.345   0.408  0.7609  2.1407  0.0207
    7MOL   O226 3598   2.163   3.845   0.269  0.2119 -0.1098  0.6619
    7MOL   C227 3599   2.129   3.952   0.184 -0.7736  0.1700  0.6458
    7MOL   C228 3600   2.181   4.078   0.241 -0.9248  0.0615 -0.2039
    7MOL   O229 3601   2.324   4.069   0.229  0.3136 -0.0965 -0.0768
    7MOL   C230 3602   2.115   4.199   0.176 -0.0676 -0.2306 -0.2479
    7MOL   C231 3603   2.179   4.230   0.036 -0.0286 -0.8291  0.2680
    7MOL   C232 3604   2.109   4.361   7.609 -0.1369 -0.0477 -0.6696
    7MOL   O233 3605   2.178   4.391   7.486 -0.0279  0.0590 -0.4446
    7MOL   C234 3606   2.110   4.479   0.077 -0.3521  0.8456  0.5935
    7MOL   C235 3607   2.016   4.589   0.015 -0.3015  0.2055  0.2902
    7MOL   C236 3608   2.055   4.444   0.216 -0.4747 -0.4126  0.3658
    7MOL   C237 3609   2.120   4.318   0.272  0.0505  0.1967 -0.5539
    7MOL   H238 3610   2.020   3.942   0.185 -0.6327 -1.4805  0.5083
    7MOL   H239 3611   2.155   3.939   0.079 -1.9169 -0.5866  0.4372
    7MOL   H240 3612   2.174   4.084   0.350 -1.5289 -1.6248 -0.1461
    7MOL   H241 3613   2.346   4.040   0.142 -0.6129 -0.3482 -0.2282
    7MOL   H242 3614   2.014   4.168   0.150  1.1102 -1.7185 -3.2697
    7MOL   H243 3615   2.285   4.252   0.032  0.0169 -1.2104 -0.8016
    7MOL   H244 3616   2.172   4.145   7.597  1.3450  0.0874 -1.0252
    7MOL   H245 3617   2.005   4.336   7.586  0.0441 -0.2727 -1.2660
    7MOL   H246 3618   2.143   4.336   7.418 -1.6651 -0.5386  0.8471
    7MOL   H247 3619   2.216   4.505   0.081 -0.5652  2.0046 -0.9422
    7MOL   H248 3620   2.020   4.678   0.078  0.0016  0.6691 -0.3733
    7MOL   H249 3621   2.064   4.618   7.552  1.3606 -1.6216  0.5350
    7MOL   H250 3622   1.946   4.441   0.222 -0.6481  3.7241  0.9602
    7MOL   H251 3623   2.081   4.538   0.264  0.6765 -1.0029  0.9027
    7MOL   H252 3624   2.066   4.283   0.360 -0.8925  1.2534 -0.6956
    7MOL   H253 3625   2.226   4.331   0.294  0.0002  2.7969 -1.5633
    7MOL   O254 3626   1.884   4.539   7.625 -0.3927 -0.4399  0.1761
    7MOL   C255 3627   1.801   4.628   7.554  0.5517  0.4002 -0.0957
    7MOL   C256 3628   1.671   4.556   7.505 -0.1617  0.8232 -0.1538
    7MOL   O257 3629   1.599   4.530   7.623 -0.3835 -0.4321  0.3772
    7MOL   C258 3630   1.577   4.631   7.410 -0.9618  0.1934 -0.1575
    7MOL   C259 3631   1.448   4.553   7.376  0.1709  0.5400 -0.0600
    7MOL   C260 3632   1.358   4.639   7.280 -0.1051 -0.1083 -0.3446
    7MOL   O261 3633   1.244   4.559   7.246 -0.0108 -0.1633  0.7678
    7MOL   C262 3634   1.426   4.686   7.147 -0.0938 -0.1626  0.0079
    7MOL   C263 3635   1.334   4.763   7.050  0.3833 -0.3777 -0.1463
    7MOL   C264 3636   1.561   4.757   7.185 -0.0763 -0.2975  0.6522
    7MOL   C265 3637   1.651   4.661   7.274  0.0612 -0.2643 -0.2515
    7MOL   H266 3638   1.860   4.672   7.473  2.0143  0.8007  1.1698
    7MOL   H267 3639   1.772   4.712   7.617 -0.8107 -0.8312  0.9335
    7MOL   H268 3640   1.707   4.468   7.452  0.8867 -0.3844  2.4478
    7MOL   H269 3641   1.659   4.515   0.065  0.1862 -1.3482 -0.2887
    7MOL   H270 3642   1.556   4.722   7.466  0.2636  1.1279 -1.1987
    7MOL   H271 3643   1.475   4.460   7.325 -0.9320 -0.0777  0.4704
    7MOL   H272 3644   1.396   4.529   7.468 -2.0859  1.5298 -1.0511
    7MOL   H273 3645   1.330   4.728   7.336 -1.8879  0.9648 -2.8487
    7MOL   H274 3646   1.208   4.525   7.326 -2.2595  0.1852 -0.0750
    7MOL   H275 3647   1.459   4.600   7.089 -0.4114 -0.8296  0.8128
    7MOL   H276 3648   1.249   4.703   7.018  0.0222 -0.3871  0.8372
    7MOL   H277 3649   1.288   4.850   7.097 -0.6689 -0.9836 -0.0427
    7MOL   H278 3650   1.549   4.853   7.235 -0.7248  0.3890 -0.7765
    7MOL   H279 3651   1.611   4.780   7.091 -2.8410  0.5481 -0.6607
    7MOL   H280 3652   1.741   4.716   7.302 -0.2617 -0.7112  1.7538
    7MOL   H281 3653   1.689   4.567   7.235  1.5583 -0.7943  2.3340
    7MOL   O282 3654   1.406   4.802   6.935  0.5440 -0.3248  0.2696
    7MOL   C283 3655   1.322   4.840   6.828  0.3913  0.0217 -0.3137
    7MOL   C284 3656   1.421   4.916   6.733  0.2542 -0.7666  0.4648
    7MOL   O285 3657   1.373   4.907   6.607 -0.0642 -0.0309  0.1205
    7MOL   C286 3658   1.438   5.068   6.763  0.0148 -0.2591  0.3922
    7MOL   C287 3659   1.509   5.111   6.889 -0.1299 -0.2745  0.1436
    7MOL   C288 3660   1.524   5.265   6.898  0.2283  0.0406  0.0324
    7MOL   O289 3661   1.597   5.286   7.019 -0.4718 -0.2145 -0.5305
    7MOL   C290 3662   1.396   5.341   6.887  0.3511  0.5500 -0.6551
    7MOL   C291 3663   1.417   5.491   6.897  0.2930  0.5722  0.2702
    7MOL   C292 3664   1.312   5.291   6.769 -0.3524  0.1295  0.3369
    7MOL   C293 3665   1.307   5.141   6.763 -0.0895 -0.0248  0.3954
    7MOL   H294 3666   1.241   4.903   6.865 -0.3545 -1.9233  1.4104
    7MOL   H295 3667   1.282   4.752   6.778 -0.1362 -0.2056  0.4990
    7MOL   H296 3668   1.519   4.868   6.733  1.8611  2.3844  1.3606
    7MOL   H297 3669   1.329   4.824   6.606 -1.2253  0.5454 -3.0589
    7MOL   H298 3670   1.493   5.101   6.676 -0.8038  1.3552  0.4675
    7MOL   H299 3671   1.452   5.086   6.978  0.3797  1.4330  0.9744
    7MOL   H300 3672   1.607   5.064   6.877 -0.8859 -1.7731 -0.2618
    7MOL   H301 3673   1.597   5.297   6.823 -0.9253  0.0994 -1.0967
    7MOL   H302 3674   1.537   5.311   7.087 -2.4549 -2.0078 -1.5244
    7MOL   H303 3675   1.331   5.317   6.971  0.6377 -0.3618 -0.6865
    7MOL   H304 3676   1.433   5.529   6.998  2.0268 -0.1479  0.2800
    7MOL   H305 3677   1.494   5.529   6.831 -1.2219  0.0519 -1.8866
    7MOL   H306 3678   1.350   5.326   6.673  1.1145  0.5512  1.0647
    7MOL   H307 3679   1.211   5.331   6.776  0.3139  1.8460  0.4087
    7MOL   H308 3680   1.243   5.119   6.678  0.7238 -1.7865  0.2092
    7MOL   H309 3681   1.248   5.110   6.849 -0.2361 -3.3489 -0.7977
    7MOL   O310 3682   1.301   5.558   6.839 -0.5269 -0.2845  0.1348
    7MOL   C311 3683   1.297   5.703   6.861  0.4131 -0.1912  0.9700
    7MOL   C312 3684   1.205   5.765   6.751  0.2653 -0.1646 -0.0040
    7MOL   O313 3685   1.085   5.686   6.765  0.6441 -0.2397 -0.3326
    7MOL   C314 3686   1.167   5.915   6.759 -0.8640 -0.6918  0.0808
    7MOL   C315 3687   1.284   5.993   6.695  0.2678  0.6108  0.1625
    7MOL   C316 3688   1.247   6.141   6.687 -0.1125 -0.6035 -0.1809
    7MOL   O317 3689   1.365   6.207   6.656 -0.2148 -0.0947  0.0329
    7MOL   C318 3690   1.192   6.209   6.821  0.0882 -0.0667  0.3497
    7MOL   C319 3691   1.148   6.352   6.789 -0.0737 -0.0116  0.2233
    7MOL   C320 3692   1.072   6.119   6.863  0.3583  0.1566 -0.1526
    7MOL   C321 3693   1.116   5.977   6.890 -0.6794  0.0187  0.2510
    7MOL   H322 3694   1.385   5.766   6.848  1.1615 -1.1527  1.3728
    7MOL   H323 3695   1.261   5.711   6.964 -1.5940  1.5588  0.1697
    7MOL   H324 3696   1.247   5.731   6.656 -1.6842  0.5125 -1.1346
    7MOL   H325 3697   1.112   5.597   6.779  0.5907 -0.0455  1.1454
    7MOL   H326 3698   1.084   5.921   6.689 -0.8894 -6.2557 -0.5699
    7MOL   H327 3699   1.369   5.989   6.763 -1.0711  0.1070  1.8337
    7MOL   H328 3700   1.325   5.955   6.601 -0.7592  1.5758 -0.6866
    7MOL   H329 3701   1.184   6.149   6.599 -1.6603 -0.5183  0.8957
    7MOL   H330 3702   1.345   6.292   6.619 -0.2992 -0.6017 -1.0966
    7MOL   H331 3703   1.265   6.191   6.899  0.9358 -0.6146 -0.5678
    7MOL   H332 3704   1.227   6.403   6.734 -0.4372  0.4636  0.1400
    7MOL   H333 3705   1.067   6.348   6.716  2.0308 -0.8857 -2.1390
    7MOL   H334 3706   0.991   6.116   6.790  3.1353 -0.2121 -3.3580
    7MOL   H335 3707   1.031   6.166   6.952  0.9709  0.7861 -0.1966
    7MOL   H336 3708   1.042   5.911   6.936  1.0985 -1.5111  1.0158
    7MOL   H337 3709   1.201   5.968   6.959 -0.6254  2.4764  0.5310
    7MOL   O338 3710   1.105   6.423   6.903 -0.2213  0.2003  0.2186
    7MOL   C339 3711   1.061   6.551   6.866  0.1654 -0.4917 -0.1182
    7MOL   C340 3712   0.975   6.614   6.975 -0.3675  0.2831  0.1362
    7MOL   O341 3713   1.019   6.741   6.986  0.0770 -0.0220 -0.6126
    7MOL   C342 3714   0.829   6.612   6.930  0.1984 -0.4326  0.2443
    7MOL   C343 3715   0.742   6.681   7.035 -0.3242 -0.9970 -0.1407
    7MOL   C344 3716   0.594   6.675   6.986 -0.1658 -0.2021 -0.3326
    7MOL   O345 3717   0.517   6.746   7.078  0.4304  0.3147  0.0529
    7MOL   C346 3718   0.539   6.525   6.977  0.1045  0.1918 -0.4667
    7MOL   C347 3719   0.387   6.526   6.956  0.3670  0.1701 -0.8763
    7MOL   C348 3720   0.624   6.465   6.862  0.5635  0.4730  0.1668
    7MOL   C349 3721   0.776   6.470   6.906 -0.5246  0.9782  0.3328
    7MOL   H350 3722   1.007   6.563   6.772  0.6636 -0.2852 -0.3833
    7MOL   H351 3723   1.157   6.603   6.868  0.0700 -0.3582  1.4905
    7MOL   H352 3724   0.979   6.568   7.074 -0.3185 -1.0453 -0.4822
    7MOL   H353 3725   1.008   6.778   6.900 -1.0124 -2.5236 -1.5838
    7MOL   H354 3726   0.814   6.681   6.847 -1.4942 -0.0022  0.8662
    7MOL   H355 3727   0.748   6.629   7.131 -1.5609 -0.9404 -0.0180
    7MOL   H356 3728   0.772   6.784   7.055 -0.7405 -1.2843  2.0574
    7MOL   H357 3729   0.585   6.728   6.891 -0.9765  0.4385  0.0987
    7MOL   H358 3730   0.441   6.777   7.031 -1.1543  0.3653  2.5669
    7MOL   H359 3731   0.552   6.473   7.072 -0.4485  0.6949 -0.1110
    7MOL   H360 3732   0.342   6.427   6.961  0.4556  0.0776 -1.8767
    7MOL   H361 3733   0.333   6.578   7.036  0.3154 -1.2638  0.0308
    7MOL   H362 3734   0.613   6.523   6.770 -0.0776 -1.7538 -1.2009
    7MOL   H363 3735   0.584   6.367   6.837 -0.0659  0.6507  0.4641
    7MOL   H364 3736   0.835   6.421   6.828  0.0191  1.2424  0.5814
    7MOL   H365 3737   0.790   6.409   6.995  0.1830  0.6445 -0.0056
    7MOL   O366 3738   0.361   6.591   6.834  0.1650 -0.4314 -0.1974
    7MOL   C367 3739   0.221   6.587   6.804  0.1355 -0.1870 -0.3962
    7MOL   C368 3740   0.202   6.662   6.670 -0.6423 -0.3181 -0.4254
    7MOL   O369 3741   0.209   6.805   6.690  0.3678 -0.3951  0.2943
    7MOL   C370 3742   0.303   6.615   6.572  0.3956 -0.2255  0.1489
    7MOL   C371 3743   0.260   6.677   6.436 -0.5059  0.0958  0.4058
    7MOL   C372 3744   0.354   6.639   6.320  0.3350 -0.1243  1.0780
    7MOL   O373 3745   0.295   6.699   6.207 -0.1661  0.5755  0.8003
    7MOL   C374 3746   0.373   6.490   6.301 -0.0897  0.4760  0.6560
    7MOL   C375 3747   0.488   6.456   6.204  0.4702 -0.6662 -0.4215
    7MOL   C376 3748   0.393   6.416   6.440 -0.3830  0.4773  0.0187
    7MOL   C377 3749   0.307   6.467   6.550  0.4596 -0.3505  0.0507
    7MOL   H378 3750   0.156   6.627   6.883  0.7353  0.2581 -0.1201
    7MOL   H379 3751   0.190   6.484   6.785  1.9093 -0.2525 -3.2144
    7MOL   H380 3752   0.099   6.647   6.637 -1.3091  1.6467  0.6971
    7MOL   H381 3753   0.297   6.828   6.717  0.2821 -0.0465  0.2763
    7MOL   H382 3754   0.402   6.656   6.594 -0.0370  0.9620 -0.0679
    7MOL   H383 3755   0.158   6.642   6.422 -1.2157  2.7445 -1.4356
    7MOL   H384 3756   0.261   6.786   6.442 -1.5328  0.0590  1.4823
    7MOL   H385 3757   0.455   6.677   6.339 -0.6855  3.1546  0.2719
    7MOL   H386 3758   0.358   6.697   6.136  0.1843 -0.6042  1.1406
    7MOL   H387 3759   0.279   6.454   6.260  0.3971 -2.5134  2.0046
    7MOL   H388 3760   0.491   6.507   6.107 -1.0421  0.2925  0.0139
    7MOL   H389 3761   0.586   6.474   6.248  1.1518 -1.0489 -1.7541
    7MOL   H390 3762   0.495   6.436   6.472 -1.1054  0.0933  2.6382
    7MOL   H391 3763   0.386   6.307   6.436  0.5663  0.4250 -0.3597
    7MOL   H392 3764   0.327   6.415   6.644 -1.1154  3.0222  2.3795
    7MOL   H393 3765   0.203   6.440   6.529 -0.1723 -0.2574  2.7546
    7MOL   O394 3766   0.470   6.320   6.184  0.3028  0.6271  0.3233
    7MOL   C395 3767   0.586   6.248   6.148 -0.0646 -0.0379  0.2220
    7MOL   C396 3768   0.550   6.135   6.053  0.1845 -0.3400  0.0710
    7MOL   O397 3769   0.667   6.071   6.004 -0.7130  0.0436  0.0127
    7MOL   C398 3770   0.452   6.028   6.117  0.2752 -0.4111 -0.3024
    7MOL   C399 3771   0.304   6.062   6.119 -0.0097  0.2588 -0.4022
    7MOL   C400 3772   0.222   5.945   6.161  0.4229 -0.4081 -0.1596
    7MOL   O401 3773   0.083   5.980   6.137 -0.7594 -0.0233  0.1005
    7MOL   C402 3774   0.256   5.896   6.303  0.1622 -0.1277 -0.2004
    7MOL   C403 3775   0.182   5.769   6.349 -0.3631 -0.0082  0.2884
    7MOL   C404 3776   0.415   5.877   6.321  0.2637 -0.1018  0.4397
    7MOL   C405 3777   0.492   5.996   6.265 -0.2095 -0.7591  0.2235
    7MOL   H406 3778   0.642   6.209   6.234 -0.6273 -1.5536 -0.0947
    7MOL   H407 3779   0.654   6.308   6.088 -0.1761 -0.3238 -0.1938
    7MOL   H408 3780   0.502   6.167   5.960 -0.5883 -1.5999  0.0258
    7MOL   H409 3781   0.718   6.039   6.078  0.5240  0.4782 -0.6323
    7MOL   H410 3782   0.471   5.929   6.075  1.6591  0.1270 -0.9838
    7MOL   H411 3783   0.280   6.145   6.185  1.1134 -0.3854  0.8676
    7MOL   H412 3784   0.276   6.084   6.016  1.2888 -1.0131 -1.0556
    7MOL   H413 3785   0.236   5.856   6.100  0.4696 -2.5318  2.8199
    7MOL   H414 3786   0.071   6.071   6.160 -0.3554  0.5996 -2.0193
    7MOL   H415 3787   0.225   5.982   6.362  1.4067  0.5895 -0.5798
    7MOL   H416 3788   0.084   5.777   6.302 -1.1356  2.0957  2.1474
    7MOL   H417 3789   0.231   5.681   6.308 -0.8843  0.1465 -0.6806
    7MOL   H418 3790   0.443   5.790   6.261 -2.6181 -0.7908  0.0475
    7MOL   H419 3791   0.442   5.850   6.423 -4.5859 -3.2980  1.0478
    7MOL   H420 3792   0.598   5.976   6.284 -0.0577 -2.6701 -2.4126
    7MOL   H421 3793   0.467   6.079   6.332 -0.4118  1.1918 -2.2068
    7MOL   O422 3794   0.183   5.756   6.492  0.0474  0.1742  0.5440
    7MOL   C423 3795   0.128   5.644   6.549  0.0375  0.8146 -0.8414
    7MOL   C424 3796   0.167   5.635   6.692  0.2233 -0.1664 -0.1139
    7MOL   O425 3797   0.079   5.548   6.759 -0.0665 -0.5928  0.5803
    7MOL   C426 3798   0.314   5.594   6.719  0.0187 -0.1252  0.7297
    7MOL   C427 3799   0.414   5.712   6.719  0.5409 -0.3612 -0.8733
    7MOL   C428 3800   0.554   5.676   6.748 -0.7364  0.8848  0.2031
    7MOL   O429 3801   0.631   5.789   6.715 -0.5702 -0.8398 -0.0179
    7MOL   C430 3802   0.610   5.563   6.651 -0.5366 -0.2753 -0.5958
    7MOL   C431 3803   0.747   5.515   6.694  0.6651 -1.2671 -0.2741
    7MOL   C432 3804   0.502   5.444   6.668 -0.2660 -0.7582 -0.3662
    7MOL   C433 3805   0.358   5.481   6.629  0.6055  0.1082  0.2870
    7MOL   H434 3806   0.142   5.551   6.493  1.0780 -0.4736  1.5254
    7MOL   H435 3807   0.021   5.660   6.534  0.0266  0.6077 -0.9992
    7MOL   H436 3808   0.153   5.732   6.739  0.3478  1.7436 -3.8306
    7MOL   H437 3809   7.622   5.580   6.780  0.5686 -0.7038  3.6186
    7MOL   H438 3810   0.309   5.546   6.817  0.0150 -0.6412  0.4756
    7MOL   H439 3811   0.399   5.757   6.621  0.1883  0.8696 -0.2635
    7MOL   H440 3812   0.377   5.787   6.790 -1.0634  0.3533 -2.4342
    7MOL   H441 3813   0.568   5.655   6.854  0.4460 -1.5998 -0.4171
    7MOL   H442 3814   0.642   5.844   6.791  1.4584  1.6739 -2.0279
    7MOL   H443 3815   0.608   5.596   6.547 -0.3189  1.1129 -0.1729
    7MOL   H444 3816   0.812   5.601   6.680 -0.0789 -0.1404  2.7600
    7MOL   H445 3817   0.756   5.495   6.801  1.3518 -0.5050 -0.1820
    7MOL   H446 3818   0.506   5.409   6.772 -0.0060 -0.5448 -0.3056
    7MOL   H447 3819   0.531   5.351   6.619  1.5670  0.2850 -1.2978
    7MOL   H448 3820   0.289   5.401   6.657  0.2923  0.0924 -0.5268
    7MOL   H449 3821   0.348   5.513   6.526  1.2550 -3.4883 -0.9599
    7MOL   O450 3822   0.790   5.408   6.609 -0.3007 -0.0467  0.2945
    7MOL   C451 3823   0.929   5.372   6.604  0.1308 -0.2497  0.1472
    7MOL   C452 3824   0.950   5.229   6.547  0.0513  1.1344 -0.2032
    7MOL   O453 3825   0.973   5.123   6.642  0.3197  0.7158  0.2979
    7MOL   C454 3826   0.855   5.182   6.435 -0.1068  0.0911  0.2672
    7MOL   C455 3827   0.871   5.263   6.297 -0.2651  0.4255 -0.3275
    7MOL   C456 3828   0.804   5.183   6.182 -0.3787 -0.2074 -0.1103
    7MOL   O457 3829   0.823   5.255   6.058  0.0220 -0.0185  0.3167
    7MOL   C458 3830   0.651   5.169   6.207  0.1689  0.1637  0.2650
    7MOL   C459 3831   0.585   5.092   6.092  1.0419  0.6688  0.2988
    7MOL   C460 3832   0.629   5.094   6.347 -0.9782 -0.3842 -0.2383
    7MOL   C461 3833   0.703   5.163   6.466 -0.2981 -0.0420 -0.8006
    7MOL   H462 3834   0.979   5.389   6.699  1.0060 -1.2528 -0.1212
    7MOL   H463 3835   0.983   5.444   6.542  2.6478 -1.9619  0.2728
    7MOL   H464 3836   1.043   5.238   6.491  1.1983  0.5966  1.5606
    7MOL   H465 3837   0.904   5.142   6.703  0.8203 -2.1968  1.8580
    7MOL   H466 3838   0.901   5.086   6.408 -0.0375 -0.2308  1.5167
    7MOL   H467 3839   0.835   5.365   6.306  0.5510  0.7296 -0.5022
    7MOL   H468 3840   0.976   5.268   6.269  0.2361  0.1871  1.4459
    7MOL   H469 3841   0.852   5.086   6.176  1.3682  0.6500 -0.3896
    7MOL   H470 3842   0.810   5.348   6.065 -0.8431 -0.1967  1.1362
    7MOL   H471 3843   0.597   5.263   6.215  1.9655  1.3683 -1.1244
    7MOL   H472 3844   0.655   5.012   6.070  1.9882  1.8905 -1.1813
    7MOL   H473 3845   0.484   5.058   6.116  1.5940 -1.1919  0.0304
    7MOL   H474 3846   0.670   4.993   6.341  0.1579  0.0355  0.3333
    7MOL   H475 3847   0.521   5.077   6.354 -1.3161  0.7088 -2.3625
    7MOL   H476 3848   0.702   5.090   6.547 -1.1731 -1.1366 -1.7805
    7MOL   H477 3849   0.651   5.255   6.490  1.3594  0.9947 -1.0843
    7MOL   O478 3850   0.572   5.171   5.974 -0.6001 -0.1388 -0.4738
    7MOL   C479 3851   0.569   5.100   5.851  0.5984  0.2028 -0.1452
    7MOL   C480 3852   0.684   5.152   5.764  0.6274  0.0697  0.5683
    7MOL   O481 3853   0.804   5.097   5.812  0.2949  0.1738 -0.3383
    7MOL   C482 3854   0.660   5.116   5.618 -0.7159  0.8364  0.6204
    7MOL   C483 3855   0.668   4.960   5.591  1.0713 -0.7232 -0.3682
    7MOL   C484 3856   0.670   4.921   5.436  0.5728 -0.3035  0.3045
    7MOL   O485 3857   0.695   4.783   5.426 -0.8696 -0.1571 -0.3423
    7MOL   C486 3858   0.770   5.007   5.351 -0.4890 -0.3980  0.0434
    7MOL   C487 3859   0.765   4.978   5.202  0.2262  0.3689  0.1376
    7MOL   C488 3860   0.734   5.152   5.377 -0.6748  0.4053 -0.1993
    7MOL   C489 3861   0.757   5.179   5.520  0.2716 -0.4239  0.0951
    7MOL   H490 3862   0.474   5.126   5.806  1.2120  1.2525 -0.8635
    7MOL   H491 3863   0.568   4.991   5.850 -1.0468  0.2112 -0.5399
    7MOL   H492 3864   0.685   5.261   5.775 -0.6222  0.0074  1.4333
    7MOL   H493 3865   0.812   5.129   5.900 -0.8655 -1.7786  0.4899
    7MOL   H494 3866   0.561   5.149   5.586 -0.0124  0.9950 -1.5141
    7MOL   H495 3867   0.757   4.924   5.642  1.8594  1.6051 -0.0703
    7MOL   H496 3868   0.584   4.914   5.643 -1.2663  2.4210 -1.2067
    7MOL   H497 3869   0.569   4.938   5.400  0.5794 -1.9991 -0.5799
    7MOL   H498 3870   0.617   4.743   5.462 -1.2403  1.3613  0.5493
    7MOL   H499 3871   0.870   4.979   5.385 -0.7409 -3.3640 -1.4813
    7MOL   H500 3872   0.792   4.874   5.184  0.8000  0.6479 -0.6769
    7MOL   H501 3873   0.660   4.988   5.177  0.0550 -0.3852  0.5556
    7MOL   H502 3874   0.627   5.161   5.354 -0.5535  0.4502 -0.7461
    7MOL   H503 3875   0.787   5.220   5.312 -1.6489 -0.8263 -2.3315
    7MOL   H504 3876   0.756   5.287   5.535 -2.2291  0.0493 -2.9598
    7MOL   H505 3877   0.859   5.152   5.547 -0.4990 -0.7488  2.8775
    7MOL   O506 3878   0.862   5.058   5.135  0.0776 -0.3010  0.1840
    7MOL   C507 3879   0.849   5.054   4.999  0.2183 -0.4600  1.0605
    7MOL   C508 3880   0.975   5.017   4.925 -1.0478  0.1100 -0.9038
    7MOL   O509 3881   0.992   4.885   4.975 -0.4242  0.2257  0.3122
    7MOL   C510 3882   0.954   4.999   4.771  0.4805 -0.2011  1.1328
    7MOL   C511 3883   1.062   4.924   4.703  0.9805 -0.5215 -0.4366
    7MOL   C512 3884   1.033   4.902   4.553 -0.1926  0.6778  0.0326
    7MOL   O513 3885   1.152   4.866   4.489  0.2577 -0.1224 -0.8992
    7MOL   C514 3886   0.995   5.026   4.484  0.2332 -0.0360  0.1634
    7MOL   C515 3887   0.940   5.004   4.339  0.4741  0.0303  0.0648
    7MOL   C516 3888   0.905   5.122   4.554 -0.3451  0.3990 -0.6158
    7MOL   C517 3889   0.939   5.137   4.704 -0.3318  1.1147 -0.2586
    7MOL   H518 3890   0.817   5.155   4.971  0.2005 -0.6779  0.2744
    7MOL   H519 3891   0.763   4.998   4.962  0.8009  0.2536 -1.5235
    7MOL   H520 3892   1.058   5.084   4.949 -1.1619 -0.0717  0.0063
    7MOL   H521 3893   0.962   4.886   5.065  1.8179 -2.0479  1.1458
    7MOL   H522 3894   0.861   4.945   4.754 -0.6945  1.9574  0.6612
    7MOL   H523 3895   1.152   4.983   4.720  1.1517 -0.7757 -0.4703
    7MOL   H524 3896   1.077   4.829   4.753 -1.9490 -1.1644 -0.7070
    7MOL   H525 3897   0.949   4.833   4.553  0.3794 -0.0782 -2.8742
    7MOL   H526 3898   1.190   4.803   4.549 -1.3103 -0.3084 -0.0731
    7MOL   H527 3899   1.087   5.083   4.473  0.4769 -0.3376  0.6173
    7MOL   H528 3900   0.945   5.095   4.280  0.1509 -0.1392 -0.2225
    7MOL   H529 3901   1.005   4.933   4.287 -1.1133  0.4168 -2.5358
    7MOL   H530 3902   0.802   5.084   4.554 -0.1030 -0.2767 -0.3465
    7MOL   H531 3903   0.905   5.221   4.509 -2.2139  1.1588  0.9706
    7MOL   H532 3904   0.853   5.190   4.746  0.0556  0.9014  0.7978
    7MOL   H533 3905   1.027   5.199   4.720  1.6067 -1.2239 -1.5152
    7MOL   O534 3906   0.807   4.957   4.347 -0.1168 -0.1865 -0.3745
    7MOL   C535 3907   0.734   4.961   4.224 -0.0199 -0.8745  0.0391
    7MOL   C536 3908   0.625   4.845   4.208 -0.1284  0.2625 -0.1853
    7MOL   O537 3909   0.533   4.900   4.114 -0.0487 -0.4476  0.2695
    7MOL   C538 3910   0.693   4.724   4.149 -0.3245 -0.3723  0.2540
    7MOL   C539 3911   0.580   4.624   4.134  0.7765  0.1241  0.1456
    7MOL   C540 3912   0.628   4.476   4.103 -0.7982  0.5559 -0.4292
    7MOL   O541 3913   0.508   4.395   4.137 -0.3895  0.1497 -0.6936
    7MOL   C542 3914   0.755   4.433   4.182 -0.5601  0.0871 -1.0049
    7MOL   C543 3915   0.812   4.306   4.115  0.4227  0.0918  0.4752
    7MOL   C544 3916   0.860   4.542   4.190 -0.0520  0.2691  0.2683
    7MOL   C545 3917   0.802   4.669   4.244 -0.5787 -0.0860  0.2825
    7MOL   H546 3918   0.805   4.961   4.142 -2.4264  1.2455 -2.1607
    7MOL   H547 3919   0.693   5.062   4.232 -0.8627 -1.3642  2.2166
    7MOL   H548 3920   0.577   4.821   4.302 -0.4083 -0.3247 -0.4809
    7MOL   H549 3921   0.582   4.939   4.043 -0.6840  0.2678  0.2255
    7MOL   H550 3922   0.744   4.738   4.053 -0.6394 -1.6457 -0.1135
    7MOL   H551 3923   0.518   4.624   4.223  1.0866  0.7907  0.3610
    7MOL   H552 3924   0.510   4.645   4.054  1.8972 -1.0841 -1.1906
    7MOL   H553 3925   0.651   4.460   3.997  0.4954  1.8139 -0.3467
    7MOL   H554 3926   0.516   4.310   4.096  0.1709 -0.4952  0.7119
    7MOL   H555 3927   0.726   4.405   4.283 -0.8332 -1.0535 -1.3948
    7MOL   H556 3928   0.741   4.224   4.104  0.7834  0.1093 -2.3920
    7MOL   H557 3929   0.863   4.319   4.019  0.8045 -0.9272  0.5330
    7MOL   H558 3930   0.924   4.548   4.102 -1.7783 -1.0381 -1.1194
    7MOL   H559 3931   0.926   4.508   4.270  0.6333  0.5616 -0.1667
    7MOL   H560 3932   0.876   4.750   4.248 -1.4817  0.8499 -1.2751
    7MOL   H561 3933   0.755   4.653   4.340  1.0985 -1.7036  0.8526
    7MOL   H562 3934   0.895   4.270   4.175  1.6985  1.4977 -0.4029
    8MOL     O1 3935   0.027   4.076   4.740 -0.0263 -0.3574  0.2782
    8MOL     C2 3936   7.529   4.035   4.694 -0.2801 -0.1481  0.2396
    8MOL     C3 3937   7.540   4.013   4.538  0.5657  0.1283 -0.4422
    8MOL     O4 3938   7.581   4.138   4.508  0.1679 -0.3654  0.2485
    8MOL     C5 3939   0.015   3.914   4.498  0.2496 -0.0224 -0.4277
    8MOL     C6 3940   0.047   3.928   4.348 -0.1312  0.3759 -0.6083
    8MOL     C7 3941   0.133   3.819   4.298 -0.5695 -0.4278  0.1996
    8MOL     O8 3942   0.148   3.830   4.154  0.2966 -0.6141 -0.7640
    8MOL     C9 3943   0.089   3.678   4.328 -0.3171 -0.4669 -0.2864
    8MOL    C10 3944   0.178   3.566   4.266  0.2263 -0.5251 -0.2355
    8MOL    C11 3945   0.084   3.664   4.480 -0.1606 -0.3085 -1.1291
    8MOL    C12 3946   7.606   3.763   4.526  0.1392  0.2124 -0.9413
    8MOL    H13 3947   7.448   4.099   4.727 -1.0793  0.4187 -2.7261
    8MOL    H14 3948   7.509   3.938   4.738 -1.6276  0.3143  0.6686
    8MOL    H15 3949   7.442   4.003   4.492  0.8290  0.1291 -1.0107
    8MOL    H16 3950   7.624   4.168   4.587  2.8641 -0.1285 -1.2529
    8MOL    H17 3951   0.106   3.941   4.552  0.4092  1.6503 -1.5222
    8MOL    H18 3952   7.586   3.916   4.288 -1.4230 -1.1795  1.5597
    8MOL    H19 3953   0.081   4.028   4.321 -2.3976  1.1940 -0.5204
    8MOL    H20 3954   0.225   3.840   4.353  1.0972 -0.6389 -2.4064
    8MOL    H21 3955   0.219   3.771   4.131 -0.5985 -2.1414  0.3339
    8MOL    H22 3956   7.616   3.667   4.295 -0.9104  2.1981  0.5685
    8MOL    H23 3957   0.129   3.471   4.288  0.8300 -0.9342 -0.6593
    8MOL    H24 3958   0.169   3.571   4.157 -0.4123 -1.0114 -0.2092
    8MOL    H25 3959   0.177   3.696   4.528  0.0309 -0.5786 -1.3145
    8MOL    H26 3960   0.067   3.561   4.512  0.9246 -0.5137 -1.1821
    8MOL    H27 3961   7.600   3.738   4.632 -0.9976 -1.7017 -1.4467
    8MOL    H28 3962   7.512   3.750   4.473 -2.2010 -0.9490  3.2843
    8MOL    H29 3963   0.076   4.001   4.770  1.0697  0.6358  1.0062
    8MOL    O30 3964   0.315   3.592   4.296  0.2893  0.5684 -0.3685
    8MOL    C31 3965   0.372   3.508   4.397  0.3569 -0.1112 -0.2357
    8MOL    C32 3966   0.526   3.480   4.376  1.5252  0.0887  0.3528
    8MOL    O33 3967   0.571   3.420   4.502 -0.2253  0.0731  0.4835
    8MOL    C34 3968   0.554   3.385   4.247  0.8088 -0.2543 -0.7131
    8MOL    C35 3969   0.695   3.327   4.256 -0.2704  0.7981  0.2966
    8MOL    C36 3970   0.743   3.256   4.120 -0.2180 -0.1507  0.6376
    8MOL    O37 3971   0.871   3.209   4.151  0.5743 -0.4045 -0.6749
    8MOL    C38 3972   0.738   3.351   3.998 -0.3513  0.7913  0.1129
    8MOL    C39 3973   0.776   3.292   3.861 -0.6289 -0.0758  0.1204
    8MOL    C40 3974   0.591   3.415   3.991 -0.6066 -0.6252 -0.0923
    8MOL    C41 3975   0.550   3.478   4.131  0.6674 -0.8460  0.0099
    8MOL    H42 3976   0.319   3.413   4.402  1.4093 -0.7297 -0.5242
    8MOL    H43 3977   0.338   3.547   4.493  0.1041 -0.9765  0.0311
    8MOL    H44 3978   0.577   3.577   4.376  0.5687  0.5996 -0.5043
    8MOL    H45 3979   0.571   3.495   4.560  0.0157  0.0516  0.5086
    8MOL    H46 3980   0.484   3.302   4.240  0.0593  0.2809  0.3163
    8MOL    H47 3981   0.774   3.395   4.288  0.0986  0.0930  0.9076
    8MOL    H48 3982   0.693   3.238   4.319 -1.6949 -0.1621 -1.0670
    8MOL    H49 3983   0.681   3.168   4.101 -2.6460  1.4087  1.1635
    8MOL    H50 3984   0.917   3.200   4.069 -1.0290  0.6544 -1.7221
    8MOL    H51 3985   0.804   3.434   4.020 -0.0217  0.2093  1.3438
    8MOL    H52 3986   0.757   3.365   3.781  1.3802 -1.4855 -1.6864
    8MOL    H53 3987   0.883   3.271   3.856 -0.3097 -0.0863  5.0777
    8MOL    H54 3988   0.507   3.345   3.986  1.6288 -3.3526 -0.4495
    8MOL    H55 3989   0.591   3.486   3.909  1.3579  1.1296  1.3511
    8MOL    H56 3990   0.453   3.525   4.114  0.7813 -0.0906  1.3943
    8MOL    H57 3991   0.612   3.568   4.136  1.2433 -1.1712 -1.1058
    8MOL    O58 3992   0.693   3.174   3.841  0.1776 -0.2643  0.5032
    8MOL    C59 3993   0.701   3.108   3.714 -0.1162 -0.0818  0.7218
    8MOL    C60 3994   0.633   2.971   3.718 -0.4743  0.2458 -0.1006
    8MOL    O61 3995   0.644   2.920   3.586  0.3248 -0.2898  0.1046
    8MOL    C62 3996   0.690   2.872   3.820  0.6798 -0.7912 -0.0776
    8MOL    C63 3997   0.841   2.865   3.808 -0.3782 -0.4685  0.3967
    8MOL    C64 3998   0.911   2.768   3.900  0.8524  0.4730  0.0132
    8MOL    O65 3999   1.049   2.754   3.887 -0.0795  0.5343  0.3561
    8MOL    C66 4000   0.854   2.624   3.889  0.0867 -0.4446  0.1765
    8MOL    C67 4001   0.921   2.523   3.979  0.0019  0.2983 -0.6428
    8MOL    C68 4002   0.702   2.622   3.904  0.2161 -0.5481 -0.0109
    8MOL    C69 4003   0.624   2.724   3.819 -0.0341 -0.0656  0.1685
    8MOL    H70 4004   0.805   3.097   3.685 -0.6281  0.1911 -1.3286
    8MOL    H71 4005   0.648   3.168   3.640 -0.8932 -2.1777 -0.4575
    8MOL    H72 4006   0.529   2.989   3.747 -0.0573 -1.4375  2.4939
    8MOL    H73 4007   0.720   2.956   3.544 -1.0655 -1.2105 -3.3515
    8MOL    H74 4008   0.686   2.910   3.922  0.5918  0.8230 -0.6669
    8MOL    H75 4009   0.860   2.834   3.705  0.8263 -0.9505  0.7529
    8MOL    H76 4010   0.885   2.962   3.832 -0.1022 -0.7719  1.1257
    8MOL    H77 4011   0.903   2.795   4.005 -1.3320  1.2377 -0.3170
    8MOL    H78 4012   1.082   2.727   3.971 -0.2306  2.6216  1.1255
    8MOL    H79 4013   0.866   2.605   3.782 -2.4011 -1.2494 -0.0032
    8MOL    H80 4014   1.029   2.540   3.982  0.3081 -1.5643 -0.5681
    8MOL    H81 4015   0.884   2.545   4.079 -0.2638 -1.6851 -0.2719
    8MOL    H82 4016   0.674   2.636   4.009  0.1174  0.8368 -0.2179
    8MOL    H83 4017   0.665   2.530   3.859 -1.6910  0.8293 -1.3008
    8MOL    H84 4018   0.519   2.730   3.849 -0.0839  0.8754 -0.1768
    8MOL    H85 4019   0.623   2.690   3.715 -2.9055  0.2449  0.0607
    8MOL    O86 4020   0.896   2.390   3.945  0.7399  0.4306 -0.7412
    8MOL    C87 4021   0.977   2.340   3.841  0.8246 -0.2108  0.7107
    8MOL    C88 4022   0.917   2.202   3.794  0.2820 -0.9516  0.2723
    8MOL    O89 4023   0.985   2.103   3.868 -0.4073  0.4378 -0.5634
    8MOL    C90 4024   0.769   2.199   3.790 -0.7095 -0.0460  0.2365
    8MOL    C91 4025   0.716   2.055   3.748  0.7304 -0.9392 -0.5577
    8MOL    C92 4026   0.562   2.059   3.727 -0.0833 -0.0117  0.4157
    8MOL    O93 4027   0.544   1.931   3.682 -0.4362  0.1556 -0.1602
    8MOL    C94 4028   0.509   2.170   3.622 -0.2687  0.3631 -0.0563
    8MOL    C95 4029   0.360   2.185   3.611  0.0066  0.1757 -0.2812
    8MOL    C96 4030   0.570   2.308   3.665  0.5583 -0.3720 -0.4919
    8MOL    C97 4031   0.722   2.301   3.684  0.2886 -0.1751  0.1454
    8MOL    H98 4032   1.084   2.336   3.858  1.3379 -2.4822 -2.5639
    8MOL    H99 4033   0.973   2.403   3.753 -1.8827 -0.6860  0.4607
    8MOL   H100 4034   0.947   2.193   3.690 -1.1577  0.7016 -0.3018
    8MOL   H101 4035   0.954   2.022   3.833 -1.2723  0.2295  0.6468
    8MOL   H102 4036   0.725   2.213   3.889  1.3947 -1.6265  1.4247
    8MOL   H103 4037   0.760   2.008   3.660  1.3661 -0.0666 -0.7094
    8MOL   H104 4038   0.738   1.981   3.825 -1.2353 -0.0986  0.8436
    8MOL   H105 4039   0.505   2.079   3.818  2.0594  0.4289  1.6928
    8MOL   H106 4040   0.485   1.887   3.741 -1.5956  3.2745  1.0915
    8MOL   H107 4041   0.537   2.156   3.518 -1.9210 -1.8683 -0.2439
    8MOL   H108 4042   0.320   2.087   3.588  1.5148 -0.7594  0.9345
    8MOL   H109 4043   0.314   2.229   3.699  1.6348 -0.9340  1.1769
    8MOL   H110 4044   0.527   2.348   3.757 -1.4243 -1.8110 -0.7614
    8MOL   H111 4045   0.558   2.386   3.590  1.6144  1.5525  1.2755
    8MOL   H112 4046   0.757   2.403   3.704 -2.0491  0.3555  1.7117
    8MOL   H113 4047   0.769   2.279   3.588 -0.1606  0.2400 -0.1693
    8MOL   O114 4048   0.337   2.267   3.498 -0.5667 -0.1402  0.4643
    8MOL   C115 4049   0.203   2.306   3.481 -0.4957 -0.2963  0.2143
    8MOL   C116 4050   0.199   2.384   3.353 -0.2537  1.0634 -0.9944
    8MOL   O117 4051   0.068   2.431   3.325 -0.2553 -0.4426 -0.4762
    8MOL   C118 4052   0.298   2.504   3.346  0.7832  0.5126 -0.6824
    8MOL   C119 4053   0.292   2.600   3.466  0.3288 -0.2693  0.1999
    8MOL   C120 4054   0.411   2.695   3.450 -0.0246  0.3093  0.7895
    8MOL   O121 4055   0.406   2.784   3.562  0.2611 -0.1590  0.4177
    8MOL   C122 4056   0.401   2.780   3.314 -0.2993 -0.6078 -0.1639
    8MOL   C123 4057   0.513   2.885   3.299 -0.2783 -0.5557 -0.0699
    8MOL   C124 4058   0.409   2.687   3.194 -0.0664 -0.1547  0.0778
    8MOL   C125 4059   0.291   2.587   3.215 -0.0888 -0.0856  0.1709
    8MOL   H126 4060   0.167   2.360   3.569  1.4606  0.5583  0.5046
    8MOL   H127 4061   0.140   2.218   3.470  0.6214 -1.2003  1.0171
    8MOL   H128 4062   0.241   2.321   3.274 -1.2726  1.6492 -2.0230
    8MOL   H129 4063   0.059   2.445   3.232 -0.9209 -0.2463 -0.3876
    8MOL   H130 4064   0.397   2.460   3.350  0.5844  0.2019  1.4935
    8MOL   H131 4065   0.193   2.644   3.463 -0.0454 -1.1242 -0.2246
    8MOL   H132 4066   0.308   2.543   3.558 -1.7634 -1.4783 -0.1367
    8MOL   H133 4067   0.510   2.650   3.448 -0.7486 -1.2809 -0.2642
    8MOL   H134 4068   0.494   2.818   3.570  0.0139  0.0675  2.4879
    8MOL   H135 4069   0.301   2.821   3.321 -1.3134 -2.7165 -1.8393
    8MOL   H136 4070   0.511   2.952   3.385  2.7422 -2.2382  1.3765
    8MOL   H137 4071   0.612   2.841   3.308 -1.2430 -2.0827  4.1639
    8MOL   H138 4072   0.502   2.630   3.194 -1.2001 -2.0301  0.5275
    8MOL   H139 4073   0.395   2.735   3.097 -0.9279  0.9796  0.7473
    8MOL   H140 4074   0.283   2.513   3.135 -0.9967  0.6987 -0.4841
    8MOL   H141 4075   0.201   2.646   3.196 -0.2209  0.3338  2.0162
    8MOL   O142 4076   0.511   2.942   3.166 -0.1789  0.1652 -0.5008
    8MOL   C143 4077   0.388   3.010   3.145 -0.0844  0.4937  0.5110
    8MOL   C144 4078   0.408   3.094   3.019  0.9994 -0.0254 -0.1760
    8MOL   O145 4079   0.394   2.991   2.914 -0.1739 -0.1238  0.2147
    8MOL   C146 4080   0.288   3.187   2.988 -0.2966 -0.4581 -0.0398
    8MOL   C147 4081   0.151   3.125   2.954  0.8323  0.0862 -0.2140
    8MOL   C148 4082   0.044   3.232   2.938  0.7881  0.0274  0.3674
    8MOL   O149 4083   7.550   3.169   2.922  0.4319 -0.0991  0.4010
    8MOL   C150 4084   0.081   3.335   2.824 -0.2768 -0.8532  0.1244
    8MOL   C151 4085   7.615   3.456   2.814 -0.0612 -1.0625  0.0547
    8MOL   C152 4086   0.223   3.390   2.852 -1.0680  0.6444  0.2484
    8MOL   C153 4087   0.328   3.278   2.873 -0.2166 -0.1245  0.6097
    8MOL   H154 4088   0.368   3.077   3.229 -2.1991 -0.2829  0.6485
    8MOL   H155 4089   0.302   2.944   3.132 -1.9744  3.1274 -0.7605
    8MOL   H156 4090   0.506   3.142   3.013  1.7890 -1.7529 -1.2747
    8MOL   H157 4091   0.473   2.940   2.913  0.3562  0.6181  1.9263
    8MOL   H158 4092   0.278   3.253   3.075  1.8603  0.0371 -0.1411
    8MOL   H159 4093   0.156   3.062   2.865  0.5208  0.8971 -0.8085
    8MOL   H160 4094   0.112   3.063   3.034 -1.3963 -0.0413 -1.3710
    8MOL   H161 4095   0.044   3.287   3.032  0.3242  0.6582  0.0051
    8MOL   H162 4096   7.525   3.119   2.998 -1.7966 -2.2558 -1.6190
    8MOL   H163 4097   0.095   3.272   2.736  1.9950 -1.1131  0.6509
    8MOL   H164 4098   7.509   3.433   2.826 -0.2923 -0.2075 -0.2704
    8MOL   H165 4099   0.012   3.528   2.892  2.4031 -1.2135 -0.6283
    8MOL   H166 4100   0.225   3.449   2.944 -1.4073 -1.3690  1.5711
    8MOL   H167 4101   0.258   3.457   2.774 -2.2942 -0.2351 -1.0749
    8MOL   H168 4102   0.416   3.332   2.906 -1.3521  1.0346  1.8012
    8MOL   H169 4103   0.358   3.223   2.784 -0.9310  0.6788 -0.1400
    8MOL   O170 4104   0.005   3.506   2.684  0.2783 -0.3533 -0.2025
    8MOL   C171 4105   0.036   3.645   2.675 -0.5820 -0.2989  0.1276
    8MOL   C172 4106   7.623   3.711   2.547  0.2950  0.0328  0.2508
    8MOL   O173 4107   0.056   3.630   2.442  0.0913 -0.1926 -0.5418
    8MOL   C174 4108   7.469   3.735   2.529 -0.2340  0.4023  0.6173
    8MOL   C175 4109   7.392   3.605   2.479 -0.7624  0.0326  0.2112
    8MOL   C176 4110   7.236   3.629   2.472 -0.1155 -0.6172 -0.7622
    8MOL   O177 4111   7.175   3.506   2.444  0.5133 -0.6540 -0.0350
    8MOL   C178 4112   7.194   3.746   2.379 -0.1555 -0.4850  0.0494
    8MOL   C179 4113   7.042   3.787   2.374  0.8437  0.1302 -0.0763
    8MOL   C180 4114   7.279   3.872   2.417  0.1344 -0.7703 -0.2184
    8MOL   C181 4115   7.431   3.848   2.427  0.7131 -0.1650  0.4273
    8MOL   H182 4116   0.144   3.655   2.687 -0.2600 -1.3706 -1.7542
    8MOL   H183 4117   0.000   3.704   2.759 -0.9225  1.1263 -0.9953
    8MOL   H184 4118   0.047   3.802   2.572 -1.7003  1.5410 -0.8692
    8MOL   H185 4119   0.034   3.545   2.477  0.3581  0.9446  2.5415
    8MOL   H186 4120   7.431   3.771   2.625  1.5319 -0.5086  1.6773
    8MOL   H187 4121   7.428   3.588   2.377  1.4457  0.7634  0.8260
    8MOL   H188 4122   7.409   3.516   2.540 -0.8901  0.2846  0.6097
    8MOL   H189 4123   7.194   3.654   2.569  3.0374 -1.0184  0.7802
    8MOL   H190 4124   7.200   3.435   2.501 -0.4371 -0.4669  0.6165
    8MOL   H191 4125   7.209   3.709   2.278 -0.8491  0.3990 -0.3806
    8MOL   H192 4126   6.994   3.689   2.376  1.1196 -0.0477 -1.4405
    8MOL   H193 4127   7.014   3.824   2.472 -1.5877  0.3624 -0.8194
    8MOL   H194 4128   7.249   3.923   2.508  3.2206 -0.3113  0.5777
    8MOL   H195 4129   7.266   3.949   2.340  1.3198  0.2397  0.5725
    8MOL   H196 4130   7.476   3.942   2.459 -0.1658  1.1166 -2.0490
    8MOL   H197 4131   7.467   3.823   2.327 -1.7690 -2.4255  0.0520
    8MOL   O198 4132   7.032   3.874   2.264 -0.6741  0.2884  0.0394
    8MOL   C199 4133   6.894   3.914   2.250  0.2626  0.0532  0.8048
    8MOL   C200 4134   6.811   3.809   2.181 -0.0288 -0.6197 -0.0288
    8MOL   O201 4135   6.766   3.724   2.290  0.3298  0.1893 -0.3022
    8MOL   C202 4136   6.684   3.845   2.103  0.7680 -0.1715 -0.5625
    8MOL   C203 4137   6.727   3.879   1.964 -0.3566 -0.2865  0.6160
    8MOL   C204 4138   6.604   3.924   1.873 -0.4518 -0.4181  0.1317
    8MOL   O205 4139   6.653   3.969   1.749 -0.1285  0.1964 -0.0939
    8MOL   C206 4140   6.531   4.050   1.936  0.5068 -0.1217  0.1137
    8MOL   C207 4141   6.413   4.103   1.856 -0.5479 -0.1748  0.7207
    8MOL   C208 4142   6.487   4.007   2.082 -0.3548  0.3451  0.4491
    8MOL   C209 4143   6.610   3.966   2.164  0.2835 -0.2780 -0.3016
    8MOL   H210 4144   6.910   4.004   2.190 -2.8260  1.7429  2.3926
    8MOL   H211 4145   6.853   3.952   2.344  0.2823 -0.1299  0.8870
    8MOL   H212 4146   6.879   3.755   2.115  1.1870  1.9438 -0.9485
    8MOL   H213 4147   6.689   3.759   2.330  2.2122  1.8855  1.9503
    8MOL   H214 4148   6.612   3.763   2.098 -0.8351  1.1563  0.3386
    8MOL   H215 4149   6.802   3.957   1.974 -0.8639 -0.0040  2.6355
    8MOL   H216 4150   6.769   3.786   1.925  0.2213  0.6925 -1.1330
    8MOL   H217 4151   6.535   3.841   1.861  0.1680 -0.7841 -0.9025
    8MOL   H218 4152   6.700   3.901   1.702  1.2442  0.2997  1.1121
    8MOL   H219 4153   6.600   4.133   1.952  0.0701  0.0969  0.8895
    8MOL   H220 4154   6.433   4.099   1.749 -0.9654 -1.6688  0.6840
    8MOL   H221 4155   6.333   4.032   1.877 -1.2670 -0.5520 -3.0004
    8MOL   H222 4156   6.407   3.933   2.090 -0.5575  0.3488 -1.2066
    8MOL   H223 4157   6.447   4.094   2.134  0.5902  0.7916  0.4385
    8MOL   H224 4158   6.574   3.948   2.266 -1.2253  0.9499 -0.6033
    8MOL   H225 4159   6.675   4.053   2.174 -0.5511  0.5158 -1.6039
    8MOL   O226 4160   6.395   4.239   1.905 -0.0964  0.2460  0.6718
    8MOL   C227 4161   6.322   4.319   1.813  0.5757  0.4727 -0.0375
    8MOL   C228 4162   6.309   4.467   1.853  0.1655 -0.2573 -0.3299
    8MOL   O229 4163   6.306   4.560   1.748  0.5267  0.1850  0.0955
    8MOL   C230 4164   6.188   4.495   1.947  0.5099 -0.1732 -0.4089
    8MOL   C231 4165   6.180   4.644   1.994 -0.2776 -0.0202 -0.4030
    8MOL   C232 4166   6.048   4.667   2.065  0.2341 -0.4082  0.5543
    8MOL   O233 4167   6.045   4.807   2.094 -0.2200 -0.0076 -0.4410
    8MOL   C234 4168   6.031   4.580   2.188  0.1533  0.4600  0.3769
    8MOL   C235 4169   5.898   4.592   2.263  1.0551  0.0682  0.6051
    8MOL   C236 4170   6.067   4.429   2.158 -0.4357 -0.6629  0.1944
    8MOL   C237 4171   6.192   4.404   2.074  0.1701  0.9331 -0.4016
    8MOL   H238 4172   6.223   4.273   1.806  0.9556 -0.5876  1.3378
    8MOL   H239 4173   6.357   4.326   1.710 -2.0603  1.3369 -0.9157
    8MOL   H240 4174   6.402   4.481   1.908  0.6624  0.9031 -1.4296
    8MOL   H241 4175   6.397   4.586   1.745  0.5736 -0.1235 -1.7723
    8MOL   H242 4176   6.094   4.474   1.896 -0.6002  2.1800  0.5838
    8MOL   H243 4177   6.266   4.661   2.058  0.2723 -3.3349 -0.1588
    8MOL   H244 4178   6.194   4.709   1.909 -1.8483  1.9310  0.7883
    8MOL   H245 4179   5.962   4.649   2.001  0.2697  1.9461 -0.2168
    8MOL   H246 4180   6.091   4.822   2.175  0.1491  0.3236 -0.7085
    8MOL   H247 4181   6.113   4.603   2.255  0.7382 -2.3387  0.6912
    8MOL   H248 4182   5.866   4.696   2.267  0.9125 -0.0027  1.4268
    8MOL   H249 4183   5.816   4.552   2.203  1.4266 -0.8416  0.6915
    8MOL   H250 4184   5.981   4.385   2.107 -1.0558 -1.2321  1.6979
    8MOL   H251 4185   6.084   4.370   2.248 -0.2585 -0.8590  0.0348
    8MOL   H252 4186   6.193   4.302   2.035 -0.2550 -0.1518  2.3022
    8MOL   H253 4187   6.286   4.418   2.129  1.3666  2.3700 -2.7418
    8MOL   O254 4188   5.888   4.518   2.386 -0.6228 -0.5667  0.4559
    8MOL   C255 4189   5.951   4.584   2.493 -0.3912  1.1990 -0.2236
    8MOL   C256 4190   5.852   4.686   2.559 -0.5007 -0.1019  0.4852
    8MOL   O257 4191   5.744   4.615   2.607 -0.4772 -0.0845  0.1693
    8MOL   C258 4192   5.907   4.779   2.669 -0.4271  0.0406  0.0094
    8MOL   C259 4193   5.965   4.698   2.790  0.3936  0.6391 -0.1878
    8MOL   C260 4194   6.017   4.786   2.910 -0.1327  1.0154  0.0233
    8MOL   O261 4195   6.056   4.707   3.020  0.5067  0.3454  0.1043
    8MOL   C262 4196   5.908   4.887   2.947 -0.1709 -0.5085 -0.2378
    8MOL   C263 4197   5.949   4.965   3.074 -0.3425 -0.5480 -0.4170
    8MOL   C264 4198   5.874   4.979   2.825 -0.7879  0.2395  0.4703
    8MOL   C265 4199   5.816   4.901   2.709  1.0258 -0.4298  0.2280
    8MOL   H266 4200   6.033   4.644   2.455  1.9511 -1.4128  0.5200
    8MOL   H267 4201   5.981   4.515   2.572 -0.7733  0.9437 -0.2990
    8MOL   H268 4202   5.809   4.740   2.475 -1.2943  0.6575  1.3727
    8MOL   H269 4203   5.723   4.555   2.538  0.8900 -0.0290 -0.3132
    8MOL   H270 4204   5.990   4.832   2.623  1.3452  0.3792  3.4184
    8MOL   H271 4205   5.897   4.623   2.831 -0.6265  1.4943 -0.2867
    8MOL   H272 4206   6.050   4.637   2.759  1.6383  0.9312  2.4783
    8MOL   H273 4207   6.104   4.841   2.873  0.1002  0.0639 -0.8577
    8MOL   H274 4208   6.119   4.642   2.994  0.6296  0.1557  0.8524
    8MOL   H275 4209   5.810   4.843   2.970 -0.0743 -1.6326 -1.9322
    8MOL   H276 4210   5.949   4.907   3.165 -0.1818 -0.7625 -0.5547
    8MOL   H277 4211   6.050   4.993   3.043  0.1124 -0.8965  0.7586
    8MOL   H278 4212   5.962   5.039   2.804 -1.9013  2.4631  1.9481
    8MOL   H279 4213   5.805   5.059   2.849 -0.3994  0.5639  0.5107
    8MOL   H280 4214   5.806   4.967   2.623  2.0608 -2.6977 -1.6636
    8MOL   H281 4215   5.717   4.869   2.743  0.9445 -0.2174  0.1894
    8MOL   O282 4216   5.871   5.083   3.091  0.7389  0.3160  0.3024
    8MOL   C283 4217   5.765   5.062   3.191  0.2229  1.1418  0.3565
    8MOL   C284 4218   5.669   5.180   3.177  0.5851  0.6334 -0.5689
    8MOL   O285 4219   5.722   5.287   3.242 -0.0637  0.3321  0.3744
    8MOL   C286 4220   5.614   5.217   3.029  0.0815 -0.1176 -0.1134
    8MOL   C287 4221   5.516   5.339   3.020 -0.5231  0.0998 -0.6990
    8MOL   C288 4222   5.483   5.367   2.876  0.1845  0.1168 -0.0027
    8MOL   O289 4223   5.409   5.500   2.874  0.6317 -0.5670 -0.2387
    8MOL   C290 4224   5.405   5.253   2.820 -0.7398  0.3969  0.4906
    8MOL   C291 4225   5.333   5.277   2.687 -0.1637  0.0854  0.0370
    8MOL   C292 4226   5.505   5.134   2.809 -0.8040 -0.2370 -0.1959
    8MOL   C293 4227   5.545   5.095   2.950 -0.5292 -0.2119 -0.2632
    8MOL   H294 4228   5.815   5.054   3.288 -0.2873 -2.1221  0.4034
    8MOL   H295 4229   5.718   4.968   3.161  2.4334  0.2591 -0.5190
    8MOL   H296 4230   5.587   5.139   3.235  0.9935  0.4214 -0.1307
    8MOL   H297 4231   5.656   5.315   3.304 -0.8760  0.3388 -0.4809
    8MOL   H298 4232   5.707   5.251   2.983 -0.3542  1.2050 -0.0178
    8MOL   H299 4233   5.427   5.329   3.082 -0.2713  1.5987 -0.0780
    8MOL   H300 4234   5.573   5.426   3.053  0.5401 -0.3434 -1.3378
    8MOL   H301 4235   5.572   5.370   2.813 -0.7205 -1.7869 -1.4039
    8MOL   H302 4236   5.340   5.498   2.939  2.8569  0.1025  2.2265
    8MOL   H303 4237   5.320   5.233   2.886 -1.2913 -2.4646 -0.9941
    8MOL   H304 4238   5.254   5.203   2.672 -1.3442  1.5418 -1.0777
    8MOL   H305 4239   5.275   5.369   2.684 -1.1524 -0.5107  0.4444
    8MOL   H306 4240   5.589   5.156   2.742  0.2488 -0.9933  0.8459
    8MOL   H307 4241   5.460   5.046   2.763 -0.9034 -1.5451  2.3391
    8MOL   H308 4242   5.604   5.003   2.951 -1.0288 -0.5323  0.5795
    8MOL   H309 4243   5.450   5.068   2.996 -0.3249 -0.5720 -0.0502
    8MOL   O310 4244   5.421   5.261   2.580  0.0258  0.0982 -0.0126
    8MOL   C311 4245   5.370   5.291   2.450  0.1172  0.0445 -0.3441
    8MOL   C312 4246   5.285   5.174   2.403 -0.9673 -0.5585  0.5356
    8MOL   O313 4247   5.210   5.222   2.299 -0.5178 -0.1176  0.3607
    8MOL   C314 4248   5.373   5.054   2.357 -0.2932  0.7648 -0.1398
    8MOL   C315 4249   5.292   4.949   2.278 -0.3566  0.0326  0.5527
    8MOL   C316 4250   5.381   4.833   2.235  0.0459 -0.8129  0.5618
    8MOL   O317 4251   5.304   4.744   2.159 -0.2076  0.4505  0.0607
    8MOL   C318 4252   5.456   4.771   2.353  0.5942  0.3511  0.6027
    8MOL   C319 4253   5.533   4.642   2.307 -0.3703 -0.0193  0.1891
    8MOL   C320 4254   5.546   4.871   2.428 -0.3554 -0.0196  0.8319
    8MOL   C321 4255   5.460   4.993   2.467  0.1034 -0.3750  0.2352
    8MOL   H322 4256   5.456   5.297   2.383  1.0390 -0.8558  0.7436
    8MOL   H323 4257   5.325   5.390   2.453  0.6691  0.3389 -1.2811
    8MOL   H324 4258   5.213   5.143   2.479 -1.4556  1.3554  0.8895
    8MOL   H325 4259   5.265   5.279   2.247 -1.0039  1.0439  1.0947
    8MOL   H326 4260   5.448   5.084   2.284 -0.8865  0.2685 -0.9664
    8MOL   H327 4261   5.213   4.905   2.339 -1.4408 -0.7172 -1.3673
    8MOL   H328 4262   5.239   4.988   2.191 -0.2656  1.1872  0.9980
    8MOL   H329 4263   5.454   4.878   2.167  0.2697  0.0623  1.3588
    8MOL   H330 4264   5.359   4.678   2.119 -0.7449  0.3208 -0.4773
    8MOL   H331 4265   5.384   4.729   2.422  0.7044  1.2445  1.2656
    8MOL   H332 4266   5.593   4.655   2.216  1.3861  0.2529  1.3588
    8MOL   H333 4267   5.603   4.618   2.387  1.0579 -0.7947 -1.2607
    8MOL   H334 4268   5.621   4.910   2.360 -1.4766 -2.0005 -1.5853
    8MOL   H335 4269   5.601   4.827   2.511  1.8596  0.3957 -0.3939
    8MOL   H336 4270   5.528   5.068   2.505  0.3425  0.1730 -1.2405
    8MOL   H337 4271   5.387   4.974   2.546  2.2477 -2.4737  1.7735
    8MOL   O338 4272   5.445   4.530   2.294  0.5005 -0.1254 -0.4585
    8MOL   C339 4273   5.501   4.400   2.296  0.4276  0.8154 -0.4632
    8MOL   C340 4274   5.406   4.310   2.216 -0.0877 -0.1540 -0.0734
    8MOL   O341 4275   5.275   4.324   2.267 -0.2432 -0.1045  0.4295
    8MOL   C342 4276   5.400   4.346   2.055 -0.4810 -0.4087  0.0764
    8MOL   C343 4277   5.270   4.297   1.980  0.0845 -0.4106  0.9309
    8MOL   C344 4278   5.265   4.338   1.829 -0.6633 -0.5189  0.5788
    8MOL   O345 4279   5.147   4.277   1.776 -0.4535 -0.4878 -0.0796
    8MOL   C346 4280   5.389   4.299   1.750 -0.8932 -0.5086  0.5421
    8MOL   C347 4281   5.395   4.366   1.610  0.0470 -0.7363  0.4342
    8MOL   C348 4282   5.519   4.330   1.828 -0.7541 -0.4332  0.2253
    8MOL   C349 4283   5.527   4.301   1.981 -0.5064  0.2633  0.1468
    8MOL   H350 4284   5.530   4.372   2.398 -2.1179 -1.3304 -0.2859
    8MOL   H351 4285   5.598   4.401   2.247 -0.4399  3.0182 -2.2174
    8MOL   H352 4286   5.436   4.205   2.218  1.6075  0.3229  0.0898
    8MOL   H353 4287   5.275   4.411   2.303 -1.1100 -0.3939  1.1375
    8MOL   H354 4288   5.398   4.454   2.048 -2.2479 -0.4522 -0.4432
    8MOL   H355 4289   5.259   4.189   1.985  2.1674 -0.5945  2.7594
    8MOL   H356 4290   5.178   4.326   2.029 -2.7958 -0.1216 -4.3325
    8MOL   H357 4291   5.253   4.446   1.828  2.3503 -0.1146  1.8904
    8MOL   H358 4292   5.168   4.188   1.753  3.3514  0.2771  0.0658
    8MOL   H359 4293   5.382   4.191   1.732  0.3533 -0.9842  2.8120
    8MOL   H360 4294   5.291   4.372   1.577 -0.2079  0.1487  1.3874
    8MOL   H361 4295   5.421   4.471   1.618 -2.6994  0.0211 -0.0669
    8MOL   H362 4296   5.553   4.427   1.793  0.5423 -0.8289  0.3708
    8MOL   H363 4297   5.593   4.266   1.780 -1.3512 -0.6927 -0.3685
    8MOL   H364 4298   5.614   4.354   2.019 -0.5216 -0.4550  1.2306
    8MOL   H365 4299   5.539   4.196   2.010 -0.9565  0.5170  1.2825
    8MOL   O366 4300   5.487   4.305   1.523  0.6904 -0.2335 -0.9220
    8MOL   C367 4301   5.441   4.184   1.453  0.2901 -0.3671 -0.2701
    8MOL   C368 4302   5.557   4.133   1.355  0.2276  0.3561 -0.4290
    8MOL   O369 4303   5.561   4.212   1.240  0.6831  0.2476 -0.5801
    8MOL   C370 4304   5.689   4.134   1.433  0.2905 -0.2037  0.2645
    8MOL   C371 4305   5.812   4.104   1.342  0.1078 -0.0662 -0.6183
    8MOL   C372 4306   5.942   4.112   1.432 -0.3348 -0.3592  0.1350
    8MOL   O373 4307   6.058   4.075   1.354  0.3311  0.0969 -1.3119
    8MOL   C374 4308   5.931   4.016   1.555 -0.3092 -0.1965  0.7877
    8MOL   C375 4309   6.052   4.027   1.660  0.1897 -0.8650 -0.3403
    8MOL   C376 4310   5.808   4.038   1.638 -0.5061 -0.1140  0.8282
    8MOL   C377 4311   5.685   4.033   1.550 -0.3219  0.3346  0.2072
    8MOL   H378 4312   5.350   4.194   1.394 -0.9247 -0.2743  1.5667
    8MOL   H379 4313   5.414   4.114   1.532 -2.0817 -0.6840 -1.3253
    8MOL   H380 4314   5.544   4.028   1.330  0.6391  0.2844 -0.3410
    8MOL   H381 4315   5.599   4.170   1.165  0.2600 -0.0666 -0.6201
    8MOL   H382 4316   5.702   4.231   1.482 -0.8044 -0.0673  0.3018
    8MOL   H383 4317   5.799   4.012   1.285 -4.3841 -0.2063  0.4816
    8MOL   H384 4318   5.818   4.183   1.268  1.2997  0.5695  0.1235
    8MOL   H385 4319   5.956   4.216   1.462  1.1459 -0.2688 -0.7895
    8MOL   H386 4320   6.090   4.153   1.312  0.3753  1.4651  1.1499
    8MOL   H387 4321   5.928   3.915   1.514 -2.9517  0.9016 -1.8707
    8MOL   H388 4322   6.151   4.022   1.616  0.2393 -0.2737 -0.3035
    8MOL   H389 4323   6.055   4.123   1.711 -0.2671 -0.9605 -0.1357
    8MOL   H390 4324   5.813   4.129   1.697 -1.4189  2.0310 -2.2908
    8MOL   H391 4325   5.790   3.959   1.711  4.0599  0.5888  2.8773
    8MOL   H392 4326   5.609   4.065   1.622  1.2486 -0.1707  2.1247
    8MOL   H393 4327   5.664   3.931   1.519  1.1420  0.4560 -1.2490
    8MOL   O394 4328   6.049   3.926   1.753 -0.1210 -0.0853  0.3580
    8MOL   C395 4329   6.083   3.791   1.714  0.4248  0.1665 -0.7229
    8MOL   C396 4330   6.080   3.710   1.844 -0.1011 -0.6039  0.6118
    8MOL   O397 4331   6.174   3.773   1.927 -0.5460 -0.2302 -0.0626
    8MOL   C398 4332   5.949   3.699   1.921 -0.3743 -0.2501 -0.2330
    8MOL   C399 4333   5.975   3.602   2.050  0.1136 -0.4023 -0.1936
    8MOL   C400 4334   5.847   3.559   2.118  0.1323  0.2742  0.7048
    8MOL   O401 4335   5.899   3.455   2.202  0.2999 -0.3073 -0.7575
    8MOL   C402 4336   5.739   3.510   2.013  0.1425 -0.2553  0.1386
    8MOL   C403 4337   5.605   3.464   2.080 -0.0673 -0.2624 -0.8062
    8MOL   C404 4338   5.718   3.605   1.892 -0.5355 -0.0684 -0.6654
    8MOL   C405 4339   5.850   3.637   1.829  0.5952 -0.6833  0.2131
    8MOL   H406 4340   6.187   3.781   1.681  1.5098 -0.4467  2.6588
    8MOL   H407 4341   6.020   3.751   1.635  0.7880 -1.4011 -0.2579
    8MOL   H408 4342   6.120   3.611   1.825  3.3923  1.0111 -1.0010
    8MOL   H409 4343   6.168   3.867   1.919 -0.0922 -0.2513 -0.7235
    8MOL   H410 4344   5.923   3.797   1.963  0.2215  0.8458 -2.3568
    8MOL   H411 4345   6.031   3.512   2.026  0.1785 -1.3947  3.4310
    8MOL   H412 4346   6.035   3.657   2.123 -2.3306  0.4445  1.2265
    8MOL   H413 4347   5.804   3.638   2.179 -0.3561  1.4973 -1.1714
    8MOL   H414 4348   5.940   3.500   2.274  1.1700 -0.8817 -0.8839
    8MOL   H415 4349   5.785   3.419   1.975 -0.1719 -0.6314  0.6561
    8MOL   H416 4350   5.621   3.367   2.128 -3.9641 -0.9421 -0.6943
    8MOL   H417 4351   5.582   3.529   2.165  1.9621 -1.3608  0.6329
    8MOL   H418 4352   5.665   3.694   1.925 -1.0097 -0.9821  1.1233
    8MOL   H419 4353   5.656   3.555   1.818 -0.7773 -0.2564 -0.3366
    8MOL   H420 4354   5.835   3.704   1.744  1.6861 -0.5560  0.1186
    8MOL   H421 4355   5.893   3.551   1.779  0.3014 -0.4949 -0.3631
    8MOL   O422 4356   5.497   3.450   1.986 -0.2367 -0.2951  0.4523
    8MOL   C423 4357   5.376   3.436   2.054  1.1684  0.5302  0.1154
    8MOL   C424 4358   5.259   3.466   1.957 -0.6058 -0.2787  0.5440
    8MOL   O425 4359   5.282   3.599   1.915  0.3517  0.3426  0.2242
    8MOL   C426 4360   5.249   3.378   1.829  0.1561 -0.2686  0.0398
    8MOL   C427 4361   5.172   3.445   1.709  0.0541 -0.2768 -0.5073
    8MOL   C428 4362   5.148   3.342   1.602 -0.0816  0.8351  0.0744
    8MOL   O429 4363   5.083   3.405   1.487 -0.3360  0.0074 -0.3279
    8MOL   C430 4364   5.062   3.224   1.635 -0.3730 -0.2545 -0.3345
    8MOL   C431 4365   5.034   3.121   1.518 -0.1786 -0.3623 -0.6107
    8MOL   C432 4366   5.136   3.153   1.747  0.0079 -0.3022 -0.1423
    8MOL   C433 4367   5.177   3.245   1.872 -0.1393  0.0751 -0.5320
    8MOL   H434 4368   5.378   3.509   2.135  2.2758  1.8095 -1.0443
    8MOL   H435 4369   5.379   3.332   2.085 -1.8068  0.2288 -0.4332
    8MOL   H436 4370   5.165   3.461   2.011 -1.8703  3.6980 -1.0554
    8MOL   H437 4371   5.375   3.612   1.915  0.6140 -1.1910 -2.7672
    8MOL   H438 4372   5.348   3.347   1.797  1.2342  0.9170  2.1175
    8MOL   H439 4373   5.082   3.488   1.754  1.5203 -1.4724  3.8840
    8MOL   H440 4374   5.233   3.525   1.668 -0.0712  1.1139  1.9252
    8MOL   H441 4375   5.247   3.305   1.577 -0.9296 -1.6445  0.1979
    8MOL   H442 4376   5.145   3.414   1.416  0.0910 -0.0963  0.0233
    8MOL   H443 4377   4.963   3.250   1.674 -1.6716 -1.0935 -2.9035
    8MOL   H444 4378   4.986   3.171   1.433  2.6633  1.6386 -1.1166
    8MOL   H445 4379   5.127   3.089   1.470  0.5918  1.0374 -0.0862
    8MOL   H446 4380   5.226   3.112   1.701  0.1111  0.1553 -0.3490
    8MOL   H447 4381   5.078   3.074   1.796 -0.6240  1.3245  1.8015
    8MOL   H448 4382   5.248   3.195   1.938 -0.1732  0.6811 -0.0402
    8MOL   H449 4383   5.085   3.277   1.921 -0.0313  1.6264 -1.3198
    8MOL   O450 4384   4.955   3.012   1.574 -0.4768  0.0993  0.5719
    8MOL   C451 4385   4.942   2.904   1.482 -0.0926  0.1600  0.4311
    8MOL   C452 4386   4.861   2.781   1.524 -0.2071 -0.2541 -0.1989
    8MOL   O453 4387   4.748   2.839   1.583 -0.6085  0.0325  0.2387
    8MOL   C454 4388   4.833   2.683   1.415  0.1993  0.4617 -0.1889
    8MOL   C455 4389   4.703   2.597   1.435 -0.5961 -0.2985 -0.4811
    8MOL   C456 4390   4.684   2.496   1.315 -0.4985  0.0455 -0.5468
    8MOL   O457 4391   4.573   2.417   1.328 -0.0510 -0.5776 -0.0568
    8MOL   C458 4392   4.810   2.400   1.303  0.3102  0.1696  0.0021
    8MOL   C459 4393   4.808   2.293   1.188 -0.0801 -0.2426  0.5397
    8MOL   C460 4394   4.935   2.485   1.282  0.2874  0.8903 -0.0432
    8MOL   C461 4395   4.958   2.588   1.390 -0.1825 -0.1378 -0.4662
    8MOL   H462 4396   5.041   2.865   1.459  1.0545  1.7407  2.4840
    8MOL   H463 4397   4.898   2.944   1.391  0.6052  1.8162  0.8081
    8MOL   H464 4398   4.901   2.723   1.607  1.7104 -3.1575 -3.0306
    8MOL   H465 4399   4.782   2.907   1.639  3.4762 -0.1058 -1.8995
    8MOL   H466 4400   4.817   2.731   1.319 -0.2070 -2.1462 -1.4549
    8MOL   H467 4401   4.729   2.537   1.522 -0.3853 -0.9448 -0.9904
    8MOL   H468 4402   4.612   2.656   1.447 -0.9205 -0.6439 -1.2160
    8MOL   H469 4403   4.690   2.557   1.224  2.0221  1.1521  0.3074
    8MOL   H470 4404   4.565   2.392   1.419 -1.7540 -1.1295 -0.3287
    8MOL   H471 4405   4.832   2.350   1.397  1.3225  0.6987  0.0567
    8MOL   H472 4406   4.705   2.263   1.167 -1.0691  1.1468  3.1776
    8MOL   H473 4407   4.849   2.316   1.089  0.0695 -0.7574  0.4776
    8MOL   H474 4408   4.929   2.546   1.192  0.7312 -0.3601 -0.9249
    8MOL   H475 4409   5.020   2.423   1.256  1.0065  2.1733 -0.7795
    8MOL   H476 4410   5.042   2.653   1.363  0.0947 -0.6481 -0.8551
    8MOL   H477 4411   4.984   2.542   1.486 -0.4605  0.8511  0.0937
    8MOL   O478 4412   4.887   2.180   1.228  0.1273 -0.5842  0.7179
    8MOL   C479 4413   4.857   2.064   1.162 -0.0512 -0.1582 -0.1241
    8MOL   C480 4414   4.968   1.959   1.188 -0.0735  0.0841  0.1633
    8MOL   O481 4415   4.926   1.836   1.240  0.8776  0.4000 -0.8075
    8MOL   C482 4416   5.065   1.922   1.072  0.1747  0.0030  0.1163
    8MOL   C483 4417   5.153   2.041   1.026 -0.4987  0.4944  0.4842
    8MOL   C484 4418   5.258   1.990   0.927  0.4215  0.0116 -0.1767
    8MOL   O485 4419   5.324   2.100   0.876 -0.2190  0.0178 -0.6756
    8MOL   C486 4420   5.198   1.906   0.814  0.4835 -0.2686 -0.0447
    8MOL   C487 4421   5.304   1.861   0.715  0.8586  0.2476  0.4470
    8MOL   C488 4422   5.104   1.789   0.862  0.1719 -0.3171 -0.3578
    8MOL   C489 4423   4.989   1.851   0.955  0.0854 -0.0435 -0.5408
    8MOL   H490 4424   4.848   2.068   1.054  0.9927  1.6421 -0.1588
    8MOL   H491 4425   4.758   2.035   1.198  0.7038 -0.9166  1.3981
    8MOL   H492 4426   5.036   1.989   1.268 -0.2178 -0.2941  0.4263
    8MOL   H493 4427   4.997   1.777   1.260  0.4549 -0.3239 -1.4063
    8MOL   H494 4428   5.137   1.847   1.105 -1.6819 -1.9727 -0.1601
    8MOL   H495 4429   5.090   2.121   0.986  0.0426  0.2692 -0.8322
    8MOL   H496 4430   5.194   2.103   1.105  1.0097  1.0490 -0.7133
    8MOL   H497 4431   5.323   1.925   0.984  0.6746 -0.1258 -0.6164
    8MOL   H498 4432   5.264   2.160   0.835 -1.8225 -0.5728  0.7276
    8MOL   H499 4433   5.132   1.981   0.771  0.7238  0.7466  1.3186
    8MOL   H500 4434   5.354   1.955   0.689 -2.6915  1.3411 -3.0131
    8MOL   H501 4435   5.364   1.793   0.774 -2.3814 -1.7058  1.5992
    8MOL   H502 4436   5.169   1.715   0.911 -1.0745 -1.2023 -0.0150
    8MOL   H503 4437   5.064   1.748   0.769  0.1945  0.2839 -0.6340
    8MOL   H504 4438   4.917   1.777   0.992 -0.3778  0.5587 -0.2374
    8MOL   H505 4439   4.920   1.922   0.911 -0.3126 -0.2481 -0.2527
    8MOL   O506 4440   5.240   1.806   0.603 -0.4521 -0.2282  0.1445
    8MOL   C507 4441   5.322   1.768   0.490  0.5600 -0.6709 -1.2371
    8MOL   C508 4442   5.380   1.885   0.399  0.9425 -0.2226 -0.4130
    8MOL   O509 4443   5.480   1.833   0.314 -0.6962  0.5636 -0.2228
    8MOL   C510 4444   5.281   1.968   0.314 -0.3286 -0.2506 -0.8199
    8MOL   C511 4445   5.348   2.077   0.220  0.2137  0.7539 -0.6570
    8MOL   C512 4446   5.241   2.146   0.126  0.0301  0.1024 -0.4792
    8MOL   O513 4447   5.302   2.260   0.056  0.1435  0.8966 -0.3577
    8MOL   C514 4448   5.132   2.206   0.217  0.2312  0.5294 -0.3370
    8MOL   C515 4449   5.025   2.267   0.135  0.0033 -0.2836 -0.2617
    8MOL   C516 4450   5.068   2.109   0.314  0.0148  0.2215 -0.1498
    8MOL   C517 4451   5.173   2.041   0.400 -0.3002 -0.3370 -0.3779
    8MOL   H518 4452   5.279   1.699   0.417  0.5709 -0.6936 -1.2218
    8MOL   H519 4453   5.391   1.699   0.539 -3.1757 -3.0927  0.8916
    8MOL   H520 4454   5.428   1.956   0.466  0.0846  0.0979 -0.1232
    8MOL   H521 4455   5.447   1.753   0.275  0.5385 -0.5410  0.9465
    8MOL   H522 4456   5.231   1.894   0.253 -2.2537  0.5066 -0.2205
    8MOL   H523 4457   5.397   2.150   0.286 -1.5586  0.7099  0.7296
    8MOL   H524 4458   5.429   2.028   0.166  0.9647  0.7377  0.4748
    8MOL   H525 4459   5.207   2.077   0.049 -1.6006  1.8677 -1.3687
    8MOL   H526 4460   5.268   2.255   7.597 -1.3632  4.7331 -0.0808
    8MOL   H527 4461   5.175   2.283   0.281  1.0582 -0.4251  0.2807
    8MOL   H528 4462   5.068   2.327   0.054 -0.3506  2.4914  1.5445
    8MOL   H529 4463   4.977   2.192   0.072  0.1008 -0.2376 -0.3891
    8MOL   H530 4464   5.020   2.039   0.246 -0.7160  1.4755 -0.9343
    8MOL   H531 4465   4.993   2.160   0.375 -0.3604 -0.0889 -0.3470
    8MOL   H532 4466   5.121   1.969   0.463  1.0366  0.7119  1.9489
    8MOL   H533 4467   5.223   2.094   0.480 -2.1557 -1.7667  1.7842
    8MOL   O534 4468   4.932   2.359   0.191  0.5286  0.5343  0.1975
    8MOL   C535 4469   4.795   2.338   0.164 -0.7140 -0.5793 -0.7290
    8MOL   C536 4470   4.725   2.464   0.205  0.1181  0.3696 -0.1842
    8MOL   O537 4471   4.703   2.554   0.095  0.2065 -0.4199  0.6454
    8MOL   C538 4472   4.591   2.440   0.276 -0.1604  0.2460  0.3445
    8MOL   C539 4473   4.492   2.368   0.186  0.4522 -0.0551  0.6646
    8MOL   C540 4474   4.343   2.369   0.243 -0.7841 -0.1964  0.2107
    8MOL   O541 4475   4.241   2.315   0.162  0.1510 -0.3133 -0.7373
    8MOL   C542 4476   4.301   2.513   0.279  0.4519  0.1187 -0.0538
    8MOL   C543 4477   4.154   2.516   0.328  0.5023  0.2563 -0.3258
    8MOL   C544 4478   4.393   2.557   0.383  0.9465 -0.1530 -0.2326
    8MOL   C545 4479   4.536   2.575   0.328  1.1815 -0.5290  0.3200
    8MOL   H546 4480   4.781   2.247   0.221 -0.2598  0.4518  1.0615
    8MOL   H547 4481   4.773   2.308   0.061 -0.6094  2.0276 -1.5453
    8MOL   H548 4482   4.786   2.521   0.275  1.5693  0.5255 -1.5671
    8MOL   H549 4483   4.719   2.644   0.118 -0.5281 -0.0383 -0.3195
    8MOL   H550 4484   4.615   2.380   0.364 -2.6398 -0.5563  0.5093
    8MOL   H551 4485   4.484   2.419   0.090 -3.1795  0.3685  1.1171
    8MOL   H552 4486   4.522   2.266   0.161  3.1197  1.4366 -2.6013
    8MOL   H553 4487   4.346   2.305   0.331  1.4987 -0.9851 -0.4072
    8MOL   H554 4488   4.235   2.354   0.076 -0.5523  1.0908 -0.0614
    8MOL   H555 4489   4.315   2.580   0.194 -0.2263 -1.0448 -1.0974
    8MOL   H556 4490   4.126   2.441   0.402 -1.8360  1.1157 -0.2912
    8MOL   H557 4491   4.127   2.605   0.384  0.4576 -0.8453  1.4397
    8MOL   H558 4492   4.379   2.496   0.472 -1.1152  1.4904  0.6048
    8MOL   H559 4493   4.353   2.651   0.421  2.6181  0.0891  0.9752
    8MOL   H560 4494   4.602   2.606   0.409  1.4693  0.2995 -0.2309
    8MOL   H561 4495   4.551   2.645   0.247 -0.6828 -0.9933 -0.4520
    8MOL   H562 4496   4.085   2.503   0.244 -1.8542  0.3480  1.5217
    9MOL     O1 4497   3.011   1.158   2.737  0.1661  0.5508  0.3495
    9MOL     C2 4498   3.010   1.235   2.858  0.2996  0.1143 -0.3342
    9MOL     C3 4499   3.148   1.239   2.919 -0.2688  0.4267  0.1883
    9MOL     O4 4500   3.242   1.283   2.819  0.1110 -0.6966  0.0884
    9MOL     C5 4501   3.156   1.335   3.040  0.2373 -0.3567  0.3023
    9MOL     C6 4502   3.295   1.320   3.109 -0.0775 -0.3802 -0.3092
    9MOL     C7 4503   3.315   1.410   3.228 -0.2309  0.4437  0.5415
    9MOL     O8 4504   3.449   1.398   3.265  0.0578 -0.3171  0.1006
    9MOL     C9 4505   3.213   1.386   3.340  0.1852  0.7245 -0.7214
    9MOL    C10 4506   3.232   1.496   3.454  0.0831 -0.2922  0.0141
    9MOL    C11 4507   3.068   1.407   3.275  0.2405  0.0545  0.0400
    9MOL    C12 4508   3.048   1.311   3.155 -0.4449  0.5307 -0.2453
    9MOL    H13 4509   2.939   1.192   2.928  0.1680 -0.3160 -0.7241
    9MOL    H14 4510   2.970   1.334   2.837  1.7688  0.8190  0.0787
    9MOL    H15 4511   3.170   1.137   2.949  0.4762 -0.4323 -2.9988
    9MOL    H16 4512   3.197   1.234   2.751 -2.4751  2.6204 -0.7273
    9MOL    H17 4513   3.144   1.441   3.019  1.2594 -0.3023 -0.0108
    9MOL    H18 4514   3.314   1.214   3.129  2.3378  0.5322  2.4943
    9MOL    H19 4515   3.372   1.351   3.039 -0.7059  1.1630 -0.3377
    9MOL    H20 4516   3.307   1.513   3.195  0.3763  0.5082  0.6081
    9MOL    H21 4517   3.485   1.324   3.218  0.4675  0.1771 -0.3630
    9MOL    H22 4518   3.218   1.285   3.381 -0.6050  0.8237 -0.3669
    9MOL    H23 4519   3.335   1.491   3.490  0.9501 -0.3329 -2.3456
    9MOL    H24 4520   3.238   1.597   3.413  1.5267 -1.1804 -2.0416
    9MOL    H25 4521   3.055   1.509   3.240  1.3176  0.5832  1.1410
    9MOL    H26 4522   2.988   1.401   3.349  1.1189  0.8968  1.0693
    9MOL    H27 4523   2.949   1.328   3.113 -0.5541  2.0033  0.5605
    9MOL    H28 4524   3.041   1.205   3.178  2.6263 -0.1239 -2.0378
    9MOL    H29 4525   2.922   1.127   2.727  0.1370  0.9880 -0.8475
    9MOL    O30 4526   3.140   1.481   3.563 -0.0604  0.0383 -0.2663
    9MOL    C31 4527   3.198   1.412   3.670  0.8106  0.3427  0.1108
    9MOL    C32 4528   3.223   1.513   3.785 -0.6424  0.3970  0.7145
    9MOL    O33 4529   3.097   1.564   3.823  0.2397  0.5486 -0.2594
    9MOL    C34 4530   3.293   1.455   3.910  0.1215 -0.2581  0.1949
    9MOL    C35 4531   3.192   1.358   3.982 -0.5551 -0.1331 -0.8899
    9MOL    C36 4532   3.264   1.287   4.104  0.0988 -0.4299  0.7072
    9MOL    O37 4533   3.174   1.188   4.142  0.1075  0.5319  0.2119
    9MOL    C38 4534   3.315   1.387   4.204  0.1305 -0.1645 -0.3750
    9MOL    C39 4535   3.382   1.324   4.320 -0.8740 -0.2144 -0.0777
    9MOL    C40 4536   3.400   1.497   4.137  0.5871 -0.0776  0.0408
    9MOL    C41 4537   3.335   1.560   4.012 -0.4420 -0.0761 -0.0414
    9MOL    H42 4538   3.288   1.353   3.653  1.5853  1.1787  1.2199
    9MOL    H43 4539   3.118   1.351   3.713  0.8113  1.2075  1.3530
    9MOL    H44 4540   3.279   1.598   3.746  0.7064 -1.0536 -0.5966
    9MOL    H45 4541   3.057   1.596   3.744  1.0029 -0.5523 -1.1056
    9MOL    H46 4542   3.377   1.397   3.872 -0.3639 -1.9322  1.6088
    9MOL    H47 4543   3.119   1.430   4.021  0.3497 -1.5052  3.7144
    9MOL    H48 4544   3.150   1.282   3.917  2.6061 -0.7447 -2.3037
    9MOL    H49 4545   3.353   1.236   4.066  1.0595  0.4452  1.7219
    9MOL    H50 4546   3.098   1.229   4.180 -2.2384 -3.7086  0.4095
    9MOL    H51 4547   3.224   1.436   4.236  0.4123  0.4004 -0.4437
    9MOL    H52 4548   3.381   1.397   4.401  1.6361  1.3272 -1.3638
    9MOL    H53 4549   3.333   1.239   4.366 -0.2605 -1.6214 -1.9195
    9MOL    H54 4550   3.499   1.458   4.114  0.0914  0.5561 -3.4245
    9MOL    H55 4551   3.425   1.577   4.207  1.7033 -0.8598  0.5528
    9MOL    H56 4552   3.404   1.631   3.967 -0.3592 -0.7312 -0.9526
    9MOL    H57 4553   3.250   1.620   4.045 -0.1835 -0.1836  0.8451
    9MOL    O58 4554   3.518   1.294   4.287  0.1659 -0.0772 -0.1524
    9MOL    C59 4555   3.559   1.160   4.251 -0.0495  0.2271 -0.2236
    9MOL    C60 4556   3.705   1.175   4.191 -0.0464  0.1859  0.2097
    9MOL    O61 4557   3.698   1.258   4.075 -0.1378  0.0586  0.4973
    9MOL    C62 4558   3.819   1.217   4.282 -0.2655 -0.5904 -0.2404
    9MOL    C63 4559   3.957   1.208   4.214 -0.5463 -0.3277 -0.2850
    9MOL    C64 4560   4.083   1.219   4.305 -0.2986 -0.2578  0.0220
    9MOL    O65 4561   4.193   1.190   4.226 -0.0140 -0.8986  0.3703
    9MOL    C66 4562   4.083   1.125   4.417  0.0136  0.4087  0.4140
    9MOL    C67 4563   4.206   1.126   4.511 -0.5230  0.1326  0.2628
    9MOL    C68 4564   3.946   1.140   4.488  0.1059 -0.2050 -0.4549
    9MOL    C69 4565   3.822   1.123   4.406 -0.0328 -0.2297 -0.3157
    9MOL    H70 4566   3.491   1.118   4.177  0.9031  0.6969 -1.3713
    9MOL    H71 4567   3.554   1.082   4.327  3.0942 -0.9040 -1.0960
    9MOL    H72 4568   3.722   1.070   4.167 -0.1308 -0.4657  2.9130
    9MOL    H73 4569   3.615   1.301   4.083  0.6032  2.3996 -3.2519
    9MOL    H74 4570   3.800   1.320   4.312 -1.7742 -1.4685  1.8917
    9MOL    H75 4571   3.957   1.114   4.157  0.4746 -0.8760  0.6045
    9MOL    H76 4572   3.960   1.283   4.135  1.3606 -1.2196 -1.0792
    9MOL    H77 4573   4.105   1.320   4.338  2.8471 -0.6744 -0.6677
    9MOL    H78 4574   4.256   1.258   4.240 -0.6224  0.1944 -1.9732
    9MOL    H79 4575   4.068   1.025   4.377  2.3417 -0.8789  2.6320
    9MOL    H80 4576   4.302   1.119   4.460 -0.4986  0.7681  0.2133
    9MOL    H81 4577   4.217   1.224   4.557 -0.2763  0.6534 -0.9138
    9MOL    H82 4578   3.949   1.234   4.543 -0.6999 -0.6449  0.3457
    9MOL    H83 4579   3.946   1.067   4.568 -0.6205 -0.1990 -0.4451
    9MOL    H84 4580   3.737   1.131   4.474  0.8935 -0.6688  0.9406
    9MOL    H85 4581   3.829   1.025   4.358  0.8570  0.1758 -1.0213
    9MOL    O86 4582   4.195   1.035   4.618 -0.5310  0.3841  0.0870
    9MOL    C87 4583   4.194   0.894   4.586 -0.0589 -0.1738  0.9893
    9MOL    C88 4584   4.224   0.806   4.706  0.2154  0.0855  0.6574
    9MOL    O89 4585   4.104   0.814   4.778 -0.2151  0.0004 -0.2316
    9MOL    C90 4586   4.272   0.657   4.679  0.4202 -0.5276  0.2858
    9MOL    C91 4587   4.168   0.576   4.611 -0.2928  0.4234  0.5371
    9MOL    C92 4588   4.214   0.427   4.600  0.4393 -0.4223 -0.5693
    9MOL    O93 4589   4.096   0.360   4.540 -0.1331 -0.5649 -0.5470
    9MOL    C94 4590   4.242   0.358   4.734 -0.0799 -0.1587  0.2243
    9MOL    C95 4591   4.288   0.206   4.712  0.1416 -0.5480 -0.1056
    9MOL    C96 4592   4.356   0.443   4.805  0.1612 -0.5148 -0.1787
    9MOL    C97 4593   4.326   0.595   4.813 -0.5432  0.0614  0.1334
    9MOL    H98 4594   4.264   0.881   4.504 -2.1367  0.0622 -0.8507
    9MOL    H99 4595   4.093   0.876   4.549  0.8787 -0.9324 -1.3026
    9MOL   H100 4596   4.305   0.861   4.753 -0.3094  2.8664 -1.5534
    9MOL   H101 4597   4.088   0.905   4.798  0.9908 -0.0244  0.8619
    9MOL   H102 4598   4.354   0.667   4.608  0.6751 -0.5339  0.5755
    9MOL   H103 4599   4.076   0.574   4.669 -0.6917 -0.0344 -0.1099
    9MOL   H104 4600   4.156   0.621   4.513  0.4125 -2.8662 -1.1283
    9MOL   H105 4601   4.296   0.410   4.530  0.5791  0.2270 -0.5673
    9MOL   H106 4602   4.089   0.273   4.577 -0.9223  0.2481  1.2745
    9MOL   H107 4603   4.153   0.359   4.796 -0.5277  1.0610 -0.4013
    9MOL   H108 4604   4.210   0.148   4.661 -0.5337  0.0843  0.1987
    9MOL   H109 4605   4.381   0.204   4.655  0.3254 -3.1511  0.2280
    9MOL   H110 4606   4.444   0.421   4.745  0.5136 -2.2322  0.9186
    9MOL   H111 4607   4.383   0.401   4.902  1.3227  0.2954 -0.1431
    9MOL   H112 4608   4.412   0.646   4.855 -0.1215 -0.6232  0.1059
    9MOL   H113 4609   4.251   0.613   4.890 -1.1881 -1.4584 -0.1048
    9MOL   O114 4610   4.297   0.154   4.843 -0.0695  0.0171 -0.4256
    9MOL   C115 4611   4.365   0.031   4.853 -0.4048  0.2902 -0.2034
    9MOL   C116 4612   4.288   7.542   4.791  0.3850  0.0096  0.1667
    9MOL   O117 4613   4.393   7.478   4.721  0.0343 -0.0348 -0.2179
    9MOL   C118 4614   4.228   7.456   4.906 -0.8999  0.6828 -0.2320
    9MOL   C119 4615   4.170   7.328   4.846 -0.0977 -0.3488 -0.3421
    9MOL   C120 4616   4.087   7.240   4.938  0.1364 -0.0035  0.2455
    9MOL   O121 4617   4.030   7.139   4.859  0.1366 -0.2197 -0.2674
    9MOL   C122 4618   3.974   7.322   5.011 -0.8113  0.4406  0.4799
    9MOL   C123 4619   3.900   7.234   5.113  0.0741 -0.3689  0.6597
    9MOL   C124 4620   4.032   7.446   5.083 -1.1133  0.4395  0.3117
    9MOL   C125 4621   4.119   7.531   4.990  0.5286 -0.2092  0.4842
    9MOL   H126 4622   4.391   0.007   4.957 -1.2965  0.2644  0.0166
    9MOL   H127 4623   4.464   0.041   4.809  0.6934 -1.7338  1.6809
    9MOL   H128 4624   4.215   7.572   4.716  1.3885  2.5663  0.1512
    9MOL   H129 4625   4.477   7.492   4.762  0.1036  0.5664 -0.5460
    9MOL   H130 4626   4.300   7.430   4.983  0.4143 -1.4753 -2.1338
    9MOL   H131 4627   4.106   7.366   4.767  1.4318  0.3322 -1.2677
    9MOL   H132 4628   4.248   7.267   4.800 -0.1876 -0.4934 -0.3059
    9MOL   H133 4629   4.164   7.197   5.003  0.1404 -1.0696 -0.4631
    9MOL   H134 4630   4.094   7.069   4.855  1.1068  0.5606  0.9704
    9MOL   H135 4631   3.904   7.347   4.931 -0.2702  0.7714  0.1047
    9MOL   H136 4632   3.862   7.143   5.066  1.7186 -1.5564  1.5667
    9MOL   H137 4633   3.974   7.199   5.185  1.7998  3.0571  0.6158
    9MOL   H138 4634   4.089   7.422   5.173 -0.1811  1.9316  0.1270
    9MOL   H139 4635   3.949   7.508   5.115  0.3185  1.3560  2.3675
    9MOL   H140 4636   4.169   7.608   5.049 -0.5564  2.5096 -2.0237
    9MOL   H141 4637   4.053   7.590   4.927  2.3024  1.0049 -0.2841
    9MOL   O142 4638   3.791   7.306   5.178 -0.4812  0.4974 -0.5286
    9MOL   C143 4639   3.752   7.259   5.303  0.0414  0.2496 -0.4638
    9MOL   C144 4640   3.661   7.371   5.359  0.3906  0.1091 -0.0868
    9MOL   O145 4641   3.623   7.329   5.495 -0.2372 -0.7712 -0.2347
    9MOL   C146 4642   3.737   7.513   5.374  0.4129 -0.1253  0.0294
    9MOL   C147 4643   3.856   7.501   5.467 -0.0958 -0.8523 -0.0815
    9MOL   C148 4644   3.941   0.003   5.435 -0.9027  0.0676  0.2819
    9MOL   O149 4645   4.063   7.621   5.509 -0.0376 -0.2016  0.9593
    9MOL   C150 4646   3.856   0.123   5.493 -0.2252  0.0003 -0.4371
    9MOL   C151 4647   3.926   0.259   5.491 -0.0495 -0.7746 -0.0205
    9MOL   C152 4648   3.718   0.124   5.420  0.6536  0.1111 -0.3420
    9MOL   C153 4649   3.640   7.625   5.415 -0.0740 -0.0358 -0.3714
    9MOL   H154 4650   3.828   7.215   5.369 -0.5707 -0.0189  0.0642
    9MOL   H155 4651   3.688   7.172   5.294  0.5014 -0.0441 -0.9522
    9MOL   H156 4652   3.574   7.387   5.296  0.1622 -1.7854 -0.2934
    9MOL   H157 4653   3.534   7.299   5.486 -0.0236 -1.2494 -0.8245
    9MOL   H158 4654   3.771   7.535   5.273 -0.6892 -1.9552 -0.7793
    9MOL   H159 4655   3.817   7.490   5.568 -1.8295  0.9590 -0.5057
    9MOL   H160 4656   3.914   7.415   5.434 -0.3610 -0.9287 -0.3517
    9MOL   H161 4657   3.958   7.621   5.328  0.4171 -2.3987  0.7165
    9MOL   H162 4658   4.086   0.081   5.525 -0.8017  0.3617 -0.9715
    9MOL   H163 4659   3.841   0.089   5.595 -2.4810 -0.5228 -0.9239
    9MOL   H164 4660   3.953   0.296   5.392 -2.3389 -2.4283 -1.3069
    9MOL   H165 4661   3.873   0.343   5.535 -1.1208 -0.6867 -1.4502
    9MOL   H166 4662   3.734   0.155   5.317 -2.0264  0.4412 -0.7056
    9MOL   H167 4663   3.653   0.196   5.470  1.1972  0.2343  0.1911
    9MOL   H168 4664   3.553   7.629   5.350 -0.7792 -2.3642  0.3750
    9MOL   H169 4665   3.608   7.606   5.518 -0.4765  0.4194 -0.4080
    9MOL   O170 4666   4.042   0.244   5.577 -0.1385 -0.4282  0.1216
    9MOL   C171 4667   4.024   0.248   5.725  0.1195 -0.5140  0.5378
    9MOL   C172 4668   4.156   0.237   5.806  0.5950 -0.6784  0.1485
    9MOL   O173 4669   4.229   0.357   5.787 -0.0726  0.1794 -0.2770
    9MOL   C174 4670   4.128   0.217   5.959 -0.4339 -0.5831 -0.1363
    9MOL   C175 4671   4.060   0.332   6.031  0.6923  0.1512  0.2224
    9MOL   C176 4672   4.041   0.300   6.171 -0.2798  0.4667  0.1711
    9MOL   O177 4673   3.956   0.395   6.224  0.0474  0.0154  0.5616
    9MOL   C178 4674   4.172   0.277   6.247  0.3069 -0.3264  0.4104
    9MOL   C179 4675   4.140   0.227   6.391  0.1627 -0.1551  0.0056
    9MOL   C180 4676   4.256   0.166   6.175  0.5989  0.1644 -0.0490
    9MOL   C181 4677   4.263   0.183   6.022  0.6967  0.2366  0.2980
    9MOL   H182 4678   3.959   0.166   5.754  0.2924 -0.4896  0.9836
    9MOL   H183 4679   3.958   0.330   5.750 -0.1991 -0.9156  1.0107
    9MOL   H184 4680   4.210   0.150   5.770 -0.6721 -1.6942  0.6633
    9MOL   H185 4681   4.153   0.412   5.776 -0.4195 -0.4214 -0.9959
    9MOL   H186 4682   4.059   0.134   5.973  0.4303 -1.3476 -0.3504
    9MOL   H187 4683   4.113   0.427   6.029 -1.2961  1.2917  1.6367
    9MOL   H188 4684   3.960   0.346   5.990  0.8838  2.0433  0.3593
    9MOL   H189 4685   3.984   0.208   6.181 -1.4024  0.8820 -2.0883
    9MOL   H190 4686   3.910   0.349   6.293 -0.7918 -0.0167 -0.0021
    9MOL   H191 4687   4.224   0.373   6.248 -0.4644  0.1856 -3.4918
    9MOL   H192 4688   4.069   0.291   6.443  0.0280 -0.0129 -0.3536
    9MOL   H193 4689   4.101   0.126   6.393  1.0239 -0.4748  2.1885
    9MOL   H194 4690   4.207   0.069   6.185  1.4823 -0.2882 -0.1430
    9MOL   H195 4691   4.355   0.147   6.215  0.5321  2.0997  1.0881
    9MOL   H196 4692   4.310   0.100   5.969 -2.0778 -1.7105  0.8344
    9MOL   H197 4693   4.327   0.269   6.003  0.5248  0.1646 -0.6538
    9MOL   O198 4694   4.267   0.235   6.450  0.0636 -0.4551 -0.7063
    9MOL   C199 4695   4.257   0.205   6.587  0.2045 -0.2417 -0.0760
    9MOL   C200 4696   4.401   0.184   6.658 -0.5623  0.0765  0.1006
    9MOL   O201 4697   4.464   0.318   6.664  0.1772  0.2498  0.1922
    9MOL   C202 4698   4.401   0.102   6.792  0.6584  0.4503  0.1366
    9MOL   C203 4699   4.452   7.584   6.765  0.2941 -0.0543  0.0586
    9MOL   C204 4700   4.479   7.513   6.899  0.5476 -0.5175 -0.2151
    9MOL   O205 4701   4.524   7.387   6.864  0.1057 -0.1045  0.3020
    9MOL   C206 4702   4.353   7.525   6.986 -0.0556 -0.0906  0.5590
    9MOL   C207 4703   4.380   7.459   7.123 -0.0617 -0.7677  0.0729
    9MOL   C208 4704   4.307   0.040   7.008  0.4067  0.1203 -0.3827
    9MOL   C209 4705   4.269   0.105   6.874 -0.1343  0.3649 -0.2441
    9MOL   H210 4706   4.212   0.106   6.595  0.2134 -0.1659  1.0732
    9MOL   H211 4707   4.190   0.275   6.636 -1.0778 -1.7061  0.2867
    9MOL   H212 4708   4.467   0.130   6.589 -0.9356 -0.7464  0.3955
    9MOL   H213 4709   4.451   0.352   6.577 -0.6785  0.0325  0.2264
    9MOL   H214 4710   4.480   0.147   6.853 -0.0702  1.2545  0.4898
    9MOL   H215 4711   4.372   7.533   6.712 -1.7439  2.1361  0.9219
    9MOL   H216 4712   4.543   7.579   6.705  0.4280 -3.5438  0.4523
    9MOL   H217 4713   4.558   7.576   6.940 -1.2322  1.5090  0.1860
    9MOL   H218 4714   4.451   7.334   6.837  1.6017 -1.9615 -0.1770
    9MOL   H219 4715   4.277   7.469   6.931 -0.4574  1.6120 -0.6703
    9MOL   H220 4716   4.422   7.360   7.108 -0.8426 -1.3459  1.6869
    9MOL   H221 4717   4.453   7.526   7.168  0.8695  0.0797 -2.5841
    9MOL   H222 4718   4.391   0.091   7.055  1.6600 -1.0209 -1.3193
    9MOL   H223 4719   4.228   0.045   7.083 -0.7582 -1.6912 -1.4428
    9MOL   H224 4720   4.232   0.204   6.899 -1.0923 -0.5396  2.0540
    9MOL   H225 4721   4.177   0.063   6.831 -0.2116  0.3708 -0.0855
    9MOL   O226 4722   4.264   7.443   7.209 -0.8792 -0.2159 -0.0598
    9MOL   C227 4723   4.146   7.397   7.138  0.9042 -0.1296  0.3098
    9MOL   C228 4724   4.043   7.328   7.235 -0.3210  0.3783 -0.1570
    9MOL   O229 4725   3.987   7.428   7.326  0.4418 -0.3214 -0.5554
    9MOL   C230 4726   3.918   7.262   7.162 -0.3624  0.5099  0.6510
    9MOL   C231 4727   3.794   7.358   7.136 -0.1299 -0.6503  0.5497
    9MOL   C232 4728   3.696   7.284   7.040  0.0989 -0.3236  0.2734
    9MOL   O233 4729   3.588   7.375   7.038  0.3284  0.2335  0.0954
    9MOL   C234 4730   3.640   7.154   7.099 -0.7018  0.8159 -0.8279
    9MOL   C235 4731   3.572   7.064   6.997  0.1493 -0.0026  0.3412
    9MOL   C236 4732   3.759   7.068   7.155 -0.0785 -0.4021 -1.0704
    9MOL   C237 4733   3.854   7.150   7.247 -0.2047  0.1024 -0.1520
    9MOL   H238 4734   4.172   7.314   7.072 -2.6158  0.0422 -1.3818
    9MOL   H239 4735   4.097   7.470   7.074 -0.6348 -1.7847 -0.4332
    9MOL   H240 4736   4.100   7.256   7.294 -0.3956  0.0418 -0.4905
    9MOL   H241 4737   4.056   7.477   7.368 -1.0310 -0.5276  2.2279
    9MOL   H242 4738   3.955   7.217   7.070 -0.7293 -2.1074  1.7614
    9MOL   H243 4739   3.740   7.375   7.229 -0.6881 -0.5429  0.2031
    9MOL   H244 4740   3.823   7.453   7.090  0.2453 -2.3023 -2.7734
    9MOL   H245 4741   3.743   7.272   6.943  0.8438 -0.4660  0.6516
    9MOL   H246 4742   3.538   7.378   7.118  2.7193 -1.1307  1.7153
    9MOL   H247 4743   3.584   7.179   7.189 -3.9784 -1.1937 -2.2045
    9MOL   H248 4744   3.542   6.968   7.039  2.3433  0.8164  3.9445
    9MOL   H249 4745   3.481   7.106   6.954  1.2111 -0.0036 -1.9860
    9MOL   H250 4746   3.822   7.032   7.074 -0.6666  2.0195 -2.6459
    9MOL   H251 4747   3.724   6.980   7.209 -1.2680 -0.4410 -1.8954
    9MOL   H252 4748   3.936   7.089   7.286 -2.6419 -3.3788 -0.2990
    9MOL   H253 4749   3.809   7.180   7.342  0.5616 -1.1311  0.6214
    9MOL   O254 4750   3.665   7.046   6.893 -0.1336  0.0603 -0.5793
    9MOL   C255 4751   3.612   7.000   6.772 -0.2631  0.6909  0.2267
    9MOL   C256 4752   3.731   6.975   6.681  0.2247  0.0712  0.0482
    9MOL   O257 4753   3.675   6.959   6.549 -0.5652  0.3795  0.1988
    9MOL   C258 4754   3.844   7.081   6.685 -0.6564 -0.2429  1.2178
    9MOL   C259 4755   3.784   7.221   6.659 -0.0206  0.2623 -0.8406
    9MOL   C260 4756   3.891   7.334   6.656 -0.1927  0.4284  0.2274
    9MOL   O261 4757   3.825   7.437   6.588 -0.3708 -0.0152 -0.2095
    9MOL   C262 4758   4.028   7.295   6.587 -0.3576 -0.1485  0.8225
    9MOL   C263 4759   4.145   7.390   6.634  0.1085 -0.0949  0.0154
    9MOL   C264 4760   4.074   7.154   6.609  0.1498 -0.0600 -0.0378
    9MOL   C265 4761   3.964   7.050   6.595  0.3742 -0.5841  0.2220
    9MOL   H266 4762   3.549   7.082   6.736 -2.1041  0.2008  2.2067
    9MOL   H267 4763   3.545   6.914   6.784  0.0141  0.6814  1.6907
    9MOL   H268 4764   3.776   6.879   6.705  0.9922  0.5025  0.3598
    9MOL   H269 4765   3.592   7.004   6.551 -1.1352 -0.6515  0.4096
    9MOL   H270 4766   3.874   7.097   6.789  0.0938  2.0766  0.6758
    9MOL   H271 4767   3.739   7.224   6.560  0.1868  0.2755 -0.9360
    9MOL   H272 4768   3.696   7.247   6.717  0.7808 -2.0155  1.5187
    9MOL   H273 4769   3.908   7.341   6.763  0.7283  1.6602  0.0028
    9MOL   H274 4770   3.750   7.462   6.640  1.2189  0.5614  1.8814
    9MOL   H275 4771   4.014   7.302   6.479  3.1630  0.2703  0.3400
    9MOL   H276 4772   4.126   7.492   6.599  3.6988  0.8071  0.4388
    9MOL   H277 4773   4.147   7.385   6.743 -0.5692  0.1677  0.0414
    9MOL   H278 4774   4.118   7.156   6.708 -1.1632  2.5312  0.5399
    9MOL   H279 4775   4.161   7.120   6.552 -0.7713 -1.1854 -0.8064
    9MOL   H280 4776   4.012   6.956   6.621  1.3965 -0.3679 -0.7933
    9MOL   H281 4777   3.929   7.049   6.492 -0.8059  1.5676  0.5796
    9MOL   O282 4778   4.271   7.354   6.576 -0.1279 -0.0008  0.1697
    9MOL   C283 4779   4.282   7.378   6.436  0.5999  0.1335  0.3872
    9MOL   C284 4780   4.410   7.452   6.406 -0.2950  0.7779 -0.5446
    9MOL   O285 4781   4.508   7.364   6.469  0.4579 -0.8180  0.5275
    9MOL   C286 4782   4.448   7.474   6.261  0.3664  0.0497 -0.1995
    9MOL   C287 4783   4.445   7.353   6.164 -0.0751  0.3320  0.5146
    9MOL   C288 4784   4.467   7.392   6.013  0.2334 -0.2106 -0.0913
    9MOL   O289 4785   4.457   7.280   5.926  0.4429 -0.2848  0.2845
    9MOL   C290 4786   4.605   7.456   6.001 -0.2696 -0.1674 -0.3624
    9MOL   C291 4787   4.629   7.504   5.854  0.7949  0.4006 -0.0771
    9MOL   C292 4788   4.617   7.580   6.095  0.2679  0.2794  0.4649
    9MOL   C293 4789   4.581   7.546   6.244 -0.4950 -0.4794 -0.1568
    9MOL   H294 4790   4.201   7.444   6.403 -0.0089 -1.4301 -1.3302
    9MOL   H295 4791   4.281   7.282   6.385  0.1406 -0.2331  1.0778
    9MOL   H296 4792   4.418   7.546   6.460  1.0356  0.0607  0.5115
    9MOL   H297 4793   4.470   7.323   6.544  1.8430  0.6250  2.0710
    9MOL   H298 4794   4.372   7.541   6.221 -1.2321 -1.5064  0.1770
    9MOL   H299 4795   4.514   7.274   6.193  0.6141  1.7219  2.7708
    9MOL   H300 4796   4.345   7.312   6.172 -0.1513  0.1632 -1.1351
    9MOL   H301 4797   4.387   7.451   5.969  2.2792  2.0294 -0.8927
    9MOL   H302 4798   4.476   7.307   5.837 -2.0964 -1.7236 -0.7257
    9MOL   H303 4799   4.684   7.386   6.027  2.7770  2.8243 -1.1440
    9MOL   H304 4800   4.605   7.427   5.781  1.6430  0.1018 -0.0504
    9MOL   H305 4801   4.558   7.584   5.834 -2.1168 -1.7719  1.2536
    9MOL   H306 4802   4.553   0.033   6.061 -0.9837 -0.5121  0.8666
    9MOL   H307 4803   4.717   7.620   6.078  0.4496 -0.3165  0.1290
    9MOL   H308 4804   4.582   0.007   6.304 -1.3769 -1.8441  1.9723
    9MOL   H309 4805   4.658   7.481   6.286 -0.4321 -1.0655 -1.1537
    9MOL   O310 4806   4.768   7.547   5.850  0.4618  0.0611  0.0660
    9MOL   C311 4807   4.808   7.606   5.719  0.8105 -0.6444 -0.0961
    9MOL   C312 4808   4.760   0.127   5.704 -0.3327  0.5051 -0.6141
    9MOL   O313 4809   4.786   0.178   5.836  0.0940  0.2336  0.0817
    9MOL   C314 4810   4.835   0.217   5.600 -0.3324  0.4940 -0.3280
    9MOL   C315 4811   4.983   0.245   5.634  0.1953  0.1604 -0.6966
    9MOL   C316 4812   5.045   0.328   5.518  0.5736 -0.6914  0.7471
    9MOL   O317 4813   5.175   0.359   5.555 -0.5078 -0.3138  0.3525
    9MOL   C318 4814   4.981   0.470   5.499 -0.1641 -0.2451  0.4090
    9MOL   C319 4815   5.046   0.552   5.386 -0.6310 -0.2141  0.2993
    9MOL   C320 4816   4.830   0.449   5.479  0.1604  0.1631  0.3483
    9MOL   C321 4817   4.769   0.357   5.594  0.3882 -0.3503  0.2227
    9MOL   H322 4818   4.766   7.544   5.640 -1.6113  0.7434  0.0570
    9MOL   H323 4819   4.915   7.596   5.701  0.9701  0.7328  0.0006
    9MOL   H324 4820   4.654   0.133   5.681 -0.3341 -3.1251 -1.8041
    9MOL   H325 4821   4.820   0.099   5.875  0.3063 -0.4773 -1.4805
    9MOL   H326 4822   4.827   0.155   5.511  0.9939 -0.2516  0.0664
    9MOL   H327 4823   4.996   0.294   5.731  0.5636  0.9576 -1.1475
    9MOL   H328 4824   5.031   0.147   5.642 -1.5706 -0.7130 -0.4290
    9MOL   H329 4825   5.048   0.283   5.419  1.0619 -0.2830  0.5737
    9MOL   H330 4826   5.180   0.420   5.627  0.2115  0.3399 -0.2412
    9MOL   H331 4827   4.996   0.515   5.597 -0.1206 -1.7582  1.0972
    9MOL   H332 4828   5.152   0.564   5.403 -0.7564  4.8401 -1.7240
    9MOL   H333 4829   5.033   0.502   5.290 -1.5538  1.4915 -0.4827
    9MOL   H334 4830   4.810   0.398   5.385 -0.0267  0.9864 -0.0576
    9MOL   H335 4831   4.792   0.551   5.481  0.1755  0.1606  1.0043
    9MOL   H336 4832   4.661   0.345   5.586  0.0502  1.8196  1.2082
    9MOL   H337 4833   4.786   0.409   5.688 -0.9283 -0.0558  0.3189
    9MOL   O338 4834   4.984   0.684   5.381 -0.3626  0.2897  0.5457
    9MOL   C339 4835   5.071   0.782   5.316  0.7968  0.3333 -0.3601
    9MOL   C340 4836   5.011   0.919   5.363 -0.2694  0.7446  0.8032
    9MOL   O341 4837   4.892   0.943   5.296 -0.9993 -0.1986 -0.4945
    9MOL   C342 4838   4.981   0.921   5.516 -0.4670  0.4845 -0.3794
    9MOL   C343 4839   4.935   1.057   5.563  0.5560 -0.3948  0.5637
    9MOL   C344 4840   4.878   1.050   5.706  0.3021  0.8667  0.0118
    9MOL   O345 4841   4.850   1.178   5.754 -0.0896  0.1205 -0.1614
    9MOL   C346 4842   4.985   0.990   5.801  0.4009  0.2836 -0.4793
    9MOL   C347 4843   4.930   0.960   5.945 -0.1441  0.7381  0.0740
    9MOL   C348 4844   5.054   0.864   5.744  0.5016 -0.7939  0.1620
    9MOL   C349 4845   5.099   0.880   5.602  0.5882 -0.9570  0.0703
    9MOL   H350 4846   5.069   0.779   5.207  2.3303 -1.2941 -0.3611
    9MOL   H351 4847   5.174   0.774   5.351  0.7018 -1.0159 -0.3535
    9MOL   H352 4848   5.077   0.997   5.325 -2.3439  2.0741 -0.1273
    9MOL   H353 4849   4.849   0.861   5.314 -1.3419  0.3719  1.4238
    9MOL   H354 4850   4.898   0.854   5.535 -1.1616  1.2464 -0.6944
    9MOL   H355 4851   5.016   1.130   5.566  0.1271  0.2677 -2.2910
    9MOL   H356 4852   4.862   1.105   5.497  0.4031 -0.3142  0.7915
    9MOL   H357 4853   4.781   1.001   5.711  0.3761  0.2670 -3.4392
    9MOL   H358 4854   4.917   1.234   5.717  0.9002  0.1134  1.5803
    9MOL   H359 4855   5.062   1.068   5.806  1.9280 -1.2552  0.7790
    9MOL   H360 4856   4.855   1.036   5.970 -0.8375 -0.1603  0.7663
    9MOL   H361 4857   4.861   0.876   5.949  0.1385  0.5963  2.3058
    9MOL   H362 4858   4.992   0.775   5.746 -3.0080  1.5135 -1.6765
    9MOL   H363 4859   5.138   0.843   5.810 -0.6133 -3.1475  0.8801
    9MOL   H364 4860   5.145   0.784   5.577  2.9941  0.5876 -1.5660
    9MOL   H365 4861   5.179   0.952   5.588 -0.8900  0.8845  0.8710
    9MOL   O366 4862   5.029   0.968   6.039 -0.1861 -0.0444 -0.1079
    9MOL   C367 4863   5.013   0.875   6.149  1.3022 -0.3240  0.8648
    9MOL   C368 4864   5.129   0.897   6.241  0.1620  0.2506 -1.3807
    9MOL   O369 4865   5.122   1.022   6.309 -0.1598  0.2452  0.1059
    9MOL   C370 4866   5.123   0.790   6.354  0.9266  0.2519 -0.8310
    9MOL   C371 4867   5.167   0.651   6.310  0.1328  0.1382 -0.1585
    9MOL   C372 4868   5.187   0.556   6.427  0.0219  0.2856 -0.3078
    9MOL   O373 4869   5.208   0.429   6.367 -0.1096 -0.4823  0.0562
    9MOL   C374 4870   5.061   0.556   6.510  0.2844  0.7640 -0.0482
    9MOL   C375 4871   5.073   0.465   6.645 -0.3348 -0.2624 -0.6279
    9MOL   C376 4872   5.013   0.693   6.554 -0.0304  0.1326 -0.6763
    9MOL   C377 4873   4.988   0.781   6.434 -0.0683  0.8143  0.0600
    9MOL   H378 4874   5.008   0.772   6.113  1.5106  0.0018 -0.1287
    9MOL   H379 4875   4.912   0.893   6.186  0.3328 -0.5295 -1.5387
    9MOL   H380 4876   5.228   0.875   6.199 -0.0995 -0.3352 -1.6841
    9MOL   H381 4877   5.138   1.085   6.240  0.0158  0.3688  0.2573
    9MOL   H382 4878   5.203   0.827   6.419 -0.9272  1.4235  0.8672
    9MOL   H383 4879   5.092   0.611   6.241  1.0755 -4.5747  1.3741
    9MOL   H384 4880   5.263   0.657   6.260  0.3735 -0.5634  0.2131
    9MOL   H385 4881   5.276   0.593   6.476 -0.4209 -0.2652  0.9310
    9MOL   H386 4882   5.213   0.368   6.439  1.3343 -0.6344 -0.1552
    9MOL   H387 4883   4.980   0.521   6.447 -0.3921 -0.0155  1.2468
    9MOL   H388 4884   5.134   0.521   6.715 -0.8810 -3.7711  2.8313
    9MOL   H389 4885   4.978   0.473   6.697  0.2999  2.0613  0.2127
    9MOL   H390 4886   5.083   0.734   6.627  1.0793 -1.8067 -0.6234
    9MOL   H391 4887   4.925   0.678   6.617  2.2723  3.4923  3.6607
    9MOL   H392 4888   4.958   0.880   6.471 -1.8411  0.6526 -0.8876
    9MOL   H393 4889   4.915   0.742   6.363 -0.3225  1.9354 -0.3070
    9MOL   O394 4890   5.120   0.334   6.632 -0.6816  0.0447  0.8481
    9MOL   C395 4891   5.132   0.272   6.757 -0.4239 -0.0652 -0.3307
    9MOL   C396 4892   5.165   0.124   6.739 -0.1691  0.3213  0.5423
    9MOL   O397 4893   5.301   0.113   6.709 -0.6619 -0.1994  0.6185
    9MOL   C398 4894   5.140   0.047   6.866  0.2367  0.1031  1.1597
    9MOL   C399 4895   5.208   7.533   6.865 -0.0779 -0.0169 -0.0978
    9MOL   C400 4896   5.176   7.453   6.990 -0.2631 -0.3264 -0.3454
    9MOL   O401 4897   5.236   7.329   6.987 -0.2491 -0.0779 -0.3712
    9MOL   C402 4898   5.018   7.438   7.012 -0.5090  0.5435 -0.0411
    9MOL   C403 4899   4.986   7.361   7.142 -0.4773  0.3471 -0.2920
    9MOL   C404 4900   4.962   7.581   7.025 -0.5203 -0.7479 -1.0929
    9MOL   C405 4901   4.990   0.034   6.894  0.7753  0.0735  0.4288
    9MOL   H406 4902   5.034   0.283   6.802 -0.0351  0.0634  0.5060
    9MOL   H407 4903   5.209   0.325   6.813 -1.6518  2.5049 -1.0208
    9MOL   H408 4904   5.100   0.095   6.656  0.1459  0.0269  0.3970
    9MOL   H409 4905   5.313   0.032   6.662 -1.5758 -0.9187  1.6015
    9MOL   H410 4906   5.182   0.109   6.946 -0.2109 -0.0574  1.5261
    9MOL   H411 4907   5.173   7.476   6.779 -0.8170 -1.0992  0.9072
    9MOL   H412 4908   5.314   7.543   6.843 -0.0151  2.6120  1.1585
    9MOL   H413 4909   5.224   7.498   7.077 -2.0763  3.4280 -1.1938
    9MOL   H414 4910   5.330   7.335   6.980 -0.1733 -1.7929 -0.9690
    9MOL   H415 4911   4.974   7.374   6.935  1.4577 -1.5432  0.4988
    9MOL   H416 4912   5.023   7.258   7.135 -0.8027  0.2537 -0.6581
    9MOL   H417 4913   5.020   7.419   7.227 -0.3120 -1.9515  1.2683
    9MOL   H418 4914   4.991   0.020   7.104  2.0728 -0.9758 -1.8104
    9MOL   H419 4915   4.853   7.575   7.031 -0.4449 -0.2176  1.3065
    9MOL   H420 4916   4.931   0.124   6.912 -1.2288 -0.9446 -0.8624
    9MOL   H421 4917   4.942   7.614   6.809 -0.8859  0.3043  1.2089
    9MOL   O422 4918   4.850   7.337   7.151  0.2075  0.0045  0.6666
    9MOL   C423 4919   4.813   7.222   7.236  0.7664 -0.3128  0.8758
    9MOL   C424 4920   4.657   7.187   7.227 -0.6288  0.6881 -0.7996
    9MOL   O425 4921   4.623   7.138   7.096 -0.1716 -0.1884  0.2345
    9MOL   C426 4922   4.591   7.104   7.337 -0.5857 -0.3359 -0.1214
    9MOL   C427 4923   4.638   6.957   7.331 -0.2091  0.3289  0.3596
    9MOL   C428 4924   4.577   6.884   7.461 -0.0491  0.3047 -0.5932
    9MOL   O429 4925   4.648   6.762   7.464  0.6493  0.5355 -0.1587
    9MOL   C430 4926   4.430   6.878   7.447 -0.3982  0.0444  0.8452
    9MOL   C431 4927   4.368   6.799   7.557  0.5810  0.2691  0.1889
    9MOL   C432 4928   4.373   7.027   7.446 -0.1051  0.0597 -0.0876
    9MOL   C433 4929   4.442   7.120   7.348  0.6551 -0.1619  0.0665
    9MOL   H434 4930   4.841   7.239   7.340  2.5674 -2.1493  0.7259
    9MOL   H435 4931   4.871   7.131   7.218  1.4249  0.0155  1.3177
    9MOL   H436 4932   4.616   7.288   7.228 -2.6869 -0.1234  1.1451
    9MOL   H437 4933   4.682   7.178   7.035 -1.3768  2.4132  0.7007
    9MOL   H438 4934   4.623   7.135   7.437  1.4856  1.0184 -1.1750
    9MOL   H439 4935   4.608   6.906   7.240 -0.8136  1.6719 -0.2163
    9MOL   H440 4936   4.746   6.958   7.341  0.0700 -0.6883 -2.0999
    9MOL   H441 4937   4.593   6.942   7.552 -2.6663 -1.5070  1.0856
    9MOL   H442 4938   4.721   6.764   7.523  1.1372  2.7706 -0.7931
    9MOL   H443 4939   4.410   6.830   7.352 -0.3138  0.6411  0.5190
    9MOL   H444 4940   4.412   6.701   7.575 -0.2495 -0.0340  0.6259
    9MOL   H445 4941   4.369   6.849   0.025  1.3852 -2.1001  1.4496
    9MOL   H446 4942   4.395   7.066   7.545  0.4507  1.4728 -0.7606
    9MOL   H447 4943   4.264   7.020   7.444 -0.0068 -1.8540 -0.1802
    9MOL   H448 4944   4.418   7.225   7.359  2.9331  0.3035  0.7722
    9MOL   H449 4945   4.401   7.098   7.249 -2.4700 -1.7385  1.6503
    9MOL   O450 4946   4.230   6.778   7.531  0.7182  0.7928  0.7237
    9MOL   C451 4947   4.161   6.667   7.589  0.5679  0.0868  0.4709
    9MOL   C452 4948   4.012   6.682   7.573 -0.2375  0.4292  0.4955
    9MOL   O453 4949   3.983   6.626   7.447  0.2138 -0.2310 -0.2052
    9MOL   C454 4950   3.934   6.607   0.056  0.5827  0.2057 -0.2868
    9MOL   C455 4951   3.925   6.451   0.036  0.3305  1.4257 -0.0312
    9MOL   C456 4952   3.853   6.380   0.155  0.5491  0.0507 -0.2403
    9MOL   O457 4953   3.873   6.243   0.137  0.5783  0.0121  0.5228
    9MOL   C458 4954   3.714   6.431   0.181  0.1878 -0.7483 -0.1712
    9MOL   C459 4955   3.666   6.369   0.317  0.4052  0.0580  0.2886
    9MOL   C460 4956   3.721   6.589   0.193 -0.4737 -0.2653  0.6562
    9MOL   C461 4957   3.795   6.656   0.075 -0.6575  0.1397  0.4435
    9MOL   H462 4958   4.176   6.674   0.067 -0.2265  0.7828  0.5330
    9MOL   H463 4959   4.195   6.569   7.554 -1.9569 -1.3491  1.9061
    9MOL   H464 4960   3.988   6.788   7.582  0.2535  0.5704  0.1411
    9MOL   H465 4961   4.011   6.684   7.377  0.6881 -1.7599 -1.2960
    9MOL   H466 4962   3.983   6.625   0.151 -0.9635  0.4400  0.4799
    9MOL   H467 4963   3.887   6.410   7.571 -0.9768  1.5890  0.4140
    9MOL   H468 4964   4.022   6.403   0.049 -1.2248 -2.4987 -2.0473
    9MOL   H469 4965   3.913   6.403   0.243  2.8331 -0.4459 -1.6469
    9MOL   H470 4966   3.818   6.225   0.062 -1.5516 -0.9512  2.2519
    9MOL   H471 4967   3.644   6.403   0.103 -1.3183  1.3243  0.4030
    9MOL   H472 4968   3.658   6.262   0.298 -1.4397 -0.2758  2.6417
    9MOL   H473 4969   3.745   6.387   0.390  0.9989 -0.3452 -0.2499
    9MOL   H474 4970   3.777   6.621   0.282 -2.8168 -0.4513  2.2508
    9MOL   H475 4971   3.619   6.627   0.201 -1.5997 -3.1849  0.8607
    9MOL   H476 4972   3.810   6.763   0.090 -0.2380  0.0684  0.5329
    9MOL   H477 4973   3.751   6.652   7.605  0.2180  1.0767  0.0103
    9MOL   O478 4974   3.536   6.430   0.359 -0.1069  0.4867  0.1459
    9MOL   C479 4975   3.430   6.337   0.318 -0.4825 -0.3787  0.3904
    9MOL   C480 4976   3.417   6.204   0.403  0.2576  0.2363 -0.8194
    9MOL   O481 4977   3.376   6.254   0.533  0.0837  0.1717 -0.0506
    9MOL   C482 4978   3.332   6.091   0.340 -0.1172  0.2518 -0.0210
    9MOL   C483 4979   3.182   6.103   0.376 -0.2611  1.2772  0.6487
    9MOL   C484 4980   3.099   5.994   0.294 -0.4456 -0.4474 -0.4032
    9MOL   O485 4981   2.966   5.997   0.344 -0.0888  0.7554 -0.1367
    9MOL   C486 4982   3.160   5.847   0.313  0.7640 -0.5099 -0.0515
    9MOL   C487 4983   3.078   5.747   0.244 -0.2770  0.6877 -0.1439
    9MOL   C488 4984   3.308   5.843   0.276  0.1987 -0.2940  0.5910
    9MOL   C489 4985   3.380   5.943   0.367  0.8009  0.1237 -0.1164
    9MOL   H490 4986   3.444   6.313   0.213 -0.4758  1.9095 -0.1654
    9MOL   H491 4987   3.336   6.391   0.320 -0.1972  0.2065 -1.5705
    9MOL   H492 4988   3.519   6.167   0.418  0.1304 -0.0139 -0.5727
    9MOL   H493 4989   3.436   6.325   0.552 -0.9591  1.2900 -0.8090
    9MOL   H494 4990   3.352   6.105   0.233 -1.6651  1.0992 -0.2287
    9MOL   H495 4991   3.171   6.090   0.484  3.0255  3.1950  1.2936
    9MOL   H496 4992   3.143   6.201   0.350  0.9034  1.6567  0.3095
    9MOL   H497 4993   3.096   6.022   0.188 -0.7410  0.8172 -0.0750
    9MOL   H498 4994   2.973   5.986   0.438 -1.0719  0.0078 -0.1425
    9MOL   H499 4995   3.150   5.828   0.420  0.3406 -0.0988 -0.0116
    9MOL   H500 4996   2.973   5.744   0.275 -0.2773  0.4294 -0.1678
    9MOL   H501 4997   3.073   5.764   0.136 -2.5441  0.5686 -0.0838
    9MOL   H502 4998   3.317   5.856   0.169 -0.7001  0.8186  0.6403
    9MOL   H503 4999   3.350   5.742   0.282 -0.3758 -0.5532  0.2251
    9MOL   H504 5000   3.486   5.945   0.341  0.2004  1.0627 -2.5680
    9MOL   H505 5001   3.371   5.918   0.473 -0.8232 -0.9726 -0.5090
    9MOL   O506 5002   3.149   5.621   0.247 -0.0547  0.0697 -0.0652
    9MOL   C507 5003   3.082   5.521   0.164  0.3866 -0.2920  0.5569
    9MOL   C508 5004   3.181   5.403   0.168 -0.2686  0.1532 -0.1686
    9MOL   O509 5005   3.180   5.348   0.299  0.3828  0.1356  0.0652
    9MOL   C510 5006   3.161   5.297   0.056  0.5267  0.5911 -0.5470
    9MOL   C511 5007   3.033   5.217   0.066  0.3335 -1.0176  0.5735
    9MOL   C512 5008   3.024   5.114   7.582 -0.0965 -0.5227 -0.2959
    9MOL   O513 5009   2.896   5.059   7.591 -0.2139  0.2372 -0.1106
    9MOL   C514 5010   3.139   5.015   7.603  0.3632  0.7253 -1.0845
    9MOL   C515 5011   3.125   4.900   7.507  0.1194 -0.4438 -0.0155
    9MOL   C516 5012   3.269   5.087   7.573  0.0252 -0.4009 -0.0669
    9MOL   C517 5013   3.283   5.198   0.052 -0.1995 -0.1000 -0.5779
    9MOL   H518 5014   3.078   5.560   0.063 -2.9801  0.4514  0.9168
    9MOL   H519 5015   2.984   5.490   0.200  0.4558 -1.0389  0.1314
    9MOL   H520 5016   3.280   5.448   0.169 -0.4509  0.5532  0.6778
    9MOL   H521 5017   3.199   5.412   0.366  1.7479  1.6463 -1.7234
    9MOL   H522 5018   3.166   5.344   7.588  2.0490 -1.4369 -1.5012
    9MOL   H523 5019   3.030   5.175   0.167 -4.3638  1.9240  1.8162
    9MOL   H524 5020   2.946   5.283   0.059 -0.2750 -1.9183 -0.6168
    9MOL   H525 5021   3.038   5.174   7.492  0.7160  2.7157  1.8858
    9MOL   H526 5022   2.894   4.988   0.023  1.0796 -0.9089 -1.3752
    9MOL   H527 5023   3.141   4.984   0.078 -1.5587 -1.0361 -1.5208
    9MOL   H528 5024   3.107   4.942   7.408  0.2354  0.3891  0.3131
    9MOL   H529 5025   3.213   4.836   7.504  0.2902 -0.2902  1.3018
    9MOL   H530 5026   3.262   5.122   7.470 -0.2541  1.6696  0.6505
    9MOL   H531 5027   3.356   5.021   7.573  0.3085 -0.0310 -0.8946
    9MOL   H532 5028   3.376   5.253   0.045 -0.0132  0.0910  2.6188
    9MOL   H533 5029   3.299   5.139   0.142  1.2037  0.8714 -0.1799
    9MOL   O534 5030   3.015   4.822   7.547  0.0792 -0.2518  0.2138
    9MOL   C535 5031   2.969   4.729   7.440 -0.2677 -0.2175 -0.9694
    9MOL   C536 5032   2.817   4.729   7.441  0.7525  0.3846 -0.0972
    9MOL   O537 5033   2.772   4.857   7.405  0.0193 -0.7844 -0.0630
    9MOL   C538 5034   2.736   4.622   7.364  0.2852  0.2696  0.8998
    9MOL   C539 5035   2.710   4.650   7.211 -0.5463 -0.5811 -0.6227
    9MOL   C540 5036   2.638   4.530   7.146  0.0029 -0.5619  0.5334
    9MOL   O541 5037   2.611   4.568   7.011 -0.4327 -0.8822  0.3416
    9MOL   C542 5038   2.501   4.497   7.221  0.5268 -0.5382  0.5610
    9MOL   C543 5039   2.437   4.372   7.169  0.3027  0.5598  0.3455
    9MOL   C544 5040   2.520   4.487   7.375 -0.4495 -0.1356  0.4024
    9MOL   C545 5041   2.598   4.610   7.424 -0.6070 -0.6067 -0.7023
    9MOL   H546 5042   3.028   4.640   7.463  1.0460  0.9840  0.3510
    9MOL   H547 5043   3.004   4.761   7.341  0.8558  0.2622 -0.4228
    9MOL   H548 5044   2.784   4.722   7.545  1.7906  1.6812  0.3480
    9MOL   H549 5045   2.824   4.908   7.464  2.6063 -0.5094 -2.4636
    9MOL   H550 5046   2.783   4.524   7.374 -1.0763 -0.5257 -0.3824
    9MOL   H551 5047   2.662   4.748   7.213 -0.9211 -0.7755  0.0092
    9MOL   H552 5048   2.799   4.676   7.154 -0.0876 -2.8998 -0.9895
    9MOL   H553 5049   2.709   4.448   7.145 -0.1877 -0.7198  0.0458
    9MOL   H554 5050   2.694   4.592   6.974 -0.3979 -0.4529  0.6919
    9MOL   H555 5051   2.432   4.578   7.198 -0.1555 -0.8276  1.5753
    9MOL   H556 5052   2.331   4.376   7.193 -0.8658 -1.9093 -3.7709
    9MOL   H557 5053   2.445   4.369   7.060 -0.9013 -0.2675  0.2705
    9MOL   H558 5054   2.584   4.398   7.378 -1.0839 -0.6788 -1.3656
    9MOL   H559 5055   2.429   4.473   7.432 -0.6132 -2.8092 -0.4516
    9MOL   H560 5056   2.605   4.607   7.533 -0.4026 -1.8525 -0.7369
    9MOL   H561 5057   2.538   4.700   7.417 -3.0294 -2.2103 -0.8730
    9MOL   H562 5058   2.473   4.281   7.217 -1.2981 -0.7388 -0.8684
   10MOL     O1 5059   3.027   3.571   6.565 -0.1634 -0.1075 -0.5008
   10MOL     C2 5060   2.976   3.551   6.435 -0.1459  0.1128  0.4444
   10MOL     C3 5061   3.079   3.480   6.364  0.8079 -0.2908  0.2646
   10MOL     O4 5062   3.122   3.368   6.442  0.3134 -0.3963 -0.0798
   10MOL     C5 5063   3.038   3.438   6.218  0.4896 -0.0383 -0.0497
   10MOL     C6 5064   2.924   3.336   6.206  0.3949  0.2328 -0.3069
   10MOL     C7 5065   2.954   3.184   6.218  0.0525  0.1826 -0.4336
   10MOL     O8 5066   2.975   3.142   6.350 -0.4778  0.5926  0.1569
   10MOL     C9 5067   3.072   3.139   6.124 -0.2812  0.3886 -0.7937
   10MOL    C10 5068   3.036   3.124   5.977 -0.2756 -0.3599 -0.2559
   10MOL    C11 5069   3.194   3.234   6.149 -0.4170 -0.5533 -0.1695
   10MOL    C12 5070   3.159   3.390   6.132 -0.2977  0.1434 -0.2233
   10MOL    H13 5071   2.959   3.651   6.395 -0.3926  0.0491  0.3876
   10MOL    H14 5072   2.890   3.483   6.435  0.2601 -0.4013 -0.3631
   10MOL    H15 5073   3.166   3.543   6.345 -0.6274  1.2806 -1.3203
   10MOL    H16 5074   3.211   3.357   6.412 -0.2060  2.2910 -2.7629
   10MOL    H17 5075   2.989   3.520   6.167  0.6201  0.4067  0.5398
   10MOL    H18 5076   2.849   3.365   6.280  1.8748  1.0657  0.8970
   10MOL    H19 5077   2.881   3.359   6.108 -0.1837  1.9380  0.3352
   10MOL    H20 5078   2.865   3.129   6.189 -0.1888  0.8001 -0.8747
   10MOL    H21 5079   3.038   3.196   6.395 -0.6081  0.3480  0.6367
   10MOL    H22 5080   3.104   3.039   6.156 -2.9311  0.3215  1.8742
   10MOL    H23 5081   2.945   3.066   5.961  0.1971 -1.1324 -0.1763
   10MOL    H24 5082   3.016   3.220   5.929 -2.5087 -0.1314  1.0709
   10MOL    H25 5083   3.279   3.199   6.090 -1.3235 -1.5067 -0.9439
   10MOL    H26 5084   3.220   3.226   6.254 -1.2686  2.3663  0.2923
   10MOL    H27 5085   3.144   3.422   6.029 -0.6156 -0.0773 -0.2450
   10MOL    H28 5086   3.244   3.452   6.161 -2.0004  2.3766  0.1386
   10MOL    H29 5087   3.056   3.484   6.586  0.3003  0.3557  0.8503
   10MOL    O30 5088   3.153   3.067   5.918  0.0752  0.3805  0.1898
   10MOL    C31 5089   3.142   3.050   5.781  0.3202 -0.0732  0.6550
   10MOL    C32 5090   3.282   3.001   5.745 -0.6590 -0.2519 -0.0846
   10MOL    O33 5091   3.362   3.109   5.779  0.3636 -0.5372 -0.1808
   10MOL    C34 5092   3.338   2.876   5.819 -0.4162 -0.2197 -0.2504
   10MOL    C35 5093   3.485   2.836   5.795 -0.3821 -0.6811  0.7265
   10MOL    C36 5094   3.540   2.721   5.871 -0.5668  0.5519  0.4132
   10MOL    O37 5095   3.676   2.697   5.834 -0.5535 -0.2832  0.6701
   10MOL    C38 5096   3.456   2.591   5.848 -0.6786 -0.6074 -0.4632
   10MOL    C39 5097   3.501   2.470   5.936  0.3085  0.1820 -0.2609
   10MOL    C40 5098   3.306   2.630   5.882  0.7063 -0.5323 -0.4102
   10MOL    C41 5099   3.252   2.748   5.790  0.2309 -0.1599  0.1162
   10MOL    H42 5100   3.110   3.140   5.727 -0.6849 -1.0272 -0.3596
   10MOL    H43 5101   3.068   2.975   5.757  1.3464 -0.3729 -1.7696
   10MOL    H44 5102   3.298   2.981   5.639  0.8108 -0.3630  0.1468
   10MOL    H45 5103   3.327   3.141   5.861  1.0240  0.6477 -0.3478
   10MOL    H46 5104   3.344   2.896   5.926  0.0215 -1.0263 -0.1220
   10MOL    H47 5105   3.499   2.823   5.688 -0.3472  0.0897  0.6359
   10MOL    H48 5106   3.549   2.922   5.815 -2.1430  0.4221  1.7190
   10MOL    H49 5107   3.543   2.736   5.979  2.0869  0.1956  0.4273
   10MOL    H50 5108   3.712   2.617   5.869 -1.4651 -2.2791 -2.6263
   10MOL    H51 5109   3.461   2.563   5.743  0.4415 -0.4371 -0.4578
   10MOL    H52 5110   3.596   2.424   5.906 -0.8266 -2.9120  0.6805
   10MOL    H53 5111   3.518   2.505   6.038  4.6243 -0.6881 -0.5708
   10MOL    H54 5112   3.294   2.655   5.987 -1.6091  1.3434 -1.1036
   10MOL    H55 5113   3.247   2.539   5.870 -0.3825 -0.3007  2.9013
   10MOL    H56 5114   3.144   2.764   5.784  0.0594 -1.2877  0.0718
   10MOL    H57 5115   3.273   2.723   5.686 -0.2374  0.2742 -0.0818
   10MOL    O58 5116   3.412   2.363   5.936  0.0412  0.4669 -0.3226
   10MOL    C59 5117   3.440   2.248   6.018  0.3112 -0.3211  0.2092
   10MOL    C60 5118   3.303   2.171   6.021  1.0967 -0.5186  0.2732
   10MOL    O61 5119   3.331   2.041   6.063  0.2013 -0.0425 -0.0343
   10MOL    C62 5120   3.193   2.211   6.121  0.4828 -0.4238  0.2580
   10MOL    C63 5121   3.236   2.194   6.273 -0.0221  0.1486 -0.3695
   10MOL    C64 5122   3.119   2.236   6.364  0.8092  0.5988  0.4273
   10MOL    O65 5123   3.167   2.229   6.494  0.0095 -0.0025  0.5024
   10MOL    C66 5124   3.000   2.144   6.350 -0.5403 -0.4041  0.6361
   10MOL    C67 5125   2.881   2.172   6.446  0.1936 -0.9062  0.6819
   10MOL    C68 5126   2.943   2.154   6.205 -0.1411  0.3232 -0.2807
   10MOL    C69 5127   3.058   2.130   6.099  0.4077 -0.9607 -0.5437
   10MOL    H70 5128   3.479   2.280   6.115  0.8876  1.6069 -0.6329
   10MOL    H71 5129   3.518   2.189   5.971  0.4376  1.9499 -2.5373
   10MOL    H72 5130   3.249   2.168   5.926  1.1485  3.8657 -0.0185
   10MOL    H73 5131   3.390   2.000   6.002 -0.1968 -0.7879  0.0694
   10MOL    H74 5132   3.177   2.316   6.097  0.4367 -0.3658  0.5354
   10MOL    H75 5133   3.274   2.096   6.302 -0.7418  0.2688  1.0462
   10MOL    H76 5134   3.319   2.264   6.289  1.7389 -2.2835  1.6438
   10MOL    H77 5135   3.097   2.341   6.347  0.4820  0.5433  0.5148
   10MOL    H78 5136   3.186   2.139   6.516 -0.7277 -0.0547  0.9268
   10MOL    H79 5137   3.043   2.044   6.351 -1.1600 -0.6642  1.9381
   10MOL    H80 5138   2.802   2.102   6.418 -0.5131 -0.1165  0.6900
   10MOL    H81 5139   2.906   2.166   6.552 -1.5297  0.8062  1.2202
   10MOL    H82 5140   2.910   2.257   6.190  0.2993  0.7493  1.5540
   10MOL    H83 5141   2.851   2.095   6.195  0.4567 -0.7158  0.2468
   10MOL    H84 5142   3.025   2.146   5.996 -1.9079 -1.6304  0.0722
   10MOL    H85 5143   3.089   2.026   6.108 -0.0253 -0.9753  0.7887
   10MOL    O86 5144   2.814   2.296   6.425  0.1633  0.2458 -0.0362
   10MOL    C87 5145   2.708   2.322   6.511  0.0087 -1.2762  0.5128
   10MOL    C88 5146   2.624   2.440   6.449 -0.4139 -0.7652 -0.5991
   10MOL    O89 5147   2.546   2.378   6.351  0.2016 -0.6891 -0.2950
   10MOL    C90 5148   2.544   2.532   6.544  0.4428 -0.4320  0.4716
   10MOL    C91 5149   2.426   2.460   6.609  0.1418  0.5562 -0.8398
   10MOL    C92 5150   2.343   2.550   6.704 -0.6681 -0.0553  0.7875
   10MOL    O93 5151   2.243   2.465   6.761  0.6770  0.4611  0.5294
   10MOL    C94 5152   2.294   2.678   6.634 -0.2371  0.0601  0.4957
   10MOL    C95 5153   2.234   2.775   6.734  1.2898  0.2735 -0.3022
   10MOL    C96 5154   2.413   2.744   6.554 -0.4252  0.3293  0.0516
   10MOL    C97 5155   2.493   2.651   6.469  0.0052 -0.1163  0.2949
   10MOL    H98 5156   2.748   2.360   6.604 -0.2034 -2.1731  0.9749
   10MOL    H99 5157   2.640   2.239   6.528 -1.4561 -0.1267  0.3652
   10MOL   H100 5158   2.690   2.516   6.409 -2.2037  1.9868  1.4774
   10MOL   H101 5159   2.563   2.425   6.270  1.5350 -0.2173  0.2461
   10MOL   H102 5160   2.617   2.571   6.615  0.4932 -0.9111  0.6836
   10MOL   H103 5161   2.351   2.425   6.539  2.0115 -0.9840 -2.1248
   10MOL   H104 5162   2.453   2.372   6.667  1.6763  1.5695  0.0373
   10MOL   H105 5163   2.402   2.581   6.790  1.0090  1.0084 -0.6958
   10MOL   H106 5164   2.256   2.482   6.853  0.1702  0.3496  0.6220
   10MOL   H107 5165   2.219   2.639   6.565  0.3019 -0.8426  0.4034
   10MOL   H108 5166   2.229   2.875   6.693  3.9499 -0.3308 -2.2169
   10MOL   H109 5167   2.134   2.735   6.753  0.7283  2.4738  1.4526
   10MOL   H110 5168   2.488   2.787   6.620 -1.0158 -0.1307  1.0169
   10MOL   H111 5169   2.373   2.821   6.487  0.9237  2.1749  1.3089
   10MOL   H112 5170   2.568   2.713   6.420 -1.4258  0.7519 -0.8348
   10MOL   H113 5171   2.423   2.615   6.395  1.0760  0.0445 -0.8026
   10MOL   O114 5172   2.312   2.784   6.856  0.5423  0.1470 -0.4149
   10MOL   C115 5173   2.243   2.830   6.974  0.0740 -0.0089  0.3293
   10MOL   C116 5174   2.138   2.723   7.025 -0.4919  0.0451 -0.1753
   10MOL   O117 5175   2.173   2.685   7.153 -0.6741  0.0548  0.1413
   10MOL   C118 5176   1.995   2.778   7.026 -0.2787  0.0563 -0.4967
   10MOL   C119 5177   1.962   2.895   7.129 -0.4906 -0.4404  1.3238
   10MOL   C120 5178   1.826   2.962   7.100  0.7188 -0.6246  0.5944
   10MOL   O121 5179   1.808   3.056   7.201  0.0652  0.1847  0.2721
   10MOL   C122 5180   1.715   2.852   7.096 -0.4368  0.1171  0.4804
   10MOL   C123 5181   1.571   2.886   7.060 -0.2076 -0.8122  0.0669
   10MOL   C124 5182   1.751   2.728   7.011 -0.6734  0.0139 -0.1439
   10MOL   C125 5183   1.893   2.670   7.050 -0.2034 -0.5368  0.4903
   10MOL   H126 5184   2.191   2.913   6.927  1.8054  0.5044 -0.7432
   10MOL   H127 5185   2.319   2.864   7.044 -0.2369  0.6956  0.3182
   10MOL   H128 5186   2.142   2.633   6.965  0.4616  0.7396 -1.1709
   10MOL   H129 5187   2.252   2.634   7.141  1.0416  2.9424 -1.4325
   10MOL   H130 5188   1.984   2.822   6.927 -0.3513  3.8601  1.1251
   10MOL   H131 5189   1.977   2.846   7.225 -1.4738  0.2654  1.8495
   10MOL   H132 5190   2.048   2.962   7.132 -0.2571 -0.6099 -0.9620
   10MOL   H133 5191   1.841   3.015   7.006 -2.0789 -0.7226  0.0530
   10MOL   H134 5192   1.734   3.110   7.178  0.5040  0.0185 -1.5379
   10MOL   H135 5193   1.704   2.816   7.199  3.0611  0.2898  0.9531
   10MOL   H136 5194   1.522   2.800   7.105  1.2823 -1.3598  0.6734
   10MOL   H137 5195   1.523   2.971   7.107 -1.9356 -1.4975 -0.4096
   10MOL   H138 5196   1.773   2.765   6.911  0.5873 -1.6294 -0.4884
   10MOL   H139 5197   1.677   2.648   6.998 -0.4518 -0.1961 -0.1034
   10MOL   H140 5198   1.915   2.594   6.974 -0.3721 -2.7196  2.5640
   10MOL   H141 5199   1.899   2.625   7.149  1.1155  0.3472  0.8315
   10MOL   O142 5200   1.540   2.880   6.919  0.5143  0.1029  0.6834
   10MOL   C143 5201   1.563   3.005   6.869  0.0523  0.1671  0.4075
   10MOL   C144 5202   1.552   3.000   6.716 -0.0983  0.1542 -0.0627
   10MOL   O145 5203   1.542   3.130   6.665 -0.3350 -0.7028 -0.0339
   10MOL   C146 5204   1.666   2.911   6.655  0.1046 -1.4845 -0.3575
   10MOL   C147 5205   1.807   2.986   6.650  0.0041  0.0195 -0.6316
   10MOL   C148 5206   1.912   2.908   6.568 -0.5640  0.4290  0.9243
   10MOL   O149 5207   2.024   2.996   6.547 -0.5387  0.0081  0.4405
   10MOL   C150 5208   1.864   2.865   6.433 -0.4012 -0.1553 -0.2941
   10MOL   C151 5209   1.962   2.768   6.363  0.4290 -0.6853 -0.0718
   10MOL   C152 5210   1.733   2.777   6.453  0.5240 -0.1974  0.4753
   10MOL   C153 5211   1.620   2.858   6.517 -0.2851  0.1125 -0.2213
   10MOL   H154 5212   1.661   3.051   6.878 -0.6821  1.6499  1.1940
   10MOL   H155 5213   1.495   3.081   6.910  0.4380  2.0031 -2.1974
   10MOL   H156 5214   1.460   2.944   6.697  0.4747 -0.8889  0.2151
   10MOL   H157 5215   1.454   3.132   6.631 -0.6442  1.7588  0.7853
   10MOL   H158 5216   1.676   2.816   6.708  0.7205 -0.5864  1.1633
   10MOL   H159 5217   1.787   3.082   6.601  1.4830  0.7801  0.2205
   10MOL   H160 5218   1.835   2.993   6.755  0.2666 -1.7308 -0.5740
   10MOL   H161 5219   1.964   2.827   6.620 -1.0957 -0.1839  0.5088
   10MOL   H162 5220   2.055   3.027   6.630 -2.5220  1.2290  0.7594
   10MOL   H163 5221   1.841   2.954   6.375  1.0326  0.2630 -0.2196
   10MOL   H164 5222   2.059   2.816   6.349  0.1134 -0.4222 -1.4930
   10MOL   H165 5223   1.988   2.681   6.424 -1.1250 -0.1201  1.4494
   10MOL   H166 5224   1.765   2.693   6.514  2.5637  0.3679  0.2488
   10MOL   H167 5225   1.705   2.735   6.356  0.4504  1.6536 -0.3368
   10MOL   H168 5226   1.535   2.791   6.534 -0.5580  0.6966  0.7803
   10MOL   H169 5227   1.583   2.935   6.449  1.3156  1.4117  0.3673
   10MOL   O170 5228   1.909   2.735   6.231  0.7040 -0.1884  0.1102
   10MOL   C171 5229   1.990   2.640   6.155  0.1688  0.3280 -0.3110
   10MOL   C172 5230   1.923   2.618   6.013  0.4346 -0.0365 -0.2480
   10MOL   O173 5231   1.964   2.727   5.930  0.1785  0.0994  0.5971
   10MOL   C174 5232   1.971   2.484   5.966  0.1184  0.1443 -0.4583
   10MOL   C175 5233   2.122   2.477   5.919  0.1967 -0.1628 -0.6692
   10MOL   C176 5234   2.167   2.338   5.860  0.4495 -0.2828  0.6133
   10MOL   O177 5235   2.303   2.332   5.820 -0.4487 -0.3169 -0.3211
   10MOL   C178 5236   2.085   2.310   5.734 -0.2925 -0.5725  0.3460
   10MOL   C179 5237   2.121   2.175   5.669 -0.1808  0.6996  1.4250
   10MOL   C180 5238   1.929   2.309   5.772  0.4185  0.7831 -0.0667
   10MOL   C181 5239   1.883   2.435   5.847 -0.2567 -0.2082  0.0128
   10MOL   H182 5240   1.977   2.542   6.200 -0.0192  0.9792  1.0876
   10MOL   H183 5241   2.095   2.663   6.172 -0.6121  2.3725  2.0209
   10MOL   H184 5242   1.816   2.622   6.034  0.2180  0.1484 -1.3027
   10MOL   H185 5243   1.896   2.737   5.864 -2.3890 -0.6418  3.0261
   10MOL   H186 5244   1.959   2.406   6.041  1.4212  0.6702  0.3080
   10MOL   H187 5245   2.143   2.562   5.855 -0.9905  0.9153  0.3561
   10MOL   H188 5246   2.187   2.492   6.005 -0.7678 -1.9724  0.4067
   10MOL   H189 5247   2.162   2.256   5.932  4.6696  0.2447  1.6440
   10MOL   H190 5248   2.304   2.281   5.741  0.1181 -1.7838  0.6019
   10MOL   H191 5249   2.114   2.384   5.658 -0.5237 -0.0926  0.7208
   10MOL   H192 5250   2.098   2.086   5.727 -1.5725 -0.7128 -1.2277
   10MOL   H193 5251   2.054   2.175   5.583  1.8629  0.8455 -0.1984
   10MOL   H194 5252   1.922   2.231   5.848  2.7123 -0.5583 -1.1795
   10MOL   H195 5253   1.866   2.280   5.689 -0.1757 -4.8555  2.1466
   10MOL   H196 5254   1.780   2.430   5.883 -0.4302  2.7314 -0.0117
   10MOL   H197 5255   1.873   2.511   5.770  1.3576 -1.1175 -1.1284
   10MOL   O198 5256   2.255   2.157   5.631 -0.3916  0.5405  0.3680
   10MOL   C199 5257   2.271   2.102   5.497 -0.2425  0.5906  0.6522
   10MOL   C200 5258   2.421   2.069   5.464  0.0057 -0.4721  0.0303
   10MOL   O201 5259   2.410   1.982   5.358 -0.8333  0.3459  0.1748
   10MOL   C202 5260   2.503   2.190   5.412 -0.0555  0.0970 -0.3707
   10MOL   C203 5261   2.652   2.161   5.392 -0.7704  0.0247  0.3163
   10MOL   C204 5262   2.728   2.280   5.326 -0.4923  0.0399 -0.3454
   10MOL   O205 5263   2.861   2.227   5.301 -0.0042 -0.8179 -0.0369
   10MOL   C206 5264   2.723   2.409   5.410 -0.3366  0.2104 -0.2135
   10MOL   C207 5265   2.785   2.534   5.343  0.1280  0.1097  0.2063
   10MOL   C208 5266   2.577   2.437   5.438 -0.1381  0.4038 -0.1322
   10MOL   C209 5267   2.491   2.316   5.491  0.4266 -0.4378  0.4479
   10MOL   H210 5268   2.228   2.161   5.416  4.2732  1.4043 -1.3586
   10MOL   H211 5269   2.221   2.005   5.499 -2.0701  1.5077 -0.2098
   10MOL   H212 5270   2.473   2.006   5.537  0.3395 -0.4512 -0.1935
   10MOL   H213 5271   2.333   2.003   5.309 -0.7502 -1.5634 -0.8515
   10MOL   H214 5272   2.461   2.214   5.314  1.8988 -0.0564 -1.2659
   10MOL   H215 5273   2.695   2.131   5.487 -1.6679 -0.7921  0.4679
   10MOL   H216 5274   2.660   2.073   5.328  2.6443  0.3842  0.1750
   10MOL   H217 5275   2.683   2.298   5.228  0.1849 -2.2481 -1.1049
   10MOL   H218 5276   2.919   2.297   5.274  0.0813 -0.6903  0.4709
   10MOL   H219 5277   2.765   2.393   5.509 -0.4748  3.6427  0.4353
   10MOL   H220 5278   2.888   2.513   5.313  0.0556 -1.6273  1.0854
   10MOL   H221 5279   2.735   2.546   5.247  0.5974  2.2145  0.1929
   10MOL   H222 5280   2.518   2.475   5.354 -0.8997 -2.9749 -1.1892
   10MOL   H223 5281   2.576   2.514   5.515  2.1215 -0.1905  0.5170
   10MOL   H224 5282   2.390   2.355   5.488 -0.6866 -3.2913 -1.5126
   10MOL   H225 5283   2.506   2.299   5.598 -1.0245  0.8161  0.8641
   10MOL   O226 5284   2.766   2.646   5.427  0.5894 -0.1530  0.8920
   10MOL   C227 5285   2.818   2.768   5.375  0.7271 -0.1060  0.3209
   10MOL   C228 5286   2.849   2.859   5.499  0.0184  0.3287  0.2386
   10MOL   O229 5287   2.973   2.919   5.470  0.0719  0.1156  0.0086
   10MOL   C230 5288   2.750   2.976   5.526  0.5705 -0.3892 -0.6173
   10MOL   C231 5289   2.779   3.044   5.659 -0.1401 -0.2428 -0.4407
   10MOL   C232 5290   2.699   3.173   5.678  0.3078  0.1301  0.6990
   10MOL   O233 5291   2.746   3.235   5.795 -0.0844 -0.6312 -0.3494
   10MOL   C234 5292   2.559   3.121   5.701  0.0853  0.3568 -0.5446
   10MOL   C235 5293   2.460   3.236   5.739  0.5780  0.7397  0.5047
   10MOL   C236 5294   2.510   3.041   5.571  0.1085 -0.4069  0.2732
   10MOL   C237 5295   2.602   2.924   5.538 -0.0001 -0.1414  0.8060
   10MOL   H238 5296   2.746   2.809   5.304  0.0778 -0.1436  0.9485
   10MOL   H239 5297   2.913   2.758   5.322  0.3306 -1.0890 -0.2196
   10MOL   H240 5298   2.855   2.800   5.591  0.3788 -0.7111 -0.4418
   10MOL   H241 5299   3.031   2.846   5.457  1.3887  0.7809  1.9618
   10MOL   H242 5300   2.758   3.047   5.444 -0.9242 -0.0091 -0.4512
   10MOL   H243 5301   2.772   2.973   5.741 -1.5513  1.2507  0.7526
   10MOL   H244 5302   2.886   3.068   5.657  0.3590 -2.3544 -3.2874
   10MOL   H245 5303   2.697   3.242   5.593  0.1663 -0.0202  0.5791
   10MOL   H246 5304   2.671   3.284   5.824  0.5271  0.0291  0.1087
   10MOL   H247 5305   2.556   3.055   5.787  0.7060  1.5855  0.4256
   10MOL   H248 5306   2.474   3.329   5.683 -1.8936  0.7678 -0.1153
   10MOL   H249 5307   2.357   3.212   5.716  1.3270 -1.8844 -0.2231
   10MOL   H250 5308   2.516   3.108   5.485  0.0817 -1.7268 -0.7780
   10MOL   H251 5309   2.406   3.008   5.581  0.2528 -1.0692 -0.3883
   10MOL   H252 5310   2.568   2.872   5.448  1.4710 -0.1211  0.2147
   10MOL   H253 5311   2.599   2.851   5.618 -0.5157  0.9274  1.7683
   10MOL   O254 5312   2.458   3.256   5.881  0.2053 -0.0320  0.4021
   10MOL   C255 5313   2.337   3.309   5.930  0.0600  0.0560 -0.0652
   10MOL   C256 5314   2.311   3.453   5.875  0.0059  0.2159  0.0367
   10MOL   O257 5315   2.170   3.470   5.872 -0.4482  0.2365  0.1723
   10MOL   C258 5316   2.362   3.560   5.971  0.4787  0.4966  0.4851
   10MOL   C259 5317   2.352   3.705   5.909  0.4994  0.3612 -1.0559
   10MOL   C260 5318   2.406   3.816   5.998 -0.1564 -0.0976  0.2733
   10MOL   O261 5319   2.383   3.935   5.932  0.3443  0.7682 -0.4564
   10MOL   C262 5320   2.559   3.784   6.015  0.1845 -1.2511  0.8156
   10MOL   C263 5321   2.638   3.902   6.079  0.1546 -0.7383  0.1955
   10MOL   C264 5322   2.579   3.642   6.082  0.6219  0.9499 -0.0329
   10MOL   C265 5323   2.509   3.529   6.010  0.7772 -0.4164 -0.2429
   10MOL   H266 5324   2.332   3.307   6.039  1.7226 -0.5578  0.0136
   10MOL   H267 5325   2.252   3.242   5.914  1.0315 -1.7349  2.0600
   10MOL   H268 5326   2.351   3.457   5.773  1.9093  0.6787  0.7699
   10MOL   H269 5327   2.126   3.388   5.852  0.1365  0.5548 -2.5699
   10MOL   H270 5328   2.308   3.560   6.066 -0.2352 -1.6966  0.1180
   10MOL   H271 5329   2.412   3.706   5.817 -0.8235 -1.0756 -1.9440
   10MOL   H272 5330   2.250   3.730   5.879  0.2419 -2.8206 -3.0396
   10MOL   H273 5331   2.361   3.815   6.097  0.3294 -2.9485  0.4930
   10MOL   H274 5332   2.458   3.990   5.947  0.7513 -0.2581  1.4585
   10MOL   H275 5333   2.611   3.770   5.920 -0.7574 -0.0692  0.1167
   10MOL   H276 5334   2.597   3.941   6.172 -0.7692  0.2554 -0.6178
   10MOL   H277 5335   2.742   3.872   6.091  0.1784 -0.5088  0.5451
   10MOL   H278 5336   2.539   3.651   6.183  1.0576 -1.4255  0.3705
   10MOL   H279 5337   2.687   3.629   6.088  0.2057 -2.4892  1.1183
   10MOL   H280 5338   2.519   3.448   6.083  3.9614  0.5077  0.4538
   10MOL   H281 5339   2.561   3.506   5.917 -0.8292  2.1000 -1.8280
   10MOL   O282 5340   2.650   4.000   5.977 -0.0524 -0.5352  0.1530
   10MOL   C283 5341   2.718   4.121   6.011  0.6279 -1.5992  0.0000
   10MOL   C284 5342   2.796   4.192   5.895  0.1934  0.7255 -0.4038
   10MOL   O285 5343   2.701   4.255   5.804 -0.1014 -0.1664  0.2626
   10MOL   C286 5344   2.893   4.295   5.949  0.2837  0.5972 -0.1666
   10MOL   C287 5345   2.827   4.416   6.016 -0.2030 -0.4784  0.1836
   10MOL   C288 5346   2.929   4.519   6.064  0.0855  0.4766 -0.4990
   10MOL   O289 5347   2.859   4.631   6.109  0.2001 -0.3673  0.1580
   10MOL   C290 5348   3.025   4.567   5.952  0.1084  0.4312 -0.5290
   10MOL   C291 5349   3.129   4.654   6.007 -0.5275 -0.3628 -0.1962
   10MOL   C292 5350   3.088   4.438   5.893  0.5696 -0.6083  0.2031
   10MOL   C293 5351   2.991   4.333   5.841 -0.5917  0.4087 -0.3081
   10MOL   H294 5352   2.796   4.102   6.084  1.9803  0.7844 -0.8006
   10MOL   H295 5353   2.647   4.189   6.058  1.5635 -0.1577 -0.6192
   10MOL   H296 5354   2.852   4.115   5.842 -0.1021 -0.9271  1.6363
   10MOL   H297 5355   2.635   4.298   5.857  3.1204  2.0632  2.6244
   10MOL   H298 5356   2.950   4.250   6.030 -0.4563  1.5601  0.9005
   10MOL   H299 5357   2.741   4.453   5.960  0.2853 -0.1344 -0.3478
   10MOL   H300 5358   2.780   4.396   6.112  2.0675 -0.3680  1.3468
   10MOL   H301 5359   2.981   4.468   6.146 -1.4113 -0.4522 -0.1129
   10MOL   H302 5360   2.808   4.615   6.187 -1.4569  3.1049 -0.1135
   10MOL   H303 5361   2.971   4.620   5.873 -0.6228 -1.2195 -1.1497
   10MOL   H304 5362   3.091   4.738   6.065  0.4518 -0.8334  1.1497
   10MOL   H305 5363   3.192   4.604   6.082 -0.3945 -1.3351 -0.9433
   10MOL   H306 5364   3.139   4.406   5.984  2.0588  1.0887  0.0067
   10MOL   H307 5365   3.165   4.457   5.819  0.3175 -1.3273 -0.2472
   10MOL   H308 5366   3.050   4.249   5.806  0.3531  0.5388  0.9115
   10MOL   H309 5367   2.937   4.374   5.756  0.2628  0.0633 -1.0270
   10MOL   O310 5368   3.221   4.694   5.907 -0.0449  0.1367  0.7532
   10MOL   C311 5369   3.286   4.818   5.917  0.6074  0.4172  0.9211
   10MOL   C312 5370   3.324   4.846   5.769 -0.4380 -0.0698  0.4957
   10MOL   O313 5371   3.441   4.771   5.748  0.7400 -0.0211  0.5174
   10MOL   C314 5372   3.204   4.826   5.671  0.5068 -0.9427 -0.3549
   10MOL   C315 5373   3.241   4.835   5.526  0.4686 -0.1152 -0.1426
   10MOL   C316 5374   3.124   4.792   5.433  0.5052  0.2500  0.1675
   10MOL   O317 5375   3.155   4.799   5.295  0.0379 -0.0553  0.2249
   10MOL   C318 5376   3.003   4.885   5.453 -0.0016  0.7353  0.5626
   10MOL   C319 5377   2.878   4.853   5.357  0.3588  0.1644  0.3569
   10MOL   C320 5378   2.967   4.888   5.602 -0.1886 -0.3087 -0.3872
   10MOL   C321 5379   3.083   4.923   5.701 -0.3598  0.2608 -0.0862
   10MOL   H322 5380   3.377   4.819   5.978  0.4063 -1.2579  1.2711
   10MOL   H323 5381   3.219   4.896   5.953  1.2413  0.7242  1.4668
   10MOL   H324 5382   3.359   4.949   5.756  0.4035 -0.4843 -0.6198
   10MOL   H325 5383   3.419   4.683   5.774 -2.0755 -0.0733 -1.8052
   10MOL   H326 5384   3.162   4.726   5.676 -1.7253 -0.0828 -1.3067
   10MOL   H327 5385   3.281   4.935   5.509  0.2226  0.0621  0.3204
   10MOL   H328 5386   3.324   4.770   5.497 -0.0269 -0.1595 -1.4987
   10MOL   H329 5387   3.095   4.692   5.464 -1.0585 -0.1558 -2.4101
   10MOL   H330 5388   3.106   4.731   5.251 -0.6840  0.8142 -0.3251
   10MOL   H331 5389   3.030   4.987   5.426  0.6907  0.7301  1.1923
   10MOL   H332 5390   2.896   4.870   5.250  1.8657  0.5400  0.6529
   10MOL   H333 5391   2.846   4.749   5.360 -0.2544  0.3488  0.2846
   10MOL   H334 5392   2.934   4.788   5.630  2.7800 -1.3079 -0.2785
   10MOL   H335 5393   2.885   4.958   5.621  0.5955  0.9893 -1.7329
   10MOL   H336 5394   3.045   4.900   5.801  1.7870  2.3034  1.2750
   10MOL   H337 5395   3.108   5.029   5.698 -1.3225  0.4906  0.0436
   10MOL   O338 5396   2.757   4.925   5.385  0.3093  0.4073  0.6282
   10MOL   C339 5397   2.752   5.067   5.356 -0.6766  0.3353 -0.3128
   10MOL   C340 5398   2.607   5.126   5.380 -0.5721 -0.6340  0.2214
   10MOL   O341 5399   2.625   5.153   5.517 -0.5131 -0.4151 -0.5951
   10MOL   C342 5400   2.569   5.249   5.299 -0.1870 -0.0008 -0.2151
   10MOL   C343 5401   2.566   5.212   5.155  0.1525  0.3862  0.2471
   10MOL   C344 5402   2.497   5.331   5.079 -0.0354 -0.1058  0.0692
   10MOL   O345 5403   2.500   5.294   4.946 -0.6885  0.1928  0.2082
   10MOL   C346 5404   2.587   5.462   5.093 -0.9506  0.3125  0.5166
   10MOL   C347 5405   2.519   5.581   5.018  0.3623  0.0142 -0.6989
   10MOL   C348 5406   2.608   5.492   5.242 -1.0980 -0.1159 -0.1553
   10MOL   C349 5407   2.664   5.371   5.320  0.5074  0.0920  0.3585
   10MOL   H350 5408   2.788   5.085   5.255  0.7565 -0.1164  0.1058
   10MOL   H351 5409   2.828   5.124   5.409 -1.2753  0.3927  0.5104
   10MOL   H352 5410   2.535   5.046   5.368 -3.1282  1.3393  1.9750
   10MOL   H353 5411   2.639   5.075   5.569 -1.6417  0.1426  0.5843
   10MOL   H354 5412   2.469   5.271   5.336 -0.4740 -1.9568  0.2027
   10MOL   H355 5413   2.665   5.185   5.119  0.4149 -0.2071  1.3896
   10MOL   H356 5414   2.504   5.122   5.153 -1.5245  1.5208 -2.2058
   10MOL   H357 5415   2.391   5.337   5.101 -0.9864  1.7314 -4.3868
   10MOL   H358 5416   2.490   5.373   4.896  0.3309 -0.0608 -0.4239
   10MOL   H359 5417   2.686   5.438   5.054 -1.5109  1.4618 -1.6690
   10MOL   H360 5418   2.417   5.585   5.056  1.3191 -1.1366  2.1076
   10MOL   H361 5419   2.578   5.666   5.051 -0.0461  0.2523 -0.5899
   10MOL   H362 5420   2.511   5.527   5.277 -0.4444  1.2385  0.3007
   10MOL   H363 5421   2.678   5.575   5.250 -0.5891 -0.6051  0.5381
   10MOL   H364 5422   2.674   5.403   5.424 -0.2827  0.7789  0.2337
   10MOL   H365 5423   2.760   5.352   5.273  0.2225  0.8183 -0.5313
   10MOL   O366 5424   2.526   5.564   4.876 -0.1360  0.2380  0.6323
   10MOL   C367 5425   2.641   5.632   4.822 -0.3170  0.4488 -0.1731
   10MOL   C368 5426   2.686   5.587   4.681 -0.1356  0.4103 -0.2581
   10MOL   O369 5427   2.762   5.476   4.691 -0.5962  0.3657 -0.0785
   10MOL   C370 5428   2.575   5.563   4.574 -0.2484  0.1686  0.2094
   10MOL   C371 5429   2.636   5.547   4.431 -0.1436 -0.6587  0.1075
   10MOL   C372 5430   2.532   5.514   4.331 -0.2683 -0.1964  0.4848
   10MOL   O373 5431   2.595   5.491   4.211 -0.0923 -0.5589  0.7039
   10MOL   C374 5432   2.420   5.622   4.320  0.2374 -0.3604 -0.0402
   10MOL   C375 5433   2.312   5.593   4.215  0.1477 -0.4692 -0.4407
   10MOL   C376 5434   2.355   5.623   4.466  0.5466  0.1869 -0.4663
   10MOL   C377 5435   2.459   5.662   4.572 -0.1353  0.3123 -0.6970
   10MOL   H378 5436   2.727   5.619   4.888  1.3239  1.0090 -2.1476
   10MOL   H379 5437   2.623   5.740   4.824 -1.1645  0.3310 -1.1249
   10MOL   H380 5438   2.739   5.674   4.642  0.6228  1.0398  2.0736
   10MOL   H381 5439   2.838   5.509   4.737  0.4808 -0.0856 -1.4683
   10MOL   H382 5440   2.536   5.464   4.602 -0.1050 -0.0955 -0.5159
   10MOL   H383 5441   2.697   5.633   4.407  0.6758 -1.5100 -0.8876
   10MOL   H384 5442   2.707   5.465   4.420  0.5108 -0.1243  0.3097
   10MOL   H385 5443   2.480   5.419   4.345  0.9287 -0.8259  0.7790
   10MOL   H386 5444   2.539   5.538   4.150 -0.6789 -1.9239  0.1636
   10MOL   H387 5445   2.449   5.721   4.285 -2.7986  0.4746 -0.3248
   10MOL   H388 5446   2.272   5.493   4.221  2.1896 -1.3069 -0.2552
   10MOL   H389 5447   2.229   5.660   4.240  2.0836  1.9443 -0.2317
   10MOL   H390 5448   2.302   5.532   4.495  0.3181 -0.0135 -1.4838
   10MOL   H391 5449   2.275   5.695   4.457  1.6075  1.0731 -3.1791
   10MOL   H392 5450   2.403   5.661   4.666 -0.7134  0.6180 -1.0391
   10MOL   H393 5451   2.497   5.762   4.550  2.1529  0.0923  1.8784
   10MOL   O394 5452   2.353   5.628   4.084  0.8227 -0.2406  0.1717
   10MOL   C395 5453   2.245   5.606   3.994  0.1934  0.3610  0.3395
   10MOL   C396 5454   2.307   5.621   3.852 -0.2098 -0.7066 -0.1774
   10MOL   O397 5455   2.306   5.763   3.823 -0.4941  0.1359 -0.2589
   10MOL   C398 5456   2.427   5.543   3.815 -0.2543  0.3184 -0.2378
   10MOL   C399 5457   2.561   5.606   3.853  0.0435  0.1561 -0.3201
   10MOL   C400 5458   2.680   5.516   3.801  0.3823  0.1402 -0.7204
   10MOL   O401 5459   2.802   5.582   3.825 -0.6605 -0.9276 -0.0034
   10MOL   C402 5460   2.673   5.489   3.647  0.1213 -0.1742  0.0156
   10MOL   C403 5461   2.786   5.396   3.605 -0.6751  0.8822  0.3734
   10MOL   C404 5462   2.533   5.416   3.622 -0.3964  0.5849 -0.2978
   10MOL   C405 5463   2.421   5.505   3.671 -0.4625 -0.0228 -0.6119
   10MOL   H406 5464   2.154   5.665   4.007 -1.0130 -1.0632 -1.3607
   10MOL   H407 5465   2.195   5.509   4.008 -0.8906  1.3164  3.6228
   10MOL   H408 5466   2.228   5.569   3.797  1.3990 -1.4033 -1.8630
   10MOL   H409 5467   2.326   5.808   3.904 -0.6193 -1.2590  0.5677
   10MOL   H410 5468   2.420   5.451   3.874 -0.4895 -0.8099 -1.9973
   10MOL   H411 5469   2.568   5.707   3.812  1.8604 -1.0329 -3.0857
   10MOL   H412 5470   2.571   5.624   3.960 -1.7197  0.9697 -0.2686
   10MOL   H413 5471   2.674   5.420   3.853  3.6727 -0.3024 -1.0737
   10MOL   H414 5472   2.874   5.526   3.850  0.2789  0.5923  0.7756
   10MOL   H415 5473   2.679   5.581   3.589 -1.5513 -0.2718 -0.3453
   10MOL   H416 5474   2.884   5.443   3.599 -0.1199 -0.5055 -2.2093
   10MOL   H417 5475   2.792   5.314   3.677  2.4597 -0.7008 -1.5481
   10MOL   H418 5476   2.528   5.314   3.660  1.7588  0.2224 -0.9766
   10MOL   H419 5477   2.516   5.404   3.515 -0.1070 -0.0367 -0.2706
   10MOL   H420 5478   2.334   5.443   3.650 -1.8041  1.4636  0.4307
   10MOL   H421 5479   2.421   5.596   3.611  3.2969 -0.7066 -1.8051
   10MOL   O422 5480   2.756   5.328   3.484 -0.0595 -0.1258  0.6450
   10MOL   C423 5481   2.875   5.279   3.424 -0.1055 -0.1819 -0.4423
   10MOL   C424 5482   2.855   5.135   3.355  0.2233 -0.1025 -0.0338
   10MOL   O425 5483   2.941   5.115   3.245 -0.4592 -0.1244 -0.0007
   10MOL   C426 5484   2.861   5.015   3.456 -0.2053 -0.3479 -0.0072
   10MOL   C427 5485   2.997   4.972   3.503 -1.1637 -0.2344 -0.0687
   10MOL   C428 5486   2.999   4.859   3.602  0.6051  0.0616 -0.7543
   10MOL   O429 5487   3.143   4.841   3.635  0.0575  0.2696 -0.1599
   10MOL   C430 5488   2.928   4.734   3.533  0.3114  0.2312 -0.2162
   10MOL   C431 5489   2.897   4.626   3.631 -0.2436 -0.1123 -0.6297
   10MOL   C432 5490   2.791   4.782   3.473 -0.0431 -0.0461 -0.5855
   10MOL   C433 5491   2.799   4.897   3.381 -0.1558 -0.1129 -0.0579
   10MOL   H434 5492   2.958   5.269   3.494 -0.9717 -1.5559  0.4271
   10MOL   H435 5493   2.917   5.349   3.352  2.1043 -0.3475  0.6489
   10MOL   H436 5494   2.752   5.146   3.321 -0.8884 -1.2576  2.8080
   10MOL   H437 5495   2.944   5.193   3.192  0.1349 -0.3983 -0.3720
   10MOL   H438 5496   2.795   5.032   3.541 -1.4125 -0.6412 -0.8730
   10MOL   H439 5497   3.066   4.940   3.424  1.0118  0.2322  1.5827
   10MOL   H440 5498   3.043   5.058   3.552 -0.9163 -2.7342  4.3292
   10MOL   H441 5499   2.941   4.888   3.689 -1.6125 -0.8639 -1.9003
   10MOL   H442 5500   3.146   4.761   3.684 -1.6953  1.4144  1.9537
   10MOL   H443 5501   2.989   4.711   3.445 -0.0058  1.8608 -0.8736
   10MOL   H444 5502   2.991   4.603   3.681 -0.0823 -1.4048 -1.4888
   10MOL   H445 5503   2.830   4.660   3.710 -0.6104 -3.6973  0.7056
   10MOL   H446 5504   2.724   4.804   3.556 -0.0001 -1.1527 -0.2542
   10MOL   H447 5505   2.745   4.699   3.419 -0.2524  1.6867 -3.1987
   10MOL   H448 5506   2.706   4.918   3.329  0.6943  0.2724 -1.4503
   10MOL   H449 5507   2.854   4.873   3.290  0.0702  1.3114 -0.3080
   10MOL   O450 5508   2.855   4.512   3.561 -0.4305  0.0016  0.3016
   10MOL   C451 5509   2.822   4.405   3.641 -0.3968 -0.0564 -0.0960
   10MOL   C452 5510   2.825   4.278   3.558  0.1570 -0.5118  0.7471
   10MOL   O453 5511   2.849   4.167   3.637 -0.7545  0.5643 -0.1904
   10MOL   C454 5512   2.694   4.254   3.476  0.5448 -0.0151  0.0715
   10MOL   C455 5513   2.565   4.242   3.562 -0.2820 -0.2539 -0.1708
   10MOL   C456 5514   2.435   4.231   3.473 -0.8784  0.1564 -0.5894
   10MOL   O457 5515   2.325   4.224   3.566 -0.4007 -0.7648 -0.0943
   10MOL   C458 5516   2.441   4.109   3.381  0.3468 -0.0213 -0.7179
   10MOL   C459 5517   2.319   4.098   3.292 -0.3242  0.1285  1.0499
   10MOL   C460 5518   2.572   4.116   3.302 -0.1350  0.2587 -0.4930
   10MOL   C461 5519   2.697   4.132   3.391 -0.5492 -1.4441  0.5238
   10MOL   H462 5520   2.728   4.428   3.692 -1.2894 -2.8878 -0.4030
   10MOL   H463 5521   2.897   4.395   3.720 -1.7658 -1.2837  1.0835
   10MOL   H464 5522   2.911   4.290   3.491 -2.2117 -0.1919 -2.3583
   10MOL   H465 5523   2.926   4.132   3.594 -0.6228  0.7674 -0.1248
   10MOL   H466 5524   2.689   4.334   3.403 -1.3485 -1.3387 -1.2892
   10MOL   H467 5525   2.569   4.165   3.639  1.2837  0.0478  0.0669
   10MOL   H468 5526   2.544   4.340   3.604 -1.1251  0.6373 -2.5756
   10MOL   H469 5527   2.428   4.324   3.417  0.4340  1.1276  0.8290
   10MOL   H470 5528   2.320   4.311   3.603  1.1384 -1.3453  1.5696
   10MOL   H471 5529   2.451   4.020   3.444 -0.6560  0.3363 -0.0402
   10MOL   H472 5530   2.235   4.064   3.353  0.6916  2.1603  3.6798
   10MOL   H473 5531   2.295   4.189   3.236 -1.6775 -0.6648  0.3083
   10MOL   H474 5532   2.575   4.196   3.228  0.0370  0.8876  0.1949
   10MOL   H475 5533   2.588   4.016   3.261 -0.0786  0.9547 -2.2052
   10MOL   H476 5534   2.788   4.137   3.331 -0.7327 -0.2731  0.3324
   10MOL   H477 5535   2.705   4.037   3.444  0.7351 -0.6508  1.7897
   10MOL   O478 5536   2.340   3.989   3.196 -0.1087 -0.6765  0.1643
   10MOL   C479 5537   2.316   4.019   3.064  0.0658  0.1336  0.4623
   10MOL   C480 5538   2.270   3.900   2.979 -0.3317  0.5209  0.4404
   10MOL   O481 5539   2.167   3.822   3.032 -0.7547  0.2406 -0.1820
   10MOL   C482 5540   2.241   3.918   2.827  0.2313 -0.1649 -0.0294
   10MOL   C483 5541   2.226   3.789   2.745  0.4849 -0.4641  1.1069
   10MOL   C484 5542   2.187   3.814   2.604 -0.5350 -0.1940  0.3078
   10MOL   O485 5543   2.158   3.681   2.553  0.0071 -0.1043  0.0528
   10MOL   C486 5544   2.300   3.886   2.534  0.0466  0.4055 -0.1933
   10MOL   C487 5545   2.267   3.908   2.386  0.7664  0.2970  0.0816
   10MOL   C488 5546   2.333   4.020   2.603  0.7115  0.4760  0.7186
   10MOL   C489 5547   2.359   3.994   2.755  0.0491 -0.8664 -1.0115
   10MOL   H490 5548   2.404   4.069   3.024  0.3458  0.3489  1.3451
   10MOL   H491 5549   2.233   4.087   3.050  0.1662  0.1617 -0.0143
   10MOL   H492 5550   2.346   3.822   2.983 -0.4621  0.3405 -0.6255
   10MOL   H493 5551   2.170   3.829   3.126  1.0504  0.7309 -0.2506
   10MOL   H494 5552   2.148   3.974   2.819 -0.2700 -0.9713  0.0358
   10MOL   H495 5553   2.310   3.728   2.776  1.1635 -0.9827 -1.6562
   10MOL   H496 5554   2.148   3.729   2.793  0.4188  0.8754  2.7086
   10MOL   H497 5555   2.094   3.869   2.590 -1.7500 -2.1397  0.4758
   10MOL   H498 5556   2.067   3.664   2.571  0.3120 -1.3250  0.5309
   10MOL   H499 5557   2.388   3.823   2.543  0.3809  0.8016 -0.6715
   10MOL   H500 5558   2.211   3.828   2.337  0.4574  0.8347 -0.4434
   10MOL   H501 5559   2.196   3.989   2.375  0.4955 -0.0288 -0.6151
   10MOL   H502 5560   2.250   4.090   2.594  1.2745  1.1625  0.7980
   10MOL   H503 5561   2.423   4.061   2.557  0.5926  0.4083  0.4257
   10MOL   H504 5562   2.382   4.085   2.811  0.3868 -0.9469 -1.0133
   10MOL   H505 5563   2.444   3.927   2.774  1.0111  0.2457 -1.3155
   10MOL   O506 5564   2.381   3.946   2.310 -0.0869 -0.7187 -0.2029
   10MOL   C507 5565   2.364   3.921   2.175  0.6856  0.5693  0.7641
   10MOL   C508 5566   2.487   3.983   2.105  0.3279 -0.0246  0.2628
   10MOL   O509 5567   2.595   3.906   2.150  0.2440  0.0817  0.6897
   10MOL   C510 5568   2.477   4.001   1.947  0.7896 -0.1186 -0.4530
   10MOL   C511 5569   2.616   3.972   1.881 -0.1529  0.5858 -0.4200
   10MOL   C512 5570   2.614   3.976   1.726  0.0837  0.1107 -0.0722
   10MOL   O513 5571   2.734   3.931   1.674  0.2910 -0.2611  0.7482
   10MOL   C514 5572   2.570   4.115   1.687  0.1680  0.0860 -0.2977
   10MOL   C515 5573   2.602   4.149   1.538  0.0140  0.4880 -0.1113
   10MOL   C516 5574   2.430   4.149   1.737 -0.3859  0.4428  0.4161
   10MOL   C517 5575   2.413   4.124   1.885 -0.5943  0.2398 -0.1055
   10MOL   H518 5576   2.273   3.974   2.147  0.7733  1.0725  1.4466
   10MOL   H519 5577   2.358   3.816   2.147  0.8910  0.6920  0.2476
   10MOL   H520 5578   2.501   4.088   2.131  2.6328 -0.3031  0.2549
   10MOL   H521 5579   2.556   3.886   2.234 -1.5217  2.1006  0.3885
   10MOL   H522 5580   2.409   3.918   1.925  1.5495 -1.0907  0.7723
   10MOL   H523 5581   2.691   4.042   1.918 -0.3508  0.3765  0.3841
   10MOL   H524 5582   2.648   3.874   1.915 -1.9135  0.0394 -0.2870
   10MOL   H525 5583   2.550   3.898   1.687 -3.8550  3.3189 -0.4079
   10MOL   H526 5584   2.790   4.006   1.688 -0.6748  0.7321 -0.5830
   10MOL   H527 5585   2.638   4.181   1.742 -0.5259  1.3884 -0.9822
   10MOL   H528 5586   2.706   4.133   1.509 -0.0442  0.6922 -0.4363
   10MOL   H529 5587   2.537   4.094   1.469  1.4480  0.8671 -1.8253
   10MOL   H530 5588   2.362   4.085   1.681 -2.0654  0.7848  2.0250
   10MOL   H531 5589   2.408   4.251   1.705 -0.4592  0.0413 -0.8267
   10MOL   H532 5590   2.306   4.117   1.903 -0.8462  1.3504 -1.1347
   10MOL   H533 5591   2.453   4.213   1.934  0.3338 -0.7997  1.0751
   10MOL   O534 5592   2.568   4.285   1.514  0.4964 -0.5766 -0.0426
   10MOL   C535 5593   2.638   4.332   1.398  0.0840 -0.0091  0.4403
   10MOL   C536 5594   2.577   4.466   1.349  0.1024  0.4592 -0.6848
   10MOL   O537 5595   2.662   4.515   1.250  0.1955 -0.2742 -0.4279
   10MOL   C538 5596   2.429   4.461   1.301 -0.0698  0.0154 -0.4446
   10MOL   C539 5597   2.407   4.358   1.188 -0.2084  0.1404 -0.1626
   10MOL   C540 5598   2.273   4.367   1.121 -0.1940 -0.2836 -0.3194
   10MOL   O541 5599   2.269   4.266   1.024  0.0136 -0.3822 -0.2764
   10MOL   C542 5600   2.235   4.503   1.070  0.1682 -0.2554  0.4009
   10MOL   C543 5601   2.105   4.501   1.005  0.5292  0.0023 -0.4541
   10MOL   C544 5602   2.245   4.608   1.185 -0.1981  0.1897 -0.3640
   10MOL   C545 5603   2.378   4.605   1.260 -0.5288  0.5988  0.4729
   10MOL   H546 5604   2.641   4.259   1.318 -0.1654  1.2616 -0.7490
   10MOL   H547 5605   2.744   4.355   1.410  0.6585 -2.5994  0.6052
   10MOL   H548 5606   2.587   4.540   1.428  2.1166  0.5491 -1.0090
   10MOL   H549 5607   2.741   4.554   1.283  1.0440 -1.1834 -1.3521
   10MOL   H550 5608   2.369   4.420   1.382 -0.1679 -0.5118 -0.7805
   10MOL   H551 5609   2.488   4.355   1.115 -1.2673  0.2020 -1.3589
   10MOL   H552 5610   2.419   4.257   1.226  0.3673 -0.3688 -1.6887
   10MOL   H553 5611   2.203   4.348   1.203  0.0282  1.3087  0.2648
   10MOL   H554 5612   2.334   4.285   0.958 -0.7209  0.4469 -0.7707
   10MOL   H555 5613   2.317   4.538   1.006 -1.5342  0.6996 -1.2898
   10MOL   H556 5614   2.082   4.586   0.940 -0.0284  1.2387  1.3336
   10MOL   H557 5615   2.093   4.422   0.931 -0.4935  0.8341 -1.1891
   10MOL   H558 5616   2.164   4.589   1.255  0.6177  2.5452  1.3160
   10MOL   H559 5617   2.218   4.710   1.158  2.6320  1.1867  0.3113
   10MOL   H560 5618   2.367   4.662   1.352 -4.3511  1.6198 -0.5349
   10MOL   H561 5619   2.454   4.660   1.204  2.1351 -0.2366  3.1294
   10MOL   H562 5620   2.029   4.485   1.082  2.0510 -1.2675  0.8283
   11MOL     O1 5621   6.868   2.991   3.774  0.2701 -0.2591 -0.1187
   11MOL     C2 5622   6.957   2.985   3.659  0.4402 -0.0777 -0.2841
   11MOL     C3 5623   6.893   3.004   3.523  0.0398  0.0346 -0.3978
   11MOL     O4 5624   6.780   3.080   3.537  0.3229  0.4912 -0.3880
   11MOL     C5 5625   6.987   3.062   3.415 -0.0772 -0.9093  0.1194
   11MOL     C6 5626   7.012   3.210   3.436  0.1966 -0.2421  0.1130
   11MOL     C7 5627   7.111   3.273   3.338 -0.4606 -0.7061 -0.6731
   11MOL     O8 5628   7.136   3.404   3.375 -0.4925  0.0162 -0.6218
   11MOL     C9 5629   7.061   3.255   3.193 -0.5513 -0.6116  0.1679
   11MOL    C10 5630   7.154   3.303   3.083 -0.4084  0.0044  0.1573
   11MOL    C11 5631   7.040   3.100   3.168  0.2459  0.1680 -0.1828
   11MOL    C12 5632   6.947   3.035   3.270 -0.0875  0.2066 -0.4016
   11MOL    H13 5633   7.017   2.895   3.661 -0.7369 -0.8500  1.0588
   11MOL    H14 5634   7.035   3.060   3.677  0.0619  0.1302  0.4922
   11MOL    H15 5635   6.849   2.909   3.492  0.8528 -0.4814  0.0374
   11MOL    H16 5636   6.759   3.079   3.629 -0.5272  0.0797 -0.5757
   11MOL    H17 5637   7.088   3.024   3.423  0.6771  1.0936  0.3668
   11MOL    H18 5638   6.915   3.259   3.430  0.1399 -0.3156  0.4260
   11MOL    H19 5639   7.060   3.230   3.532 -0.5087  0.1584  0.3848
   11MOL    H20 5640   7.209   3.227   3.335  0.1201  0.4384  0.3961
   11MOL    H21 5641   7.052   3.438   3.403  0.0975  0.8787  0.1683
   11MOL    H22 5642   6.970   3.314   3.183 -0.0287  0.5652  2.0660
   11MOL    H23 5643   7.179   3.409   3.087 -0.4782  0.0501 -0.5416
   11MOL    H24 5644   7.241   3.239   3.098 -0.5102 -0.3005 -0.5139
   11MOL    H25 5645   7.127   3.035   3.159  1.3354  1.5614  0.0532
   11MOL    H26 5646   6.991   3.079   3.072  3.4929  0.2224 -1.9142
   11MOL    H27 5647   6.939   2.927   3.259  0.7124  0.2739 -1.7042
   11MOL    H28 5648   6.843   3.066   3.254 -0.8672 -1.9999  0.1957
   11MOL    H29 5649   6.926   3.009   3.846  0.0357 -0.9560  0.2428
   11MOL    O30 5650   7.115   3.279   2.953  0.0548  0.9224  0.1099
   11MOL    C31 5651   7.212   3.319   2.854 -0.7846  0.1200 -0.2285
   11MOL    C32 5652   7.182   3.272   2.721 -0.0660 -0.1822 -0.1875
   11MOL    O33 5653   7.258   3.322   2.623 -0.3905  0.2540 -0.5123
   11MOL    C34 5654   7.160   3.119   2.716 -0.5094 -0.0261 -0.2351
   11MOL    C35 5655   7.275   3.030   2.773  0.4035 -0.5427  0.7183
   11MOL    C36 5656   7.391   2.993   2.673 -0.0257 -0.3599  0.3932
   11MOL    O37 5657   7.467   3.111   2.648 -0.7888  0.0530 -0.3412
   11MOL    C38 5658   7.338   2.944   2.534 -0.1473 -0.5448  0.2000
   11MOL    C39 5659   7.299   2.799   2.515 -0.2008  0.1795 -0.3563
   11MOL    C40 5660   7.229   3.040   2.478  0.0497 -0.3474  0.0032
   11MOL    C41 5661   7.116   3.060   2.576  0.4394 -0.2326  0.1250
   11MOL    H42 5662   7.315   3.304   2.887 -1.2601 -1.0863  0.7693
   11MOL    H43 5663   7.192   3.426   2.849  1.3964  0.5517  0.1086
   11MOL    H44 5664   7.085   3.317   2.702 -0.4968 -1.0935 -0.1353
   11MOL    H45 5665   7.331   3.261   2.620 -0.3150  0.3058  0.2095
   11MOL    H46 5666   7.068   3.110   2.774 -0.1966 -2.1806 -0.0312
   11MOL    H47 5667   7.315   3.075   2.864  1.0782  0.2298  0.0353
   11MOL    H48 5668   7.233   2.935   2.807 -0.6119 -0.6979 -0.9357
   11MOL    H49 5669   7.453   2.916   2.718 -0.7074  0.4349  2.7758
   11MOL    H50 5670   7.502   3.146   2.728 -1.2407  0.9761 -0.5366
   11MOL    H51 5671   7.419   2.958   2.462 -0.6574 -0.8539 -0.4487
   11MOL    H52 5672   7.376   2.725   2.539  1.0566  1.4091 -0.5048
   11MOL    H53 5673   7.235   2.801   2.603 -1.1294 -1.0006 -0.9901
   11MOL    H54 5674   7.187   3.006   2.383  0.3100  1.3958 -0.7570
   11MOL    H55 5675   7.271   3.138   2.454  0.5121 -0.4301  0.4616
   11MOL    H56 5676   7.063   2.965   2.588  0.1690  0.0762  1.4348
   11MOL    H57 5677   7.035   3.123   2.540  0.7023 -0.0903 -0.2149
   11MOL    O58 5678   7.223   2.765   2.398 -0.0644  0.1246  0.9254
   11MOL    C59 5679   7.298   2.724   2.292 -0.8997 -0.5213  0.4343
   11MOL    C60 5680   7.181   2.699   2.192  0.4621 -0.0370 -0.4039
   11MOL    O61 5681   7.138   2.826   2.156 -0.0887  0.4356  0.2615
   11MOL    C62 5682   7.215   2.628   2.064  0.8329 -0.1607  0.5162
   11MOL    C63 5683   7.329   2.696   1.986 -0.1040  0.5885  0.7991
   11MOL    C64 5684   7.356   2.644   1.843 -0.0990 -0.2447 -0.0390
   11MOL    O65 5685   7.449   2.730   1.786 -0.4869 -0.5220 -0.0857
   11MOL    C66 5686   7.233   2.634   1.758  0.7345  0.2941  0.4398
   11MOL    C67 5687   7.254   2.568   1.611  0.2630 -0.6289  0.0663
   11MOL    C68 5688   7.129   2.550   1.832 -0.0830  0.8337 -0.1478
   11MOL    C69 5689   7.092   2.608   1.971 -0.3511 -0.1095  0.0176
   11MOL    H70 5690   7.343   2.627   2.313 -0.7090 -0.2762  1.1593
   11MOL    H71 5691   7.361   2.809   2.264  0.1933 -1.4076  0.1852
   11MOL    H72 5692   7.119   2.629   2.247  2.0831 -1.0554  0.1889
   11MOL    H73 5693   7.158   2.884   2.228 -0.8200  1.2962 -0.2292
   11MOL    H74 5694   7.254   2.528   2.086  2.1857  0.3538  0.4836
   11MOL    H75 5695   7.304   2.801   1.967  3.2218  1.3287  0.2955
   11MOL    H76 5696   7.420   2.699   2.046 -0.9772 -0.4369  2.2207
   11MOL    H77 5697   7.396   2.545   1.866 -1.4580 -0.9139 -0.4869
   11MOL    H78 5698   7.526   2.685   1.753  0.7551 -0.0716  2.0764
   11MOL    H79 5699   7.195   2.734   1.736  0.6971 -0.0126 -0.9592
   11MOL    H80 5700   7.345   2.608   1.567  0.3719 -1.0333 -0.0733
   11MOL    H81 5701   7.265   2.461   1.628  0.7247 -0.5088  0.5478
   11MOL    H82 5702   7.168   2.450   1.853  0.4014  0.9829 -0.3317
   11MOL    H83 5703   7.034   2.526   1.784  0.1917  1.5330 -1.0737
   11MOL    H84 5704   7.020   2.540   2.018 -0.9548  0.3164 -0.2829
   11MOL    H85 5705   7.038   2.699   1.945  0.7547  0.8814  1.1222
   11MOL    O86 5706   7.134   2.588   1.531  0.4753  0.1460 -0.3951
   11MOL    C87 5707   7.147   2.704   1.459 -0.0265 -0.5329 -0.8093
   11MOL    C88 5708   7.180   2.670   1.312 -0.7031  0.0720 -0.0368
   11MOL    O89 5709   7.064   2.637   1.240 -0.0163 -0.0225 -0.1604
   11MOL    C90 5710   7.238   2.789   1.241 -0.2467  0.4489 -0.5310
   11MOL    C91 5711   7.141   2.915   1.243 -0.2437 -0.2910  0.2298
   11MOL    C92 5712   7.217   3.036   1.181  0.1783  0.0008  0.2201
   11MOL    O93 5713   7.118   3.134   1.195  0.4397 -0.2294  0.2333
   11MOL    C94 5714   7.260   3.006   1.038  0.1299 -0.0842 -0.2469
   11MOL    C95 5715   7.335   3.116   0.958 -0.1118  0.4886 -0.1128
   11MOL    C96 5716   7.347   2.876   1.035 -0.5328  0.9775 -0.2477
   11MOL    C97 5717   7.274   2.760   1.096 -0.2890  0.0126  0.2483
   11MOL    H98 5718   7.208   2.781   1.506  0.2944 -0.1319 -1.8669
   11MOL    H99 5719   7.048   2.748   1.457 -0.9738 -2.5742 -0.2580
   11MOL   H100 5720   7.257   2.593   1.316 -0.3944  0.3622 -0.2708
   11MOL   H101 5721   7.031   2.556   1.275 -1.4556  0.9506  0.7887
   11MOL   H102 5722   7.329   2.805   1.300 -0.4401 -1.2617  0.2697
   11MOL   H103 5723   7.044   2.908   1.195 -0.1083 -1.3443  0.0975
   11MOL   H104 5724   7.124   2.937   1.348 -2.0138  1.7162 -0.4555
   11MOL   H105 5725   7.303   3.065   1.241  0.2326 -0.2130  0.2438
   11MOL   H106 5726   7.075   3.150   1.112  0.4438  0.9230  0.4485
   11MOL   H107 5727   7.170   2.982   0.982  0.0288 -2.4036  0.8548
   11MOL   H108 5728   7.352   3.087   0.855  2.5554  1.9241 -0.1308
   11MOL   H109 5729   7.279   3.210   0.957 -1.7371 -0.3764  2.4946
   11MOL   H110 5730   7.447   2.883   1.077  0.7040 -0.7982 -2.7246
   11MOL   H111 5731   7.378   2.863   0.931  0.2445  0.9629 -0.0154
   11MOL   H112 5732   7.337   2.673   1.084 -0.3722 -0.1895  1.2334
   11MOL   H113 5733   7.195   2.738   1.024 -0.4952 -0.8223  0.7245
   11MOL   O114 5734   7.454   3.136   1.025  0.6116  0.0221 -0.5596
   11MOL   C115 5735   7.540   3.241   0.991 -0.4063  0.2960  0.6930
   11MOL   C116 5736   7.566   3.316   1.119  0.8288 -1.1028 -0.3509
   11MOL   O117 5737   0.043   3.413   1.108  0.1846 -0.0648  0.2350
   11MOL   C118 5738   7.441   3.396   1.158  0.0351 -0.3112 -0.4828
   11MOL   C119 5739   7.386   3.497   1.061  0.3719  0.4458  0.4920
   11MOL   C120 5740   7.245   3.546   1.105 -0.9037 -0.3698  0.4384
   11MOL   O121 5741   7.195   3.628   1.004  0.5453 -0.2528 -0.3465
   11MOL   C122 5742   7.255   3.625   1.229 -0.2050 -0.1501 -0.1548
   11MOL   C123 5743   7.111   3.678   1.263 -0.1003 -0.2640 -0.6705
   11MOL   C124 5744   7.332   3.544   1.338  0.4301  0.7225 -0.5439
   11MOL   C125 5745   7.462   3.466   1.295 -0.0970 -0.9260 -0.0206
   11MOL   H126 5746   7.498   3.307   0.915  2.0879  1.0775 -0.0485
   11MOL   H127 5747   0.007   3.214   0.949 -0.4077  0.2762  0.7012
   11MOL   H128 5748   7.588   3.251   1.203  1.6853  0.6573  0.8245
   11MOL   H129 5749   0.034   3.473   1.036  0.6435  1.0848  1.1336
   11MOL   H130 5750   7.366   3.318   1.170 -0.4773 -0.0041 -1.6111
   11MOL   H131 5751   7.457   3.580   1.062 -0.7049  1.3806  0.9514
   11MOL   H132 5752   7.373   3.451   0.963 -1.2342  1.1308  0.3629
   11MOL   H133 5753   7.172   3.466   1.117 -0.2845 -1.0719 -0.4119
   11MOL   H134 5754   7.264   3.684   0.971 -0.4082 -0.1044 -2.1669
   11MOL   H135 5755   7.326   3.704   1.206 -1.8813  1.0015 -1.4155
   11MOL   H136 5756   7.065   3.744   1.189  0.5721  1.7671  0.6830
   11MOL   H137 5757   7.044   3.593   1.268 -0.7466  0.3818  2.2148
   11MOL   H138 5758   7.254   3.476   1.375  1.6708 -0.6035 -0.3255
   11MOL   H139 5759   7.350   3.609   1.424 -1.6831  1.7091 -0.7960
   11MOL   H140 5760   7.480   3.389   1.369 -0.1119  2.1221  3.2983
   11MOL   H141 5761   7.548   3.534   1.296 -0.7844 -0.0153 -1.1635
   11MOL   O142 5762   7.113   3.754   1.377 -0.6830 -0.0908  0.1474
   11MOL   C143 5763   7.170   3.887   1.362 -0.7374 -0.1218  0.0079
   11MOL   C144 5764   7.176   3.962   1.506 -0.1054  0.2372  0.4737
   11MOL   O145 5765   7.260   4.070   1.484 -0.4161  0.1177  0.2439
   11MOL   C146 5766   7.039   3.992   1.577 -0.3706 -0.5111 -0.2790
   11MOL   C147 5767   6.962   4.108   1.496  0.2012  0.5970  0.1998
   11MOL   C148 5768   6.988   4.259   1.539  0.2324  0.1460 -0.1708
   11MOL   O149 5769   7.096   4.305   1.461  0.1370 -0.1472 -0.4410
   11MOL   C150 5770   7.002   4.284   1.694  0.2370 -0.1685 -0.0365
   11MOL   C151 5771   6.860   4.283   1.755  0.2366 -1.1702 -0.7007
   11MOL   C152 5772   7.092   4.178   1.759  0.2269 -0.8118 -0.2520
   11MOL   C153 5773   7.051   4.029   1.728  0.4416  0.3330  0.2779
   11MOL   H154 5774   7.103   3.937   1.292 -0.1236 -0.2277 -0.6620
   11MOL   H155 5775   7.271   3.889   1.322  0.6987 -0.8987  3.4517
   11MOL   H156 5776   7.237   3.900   1.571 -0.1671  2.0819  2.3563
   11MOL   H157 5777   7.341   4.046   1.525 -0.8642 -2.3696 -0.2665
   11MOL   H158 5778   6.979   3.902   1.564 -1.3848 -0.0424  1.0932
   11MOL   H159 5779   6.950   4.099   1.388 -0.0972 -1.1622  0.3518
   11MOL   H160 5780   6.858   4.082   1.515  0.3166 -1.6932 -1.9845
   11MOL   H161 5781   6.907   4.321   1.500  0.4546  1.9402  2.1134
   11MOL   H162 5782   7.159   4.235   1.470 -0.2800 -0.2139  2.0689
   11MOL   H163 5783   7.044   4.384   1.708  2.6205 -1.4273  2.3035
   11MOL   H164 5784   6.804   4.200   1.712 -2.4978  0.7147 -0.9024
   11MOL   H165 5785   6.860   4.270   1.863 -3.0916 -1.2928 -0.6605
   11MOL   H166 5786   7.097   4.193   1.867  1.1730  0.3290 -0.4522
   11MOL   H167 5787   7.191   4.198   1.719 -0.3912 -0.6722 -1.7374
   11MOL   H168 5788   6.950   4.013   1.767  0.2178 -1.8014 -1.1075
   11MOL   H169 5789   7.112   3.959   1.785  0.6998  1.0776  0.9365
   11MOL   O170 5790   6.808   4.416   1.735  0.0153  0.0136 -0.2083
   11MOL   C171 5791   6.757   4.487   1.850 -0.4245 -0.2775 -0.0082
   11MOL   C172 5792   6.691   4.609   1.786 -0.3869 -0.1658  0.2921
   11MOL   O173 5793   6.574   4.564   1.721  0.0113  0.0174  0.4521
   11MOL   C174 5794   6.655   4.718   1.895 -0.0850  0.0358  0.2227
   11MOL   C175 5795   6.559   4.677   2.015 -0.0456 -0.1917  0.4678
   11MOL   C176 5796   6.544   4.782   2.121 -0.2822  0.3346  0.0448
   11MOL   O177 5797   6.462   4.725   2.228  1.0697  0.1730  0.4425
   11MOL   C178 5798   6.487   4.912   2.068  0.8508  0.3572 -0.5318
   11MOL   C179 5799   6.474   5.026   2.176  0.5093 -0.4063  0.7516
   11MOL   C180 5800   6.569   4.957   1.949 -0.3457 -0.2609 -0.4900
   11MOL   C181 5801   6.579   4.842   1.844  0.7330  0.3538 -0.2787
   11MOL   H182 5802   6.841   4.521   1.911  0.7152  2.1211 -2.7754
   11MOL   H183 5803   6.688   4.439   1.919 -2.0805  1.8245 -0.1266
   11MOL   H184 5804   6.764   4.655   1.719  0.0537 -1.1675  0.0669
   11MOL   H185 5805   6.602   4.499   1.658 -1.0974  0.5204 -0.5825
   11MOL   H186 5806   6.753   4.754   1.926  1.0595 -1.6604 -1.3032
   11MOL   H187 5807   6.460   4.648   1.980  0.0760  0.0527 -0.0856
   11MOL   H188 5808   6.607   4.589   2.057 -0.9825 -0.7283  0.4389
   11MOL   H189 5809   6.647   4.794   2.153  0.2948 -0.7661 -1.3805
   11MOL   H190 5810   6.464   4.782   2.303  1.3465 -0.6233  1.0494
   11MOL   H191 5811   6.391   4.878   2.028  0.9468  0.3483 -0.7578
   11MOL   H192 5812   6.570   5.062   2.211  0.6080  0.5493 -0.4607
   11MOL   H193 5813   6.428   5.111   2.127  0.9553 -0.9865 -0.7158
   11MOL   H194 5814   6.668   4.988   1.981 -0.5714 -1.0304  1.0014
   11MOL   H195 5815   6.526   5.044   1.901 -0.6571  1.3342  2.5631
   11MOL   H196 5816   6.621   4.888   1.755  0.2576  0.8376 -0.2577
   11MOL   H197 5817   6.481   4.817   1.804  0.8047  0.4933 -0.5388
   11MOL   O198 5818   6.407   4.968   2.287  0.3503  0.6945 -0.2285
   11MOL   C199 5819   6.311   5.059   2.346  0.2456  0.4333  0.1719
   11MOL   C200 5820   6.220   4.984   2.441 -0.3045  0.0457  0.5292
   11MOL   O201 5821   6.170   4.883   2.361 -0.4131 -0.0111  0.5861
   11MOL   C202 5822   6.292   4.926   2.572 -0.2004 -0.0886  0.0969
   11MOL   C203 5823   6.283   5.038   2.682  0.5201  0.0479 -0.5743
   11MOL   C204 5824   6.361   4.999   2.810  0.0505  0.0281  0.3837
   11MOL   O205 5825   6.346   5.112   2.897  0.0741 -0.3135  0.5895
   11MOL   C206 5826   6.506   4.962   2.788 -0.2329 -0.5184 -0.4152
   11MOL   C207 5827   6.572   4.923   2.915 -0.6390  0.5038 -0.0953
   11MOL   C208 5828   6.500   4.845   2.689  0.8729  0.0730  0.3328
   11MOL   C209 5829   6.446   4.893   2.560 -0.3236 -0.1462  0.3633
   11MOL   H210 5830   6.261   5.126   2.276  0.0583  1.4868  1.2928
   11MOL   H211 5831   6.378   5.127   2.398  0.0022 -1.0684  2.5310
   11MOL   H212 5832   6.132   5.040   2.472  0.7509  0.3691  3.0956
   11MOL   H213 5833   6.245   4.841   2.321 -1.4681  0.6849 -2.2755
   11MOL   H214 5834   6.245   4.834   2.606  1.6724 -0.7190  1.0528
   11MOL   H215 5835   6.306   5.135   2.639  2.3655 -0.2568 -0.3033
   11MOL   H216 5836   6.180   5.058   2.713  0.8322 -0.8324  1.0886
   11MOL   H217 5837   6.308   4.915   2.853  0.1326 -1.1935 -1.8453
   11MOL   H218 5838   6.340   5.188   2.842 -0.5217 -2.3525 -2.3046
   11MOL   H219 5839   6.563   5.045   2.747  0.5258 -0.9123 -0.1681
   11MOL   H220 5840   6.543   4.988   2.998 -1.6381  0.5408 -0.4673
   11MOL   H221 5841   6.526   4.828   2.944 -1.2774  0.7950 -0.1323
   11MOL   H222 5842   6.436   4.762   2.718  0.0438  0.8737  0.8135
   11MOL   H223 5843   6.599   4.806   2.669  1.5792  1.0734  1.7914
   11MOL   H224 5844   6.447   4.807   2.492 -0.7681  0.4047 -0.3576
   11MOL   H225 5845   6.506   4.972   2.514 -0.0570 -1.0739 -0.9139
   11MOL   O226 5846   6.714   4.928   2.905 -0.2481 -0.0442  0.3863
   11MOL   C227 5847   6.783   4.887   3.024 -0.2032 -0.8905  0.0525
   11MOL   C228 5848   6.926   4.863   2.984  0.3678  0.1503 -1.0517
   11MOL   O229 5849   6.918   4.751   2.897 -0.1553 -0.2933 -0.2091
   11MOL   C230 5850   7.006   4.985   2.918 -0.1621  0.3361  0.1562
   11MOL   C231 5851   7.145   4.947   2.847 -0.0739  0.0088 -0.3059
   11MOL   C232 5852   7.214   5.061   2.775 -0.2038 -0.0738  0.1039
   11MOL   O233 5853   7.337   5.005   2.724  0.2033 -0.2428  0.0077
   11MOL   C234 5854   7.239   5.182   2.867 -0.0176  0.5113  0.0339
   11MOL   C235 5855   7.321   5.305   2.804 -0.4246 -0.7743  0.7420
   11MOL   C236 5856   7.106   5.220   2.932 -0.0978  0.3106  0.7189
   11MOL   C237 5857   7.043   5.101   3.015 -0.7171 -0.0752  0.0752
   11MOL   H238 5858   6.756   4.792   3.069 -1.0862  0.0711  1.6296
   11MOL   H239 5859   6.768   4.960   3.104 -1.8838  1.6372 -2.4933
   11MOL   H240 5860   6.988   4.835   3.069 -0.6848  1.5949  0.2197
   11MOL   H241 5861   6.867   4.793   2.829  1.4328  2.3431  0.1699
   11MOL   H242 5862   6.932   5.025   2.849  0.9199  2.4354  0.1605
   11MOL   H243 5863   7.219   4.902   2.913  0.0520  1.3978  0.5416
   11MOL   H244 5864   7.118   4.872   2.773  0.4245  2.2739 -2.8632
   11MOL   H245 5865   7.152   5.100   2.694  0.7469 -0.5630 -0.8715
   11MOL   H246 5866   7.316   4.972   2.638 -0.0762  0.9890 -0.4146
   11MOL   H247 5867   7.304   5.144   2.946 -0.4933 -0.2918  0.0332
   11MOL   H248 5868   7.410   5.272   2.751 -0.7691 -1.8407  0.8062
   11MOL   H249 5869   7.260   5.341   2.721  0.0025 -2.6402 -0.4059
   11MOL   H250 5870   7.028   5.258   2.866 -0.8335  0.5113  1.6918
   11MOL   H251 5871   7.125   5.300   3.003  2.3698  0.4385 -0.0437
   11MOL   H252 5872   6.964   5.133   3.082  1.9073  2.8722  1.9102
   11MOL   H253 5873   7.115   5.060   3.085 -3.2398 -3.7557  0.5908
   11MOL   O254 5874   7.365   5.399   2.895 -0.1907  0.2095 -0.2252
   11MOL   C255 5875   7.496   5.377   2.950  0.4531  0.2103  0.3766
   11MOL   C256 5876   7.529   5.500   3.036 -0.1043 -0.4442  0.4102
   11MOL   O257 5877   7.557   5.604   2.943 -0.8058  0.1135  0.3708
   11MOL   C258 5878   7.420   5.524   3.145  0.6970 -0.7359 -0.3897
   11MOL   C259 5879   7.445   5.669   3.202 -0.0207 -0.3652 -0.5608
   11MOL   C260 5880   7.354   5.717   3.314 -0.8423  0.1841 -0.6801
   11MOL   O261 5881   7.383   5.851   3.348 -0.0127  0.1258  0.9796
   11MOL   C262 5882   7.363   5.618   3.435  0.2683  0.7740 -0.3229
   11MOL   C263 5883   7.252   5.647   3.535 -0.0121 -0.2051 -1.0234
   11MOL   C264 5884   7.334   5.470   3.376 -0.4012 -0.9192  0.5141
   11MOL   C265 5885   7.427   5.423   3.259  0.4080  0.3400 -0.1217
   11MOL   H266 5886   7.575   5.359   2.878 -1.0242 -1.9216 -0.7625
   11MOL   H267 5887   7.482   5.292   3.016  1.2500 -0.4951 -0.3577
   11MOL   H268 5888   7.623   5.478   3.087 -0.9793 -3.5381  0.7927
   11MOL   H269 5889   7.488   5.600   2.878  0.2484  2.5042 -0.9487
   11MOL   H270 5890   7.321   5.520   3.099  1.0648 -0.9418 -1.1705
   11MOL   H271 5891   7.543   5.668   3.249 -0.4235  0.8852  0.2977
   11MOL   H272 5892   7.449   5.748   3.127  3.0898 -1.8133 -2.0228
   11MOL   H273 5893   7.255   5.721   3.267 -0.9398 -0.4298 -0.5226
   11MOL   H274 5894   7.468   5.851   3.389  0.7488  1.2122 -0.5504
   11MOL   H275 5895   7.457   5.605   3.488 -0.2536 -0.0198  0.4291
   11MOL   H276 5896   7.252   5.578   3.619  1.8601  0.6704 -0.2910
   11MOL   H277 5897   7.269   5.746   3.578 -0.5905 -0.6546  0.2509
   11MOL   H278 5898   7.231   5.449   3.349 -0.4168 -1.0411  0.6639
   11MOL   H279 5899   7.336   5.401   3.460  1.9145 -2.6778 -0.9099
   11MOL   H280 5900   7.392   5.331   3.213  1.2528  0.7198 -1.5654
   11MOL   H281 5901   7.527   5.418   3.301  0.2595 -3.3336 -0.0431
   11MOL   O282 5902   7.134   5.652   3.469  0.4187  0.0725  0.6063
   11MOL   C283 5903   7.025   5.698   3.543 -0.1799  0.0273  0.1059
   11MOL   C284 5904   7.021   5.851   3.543 -0.6842 -0.3442  0.3408
   11MOL   O285 5905   6.951   5.906   3.427 -0.1814  0.1442  0.3590
   11MOL   C286 5906   6.949   5.904   3.671  0.4563  0.9238 -0.8325
   11MOL   C287 5907   6.800   5.875   3.676 -0.1653  0.4450  0.3081
   11MOL   C288 5908   6.731   5.916   3.809  0.0680 -0.7199 -0.1993
   11MOL   O289 5909   6.589   5.900   3.795 -0.0092 -0.0349  0.1161
   11MOL   C290 5910   6.759   6.063   3.839  0.1910  0.4335  0.3324
   11MOL   C291 5911   6.718   6.087   3.985  0.6055 -0.6160  0.1615
   11MOL   C292 5912   6.912   6.095   3.818  0.0048  0.3633  0.0974
   11MOL   C293 5913   6.973   6.050   3.685  0.4945  0.3735  0.0287
   11MOL   H294 5914   7.043   5.659   3.643 -1.2474 -2.8339 -0.7635
   11MOL   H295 5915   6.940   5.652   3.493 -0.5472 -0.6238  1.2969
   11MOL   H296 5916   7.120   5.897   3.543 -0.7842 -0.1157  1.3548
   11MOL   H297 5917   7.011   5.915   3.355 -0.3929 -0.6669  0.0808
   11MOL   H298 5918   6.978   5.848   3.760 -2.1397  1.0409  0.1145
   11MOL   H299 5919   6.750   5.922   3.592 -1.3279 -1.2028  0.0408
   11MOL   H300 5920   6.781   5.769   3.656  0.2374  0.6981 -1.4492
   11MOL   H301 5921   6.776   5.853   3.885  1.5348 -2.0246 -2.0969
   11MOL   H302 5922   6.570   5.926   3.706  0.2979 -2.6570 -0.7497
   11MOL   H303 5923   6.693   6.123   3.777 -1.7639 -1.6605  0.3063
   11MOL   H304 5924   6.613   6.064   4.004 -0.2156  1.2596 -1.8495
   11MOL   H305 5925   6.775   6.027   4.055  1.2422 -0.8227 -0.5363
   11MOL   H306 5926   6.975   6.035   3.884 -1.4106 -0.2484  0.9244
   11MOL   H307 5927   6.929   6.200   3.838 -3.3094  0.9482  0.0754
   11MOL   H308 5928   7.079   6.071   3.683  0.2127  1.7927 -0.3409
   11MOL   H309 5929   6.928   6.111   3.607  0.6254 -0.3043 -0.5898
   11MOL   O310 5930   6.753   6.223   4.014 -0.1310  0.2557 -0.1637
   11MOL   C311 5931   6.673   6.313   3.951  0.3380 -0.2487  0.3574
   11MOL   C312 5932   6.670   6.431   4.051  0.1869 -0.2867 -0.5310
   11MOL   O313 5933   6.798   6.498   4.053 -0.2759  0.1910 -0.4538
   11MOL   C314 5934   6.552   6.533   4.007  0.0775  0.0689 -0.0276
   11MOL   C315 5935   6.580   6.587   3.871  0.6286  0.3018 -0.0145
   11MOL   C316 5936   6.475   6.682   3.817 -0.1195  0.0357  0.9073
   11MOL   O317 5937   6.509   6.725   3.683  0.2256  0.4834 -0.4855
   11MOL   C318 5938   6.458   6.803   3.910  0.6403  0.4539  0.6080
   11MOL   C319 5939   6.332   6.879   3.878 -0.1106  0.4164 -0.3660
   11MOL   C320 5940   6.432   6.744   4.050 -0.5415 -0.1981 -0.2652
   11MOL   C321 5941   6.540   6.642   4.102 -0.3670 -0.3438 -0.3547
   11MOL   H322 5942   6.573   6.271   3.945 -0.6340  2.2309 -1.3397
   11MOL   H323 5943   6.698   6.335   3.847 -0.4485 -1.1862 -0.0298
   11MOL   H324 5944   6.645   6.404   4.153 -0.7131 -0.4709 -0.7923
   11MOL   H325 5945   6.856   6.423   4.053  0.5847  0.8234  1.3272
   11MOL   H326 5946   6.453   6.487   4.003  0.7241 -1.3019 -0.9643
   11MOL   H327 5947   6.677   6.637   3.879  0.6755 -0.2366  3.8636
   11MOL   H328 5948   6.585   6.500   3.807 -0.9509  0.2460 -0.0657
   11MOL   H329 5949   6.385   6.623   3.802  0.0900  0.1723 -1.0176
   11MOL   H330 5950   6.520   6.647   3.631 -0.3621  1.9005 -2.8087
   11MOL   H331 5951   6.539   6.876   3.908  1.0368  0.0000 -1.6942
   11MOL   H332 5952   6.332   6.897   3.770  1.3874 -0.7858 -0.5786
   11MOL   H333 5953   6.251   6.807   3.891 -0.7926  1.4485  1.3169
   11MOL   H334 5954   6.340   6.685   4.049 -0.6997  0.0432 -2.0523
   11MOL   H335 5955   6.404   6.821   4.121  0.3465 -0.4504  0.3717
   11MOL   H336 5956   6.518   6.612   4.204  1.0516  2.9505  0.9672
   11MOL   H337 5957   6.635   6.695   4.104 -1.2454  1.2515  0.0969
   11MOL   O338 5958   6.318   6.990   3.958  1.1325 -0.4185 -0.0028
   11MOL   C339 5959   6.232   7.093   3.900  0.0531 -0.3098 -0.0784
   11MOL   C340 5960   6.236   7.209   4.001 -0.1110  0.5491  0.3241
   11MOL   O341 5961   6.138   7.183   4.101 -0.3253  0.1162  0.0976
   11MOL   C342 5962   6.385   7.229   4.060  0.0850  0.1070  0.1666
   11MOL   C343 5963   6.385   7.356   4.157  0.2062 -0.0872 -0.6024
   11MOL   C344 5964   6.524   7.395   4.195 -0.3030 -0.5631  0.5933
   11MOL   O345 5965   6.528   7.519   4.264 -0.0621  0.1649  0.1803
   11MOL   C346 5966   6.615   7.418   4.069  0.3042  0.6993 -0.3947
   11MOL   C347 5967   6.764   7.461   4.101 -0.2328  0.0945  0.6874
   11MOL   C348 5968   6.624   7.293   3.987 -0.1540  0.7152  0.6179
   11MOL   C349 5969   6.481   7.258   3.946 -0.2219  0.5141  0.5849
   11MOL   H350 5970   6.127   7.062   3.898 -0.7984  1.7428  4.5304
   11MOL   H351 5971   6.270   7.126   3.804 -2.5719 -0.6962 -1.3072
   11MOL   H352 5972   6.215   7.303   3.949 -0.1055  1.1412  1.3771
   11MOL   H353 5973   6.176   7.106   4.139  2.0909  0.2733 -1.8658
   11MOL   H354 5974   6.416   7.140   4.114 -0.8660 -0.0533  0.4630
   11MOL   H355 5975   6.356   7.445   4.101 -0.9993  0.4058  0.7922
   11MOL   H356 5976   6.316   7.349   4.241  1.3999  1.1465  0.5101
   11MOL   H357 5977   6.571   7.318   4.255  2.7963  1.5435  0.9984
   11MOL   H358 5978   6.489   7.583   4.207  0.8267  0.9624  0.4436
   11MOL   H359 5979   6.582   7.505   4.013 -0.0803 -0.2513 -1.6734
   11MOL   H360 5980   6.773   7.556   4.153  2.9895  0.7913 -1.0224
   11MOL   H361 5981   6.814   7.378   4.152  0.1025 -1.6644 -2.3969
   11MOL   H362 5982   6.666   7.214   4.049 -1.1762  0.2946  0.7751
   11MOL   H363 5983   6.697   7.304   3.907  0.1638  0.7085  0.9028
   11MOL   H364 5984   6.488   7.174   3.877  1.3704 -0.0407  1.3894
   11MOL   H365 5985   6.451   7.341   3.882  2.1506  0.5754 -0.5182
   11MOL   O366 5986   6.835   7.494   3.978  0.0691  0.1721  0.7226
   11MOL   C367 5987   6.960   7.555   3.998 -0.3196  0.1252  0.0054
   11MOL   C368 5988   7.036   7.595   3.865 -0.3245  0.1516  0.2515
   11MOL   O369 5989   7.154   0.048   3.885 -0.7990 -0.1808 -0.6673
   11MOL   C370 5990   7.072   7.479   3.784  0.0880  0.0818 -1.2128
   11MOL   C371 5991   7.189   7.402   3.839 -0.1033  0.1686 -0.4241
   11MOL   C372 5992   7.229   7.284   3.754 -0.2660 -0.2908  0.2940
   11MOL   O373 5993   7.337   7.218   3.820 -0.7978 -0.3056  0.4749
   11MOL   C374 5994   7.276   7.323   3.614 -0.0881 -0.2232 -0.1444
   11MOL   C375 5995   7.346   7.218   3.531  0.0416  0.5915 -0.2271
   11MOL   C376 5996   7.161   7.399   3.548  0.3175  0.1031 -0.7468
   11MOL   C377 5997   7.103   7.511   3.636 -0.2965 -0.2406  0.2180
   11MOL   H378 5998   7.004   7.479   4.062 -1.5039  0.0684  0.7838
   11MOL   H379 5999   6.948   0.018   4.056 -0.4601  1.0362 -1.4342
   11MOL   H380 6000   6.961   0.024   3.811 -0.7576 -2.6002 -2.2320
   11MOL   H381 6001   7.209   0.052   3.808  0.4194 -1.5358  0.1006
   11MOL   H382 6002   6.991   7.406   3.784  0.8027 -0.7549  0.7714
   11MOL   H383 6003   7.273   7.471   3.837  1.2961 -1.4801  0.0681
   11MOL   H384 6004   7.163   7.379   3.943  0.9674 -1.6254 -0.5408
   11MOL   H385 6005   7.143   7.217   3.747 -2.4234  2.3073  1.1472
   11MOL   H386 6006   7.402   7.284   3.839  0.0051 -0.0248 -2.8937
   11MOL   H387 6007   7.352   7.399   3.633  1.7624 -1.7016 -1.4802
   11MOL   H388 6008   7.366   7.261   3.433 -0.0874 -1.3627 -1.1269
   11MOL   H389 6009   7.435   7.186   3.584 -0.9462 -0.1810  0.9797
   11MOL   H390 6010   7.083   7.333   3.509 -0.6554  1.2266 -0.7099
   11MOL   H391 6011   7.191   7.434   3.449 -0.6359 -0.0043 -1.0784
   11MOL   H392 6012   7.019   7.558   3.584 -0.2632  3.0749  2.9572
   11MOL   H393 6013   7.179   7.589   3.629 -0.6037 -0.0029 -0.5251
   11MOL   O394 6014   7.250   7.109   3.508 -0.0427  0.0199  0.0652
   11MOL   C395 6015   7.257   7.003   3.608 -0.3774  0.2352 -0.2468
   11MOL   C396 6016   7.389   6.910   3.602 -0.1829 -0.4219 -0.0712
   11MOL   O397 6017   7.471   6.959   3.711  0.1932 -0.3623 -0.4437
   11MOL   C398 6018   7.357   6.757   3.614 -0.7323  0.7927 -0.6184
   11MOL   C399 6019   7.478   6.662   3.657 -0.2793  0.6132  0.1099
   11MOL   C400 6020   7.443   6.514   3.664 -0.3444  0.3160  0.0649
   11MOL   O401 6021   7.560   6.450   3.678  0.1211 -0.8063 -0.1476
   11MOL   C402 6022   7.360   6.474   3.538  0.1734  0.3072 -0.4807
   11MOL   C403 6023   7.310   6.330   3.543  0.1434 -0.2104 -1.0924
   11MOL   C404 6024   7.242   6.567   3.513 -0.2900 -0.5309  0.6945
   11MOL   C405 6025   7.295   6.707   3.486 -0.1317  0.1778  0.3260
   11MOL   H406 6026   7.170   6.943   3.579 -0.1527 -0.2939  0.1712
   11MOL   H407 6027   7.222   7.024   3.709  0.1906 -1.7713  0.3897
   11MOL   H408 6028   7.449   6.927   3.513  0.8020 -0.1889  0.6264
   11MOL   H409 6029   7.425   7.036   3.740 -0.4024 -0.6608 -0.5647
   11MOL   H410 6030   7.286   6.748   3.696 -0.2171  1.2643 -0.1224
   11MOL   H411 6031   7.558   6.688   3.588 -0.9603  0.5258 -0.7184
   11MOL   H412 6032   7.511   6.683   3.759 -0.2733 -0.2298  0.2847
   11MOL   H413 6033   7.377   6.496   3.749  0.3041  0.0905  0.5245
   11MOL   H414 6034   7.579   6.457   3.771  0.3131 -0.0010 -0.2428
   11MOL   H415 6035   7.418   6.483   3.445 -0.3458 -0.4419 -0.8739
   11MOL   H416 6036   7.379   6.254   3.581  0.5483  0.6566 -0.0640
   11MOL   H417 6037   7.210   6.324   3.587  0.7188 -1.7564  0.0480
   11MOL   H418 6038   7.181   6.562   3.603 -0.1490 -0.2687  0.8056
   11MOL   H419 6039   7.185   6.515   3.437  0.0116  1.0615 -0.6453
   11MOL   H420 6040   7.204   6.764   3.465 -1.4752 -1.8790  0.4101
   11MOL   H421 6041   7.371   6.724   3.409 -0.5571  2.8066  0.4374
   11MOL   O422 6042   7.296   6.283   3.408 -0.0299 -0.0795  1.0540
   11MOL   C423 6043   7.216   6.168   3.406  0.4379 -0.5672 -0.2924
   11MOL   C424 6044   7.198   6.123   3.259  0.6260  0.8092 -0.7507
   11MOL   O425 6045   7.156   5.987   3.277 -0.3885  0.3610  0.1819
   11MOL   C426 6046   7.090   6.189   3.174 -0.5814  0.4302  0.0250
   11MOL   C427 6047   7.116   6.336   3.160  0.5274 -0.0020 -0.0545
   11MOL   C428 6048   7.023   6.405   3.055 -0.1355  0.0183 -0.4280
   11MOL   O429 6049   7.066   6.542   3.052 -0.2135  0.5484  0.2153
   11MOL   C430 6050   6.886   6.396   3.114  0.0740  0.2231 -0.1681
   11MOL   C431 6051   6.796   6.479   3.020  0.2994 -0.3650  0.0251
   11MOL   C432 6052   6.850   6.250   3.132  0.3287  0.3933  0.8654
   11MOL   C433 6053   6.942   6.159   3.220  0.1075  0.3610 -0.1788
   11MOL   H434 6054   7.115   6.182   3.444  0.2916 -1.7335 -0.2332
   11MOL   H435 6055   7.259   6.094   3.474 -1.3916 -1.4862 -0.0850
   11MOL   H436 6056   7.290   6.122   3.202  1.0669  0.9811 -0.0548
   11MOL   H437 6057   7.223   5.942   3.325 -0.8942 -0.2939  0.2750
   11MOL   H438 6058   7.083   6.157   3.070 -1.0955 -2.5426  0.9327
   11MOL   H439 6059   7.089   6.383   3.254  1.2743  0.9803 -0.3162
   11MOL   H440 6060   7.221   6.355   3.135  0.5277  3.7148  2.3603
   11MOL   H441 6061   7.028   6.364   2.954  1.9333 -0.6209 -0.0873
   11MOL   H442 6062   7.008   6.588   3.110 -1.1601  0.3270 -0.5606
   11MOL   H443 6063   6.875   6.435   3.215  0.7160  1.4663 -0.5716
   11MOL   H444 6064   6.823   6.468   2.915 -1.2448 -2.1207 -0.2049
   11MOL   H445 6065   6.695   6.441   3.036  0.2615  0.7662  2.7530
   11MOL   H446 6066   6.858   6.208   3.032 -3.0388 -0.3179  0.8336
   11MOL   H447 6067   6.746   6.238   3.164  0.1895  0.9236  0.6141
   11MOL   H448 6068   6.916   6.055   3.204 -0.2818  0.4607 -0.1875
   11MOL   H449 6069   6.932   6.182   3.326  1.0639  1.8922 -0.3978
   11MOL   O450 6070   6.800   6.611   3.060 -0.2891 -0.4439 -0.0738
   11MOL   C451 6071   6.730   6.701   2.979 -0.1697  0.2370  0.0619
   11MOL   C452 6072   6.780   6.841   3.000 -0.2603 -1.4296  0.0798
   11MOL   O453 6073   6.865   6.880   2.889 -0.7133  0.0593 -0.2254
   11MOL   C454 6074   6.662   6.948   3.018  0.1685  0.1992  0.3399
   11MOL   C455 6075   6.580   6.959   2.887  0.1795  0.1781  0.1864
   11MOL   C456 6076   6.464   7.065   2.893 -0.9327  0.6078  0.0900
   11MOL   O457 6077   6.419   7.086   2.759  0.5249  0.5443 -0.0743
   11MOL   C458 6078   6.506   7.201   2.943 -0.2484 -0.1389  0.7256
   11MOL   C459 6079   6.374   7.286   2.966  0.3245  0.5065 -0.4467
   11MOL   C460 6080   6.579   7.178   3.073 -0.2377 -0.2847  0.0841
   11MOL   C461 6081   6.700   7.087   3.062  0.4364  0.2663  0.3372
   11MOL   H462 6082   6.623   6.695   3.002  0.1985 -0.9664  1.5132
   11MOL   H463 6083   6.746   6.680   2.874  0.0554 -0.5242  0.2419
   11MOL   H464 6084   6.838   6.846   3.092 -0.6438  2.0244  0.1705
   11MOL   H465 6085   6.845   6.825   2.815  0.3518  0.8287 -1.0948
   11MOL   H466 6086   6.604   6.901   3.097 -0.6640 -0.2114 -0.5101
   11MOL   H467 6087   6.647   6.982   2.805 -0.0822  1.8910  0.4237
   11MOL   H468 6088   6.542   6.860   2.863 -0.8984  0.3823  0.9724
   11MOL   H469 6089   6.390   7.021   2.959  1.8198 -1.0065  2.2205
   11MOL   H470 6090   6.487   7.140   2.723  3.7512 -1.2104  3.1624
   11MOL   H471 6091   6.570   7.253   2.871 -1.9238  0.3941 -0.4023
   11MOL   H472 6092   6.283   7.234   2.935 -0.3645  1.8351 -0.7180
   11MOL   H473 6093   6.352   7.299   3.072  1.7787  2.9188 -0.4015
   11MOL   H474 6094   6.503   7.129   3.133 -3.1019  1.1582 -2.2236
   11MOL   H475 6095   6.595   7.271   3.127  1.1880 -1.6185  2.0364
   11MOL   H476 6096   6.742   7.079   3.162 -0.6413  1.0606  0.8706
   11MOL   H477 6097   6.770   7.136   2.995 -1.5401  0.2598 -1.7885
   11MOL   O478 6098   6.385   7.419   2.907  0.4411  0.1468 -0.5120
   11MOL   C479 6099   6.317   7.422   2.780 -0.2611  0.0957  0.5265
   11MOL   C480 6100   6.380   7.536   2.705  0.4083 -0.6627 -0.0504
   11MOL   O481 6101   6.378   7.523   2.562  0.1784 -0.7820 -0.2098
   11MOL   C482 6102   6.328   0.047   2.745 -1.6283  0.5652  0.5482
   11MOL   C483 6103   6.182   0.074   2.700  0.2379 -0.0610  0.0646
   11MOL   C484 6104   6.143   0.224   2.733 -0.2824  0.3548 -0.2491
   11MOL   O485 6105   6.007   0.248   2.693  0.5266  0.3942  0.5108
   11MOL   C486 6106   6.245   0.329   2.676 -0.2782 -0.2769  0.0779
   11MOL   C487 6107   6.202   0.476   2.712  0.5769 -0.1671 -0.2561
   11MOL   C488 6108   6.387   0.287   2.733  0.5031  0.6638 -0.2830
   11MOL   C489 6109   6.426   0.150   2.686 -0.3952  0.8601 -0.3506
   11MOL   H490 6110   6.209   7.427   2.785 -0.2138  0.6480  0.9956
   11MOL   H491 6111   6.334   7.328   2.728 -0.1187  0.7113 -0.5502
   11MOL   H492 6112   6.485   7.524   2.733  0.0561 -2.0278  0.7689
   11MOL   H493 6113   6.299   7.476   2.543  1.6526 -3.7738  0.7720
   11MOL   H494 6114   6.338   0.059   2.853 -0.9969 -1.6215  0.7580
   11MOL   H495 6115   6.174   0.059   2.593 -1.1528  0.9923  0.0122
   11MOL   H496 6116   6.097   0.015   2.734  0.3581 -1.4037 -1.8755
   11MOL   H497 6117   6.142   0.234   2.842  0.6161  0.1570 -0.2211
   11MOL   H498 6118   6.006   0.226   2.601  0.0332  1.5808  0.2225
   11MOL   H499 6119   6.250   0.329   2.568  0.1625  2.1762  0.0786
   11MOL   H500 6120   6.109   0.511   2.669  1.0239 -1.5304 -2.4345
   11MOL   H501 6121   6.204   0.489   2.820  0.1575  0.4249 -0.3231
   11MOL   H502 6122   6.384   0.286   2.842  0.8139 -1.1616 -0.2798
   11MOL   H503 6123   6.456   0.371   2.718  0.8725  0.2599 -0.8729
   11MOL   H504 6124   6.527   0.115   2.707 -1.2501 -0.1953  2.2573
   11MOL   H505 6125   6.408   0.145   2.579 -0.5641 -0.7515 -0.2637
   11MOL   O506 6126   6.294   0.572   2.668 -0.2387 -0.3575  0.3725
   11MOL   C507 6127   6.265   0.707   2.690  0.1121  0.1615 -0.2098
   11MOL   C508 6128   6.383   0.778   2.746  0.0128  0.1351 -0.0044
   11MOL   O509 6129   6.345   0.914   2.779  0.4384  0.4021  0.3887
   11MOL   C510 6130   6.444   0.720   2.879 -0.3330 -0.7339  0.6678
   11MOL   C511 6131   6.344   0.707   2.996 -0.5776 -0.4642 -0.3130
   11MOL   C512 6132   6.412   0.649   3.125  0.0850 -0.7198 -0.2872
   11MOL   O513 6133   6.314   0.649   3.223  0.3513  0.5222  0.3888
   11MOL   C514 6134   6.538   0.726   3.166  0.3360  0.2519 -0.0051
   11MOL   C515 6135   6.606   0.655   3.288 -0.2585  0.1728 -0.9003
   11MOL   C516 6136   6.641   0.729   3.051 -0.8704 -0.2230 -0.3471
   11MOL   C517 6137   6.572   0.795   2.929 -0.4058 -0.1183 -0.3431
   11MOL   H518 6138   6.182   0.728   2.757  1.5788  1.7462  1.1342
   11MOL   H519 6139   6.246   0.761   2.597  2.3780  0.3453 -0.5829
   11MOL   H520 6140   6.469   0.785   2.679 -0.4273  0.9812 -0.4901
   11MOL   H521 6141   6.325   0.946   2.693  0.0139 -2.5303 -0.6547
   11MOL   H522 6142   6.474   0.616   2.862 -0.4299 -0.1566 -3.5219
   11MOL   H523 6143   6.306   0.804   3.028  1.6060  0.0930  0.7143
   11MOL   H524 6144   6.256   0.651   2.965 -0.7154 -0.5691  0.2694
   11MOL   H525 6145   6.439   0.548   3.096 -1.7583 -1.2604 -0.1866
   11MOL   H526 6146   6.273   0.734   3.233  1.1727  1.1200 -1.1193
   11MOL   H527 6147   6.525   0.830   3.198  1.3419 -0.0184  1.3078
   11MOL   H528 6148   6.535   0.633   3.368 -1.3531  1.4087 -1.5037
   11MOL   H529 6149   6.649   0.562   3.251  3.7198  0.8556  1.6449
   11MOL   H530 6150   6.669   0.628   3.023 -0.5312 -0.3806  0.5545
   11MOL   H531 6151   6.720   0.790   3.094 -0.8849 -1.6443  1.8087
   11MOL   H532 6152   6.644   0.803   2.847  0.8250  4.0974  1.0458
   11MOL   H533 6153   6.546   0.894   2.963  0.1268 -0.7868  2.0896
   11MOL   O534 6154   6.711   0.730   3.342  0.1594  0.1547 -0.5777
   11MOL   C535 6155   6.757   0.681   3.464 -0.0681 -1.2538  0.9720
   11MOL   C536 6156   6.837   0.802   3.523  0.1297  0.1053  0.1272
   11MOL   O537 6157   6.903   0.772   3.645  0.1897  0.0286  0.2200
   11MOL   C538 6158   6.941   0.873   3.431  0.7257 -0.1031 -0.9076
   11MOL   C539 6159   7.063   0.781   3.404  0.1294  0.7870 -0.5558
   11MOL   C540 6160   7.159   0.850   3.308 -0.0414  0.1764  0.4471
   11MOL   O541 6161   7.265   0.760   3.293 -0.1163  0.2413 -0.7861
   11MOL   C542 6162   7.207   0.984   3.368  0.0865 -0.2966 -0.5912
   11MOL   C543 6163   7.310   1.061   3.280 -0.0553 -0.1352  0.2686
   11MOL   C544 6164   7.088   1.071   3.399  0.0368 -0.8165  0.5524
   11MOL   C545 6165   6.984   1.005   3.493  0.8275  0.3327 -0.4694
   11MOL   H546 6166   6.820   0.593   3.452  0.9350 -0.5086  0.6030
   11MOL   H547 6167   6.671   0.658   3.526 -1.5161 -0.6805 -0.7709
   11MOL   H548 6168   6.760   0.874   3.552  1.4656  1.7264 -0.2936
   11MOL   H549 6169   6.931   0.682   3.636  1.4824  0.5789 -1.5236
   11MOL   H550 6170   6.894   0.895   3.335  2.4128 -0.5367 -1.8689
   11MOL   H551 6171   7.115   0.756   3.496 -0.8878  2.8483  0.5993
   11MOL   H552 6172   7.024   0.686   3.369 -3.3403  1.5182  1.1325
   11MOL   H553 6173   7.112   0.857   3.210 -0.8121  0.5576  0.8442
   11MOL   H554 6174   7.229   0.677   3.265 -0.1547  0.0978 -0.3192
   11MOL   H555 6175   7.256   0.960   3.462 -0.3971  2.4572  0.3969
   11MOL   H556 6176   7.344   1.152   3.329  0.2653 -0.5359  0.7963
   11MOL   H557 6177   7.393   0.996   3.251 -0.9307 -0.7396 -0.9472
   11MOL   H558 6178   7.025   1.068   3.311 -2.0744 -1.9534  2.0586
   11MOL   H559 6179   7.104   1.178   3.411  2.0884 -0.8746 -1.3775
   11MOL   H560 6180   6.906   1.077   3.518 -0.3415 -1.2598  0.5928
   11MOL   H561 6181   7.034   0.983   3.588  1.8736  0.8346 -0.8943
   11MOL   H562 6182   7.264   1.083   3.183 -0.5150 -0.7989  0.3312
   12MOL     O1 6183   0.826   7.284   3.096  0.3092 -0.1043  0.8915
   12MOL     C2 6184   0.707   7.214   3.076  0.1344 -0.2176 -0.7914
   12MOL     C3 6185   0.741   7.058   3.069 -0.0536  0.6127 -0.3700
   12MOL     O4 6186   0.848   7.047   3.166  1.0886 -0.0646 -0.3781
   12MOL     C5 6187   0.625   6.977   3.120 -0.0643 -0.2233 -1.1047
   12MOL     C6 6188   0.644   6.825   3.141  1.0385  0.0271  0.5182
   12MOL     C7 6189   0.515   6.750   3.176 -0.6495  0.1935  0.2843
   12MOL     O8 6190   0.527   6.617   3.208 -0.2309  0.0338 -0.4996
   12MOL     C9 6191   0.404   6.776   3.066 -0.6730 -0.7742 -0.6360
   12MOL    C10 6192   0.274   6.706   3.113 -0.0988  0.1390 -0.3981
   12MOL    C11 6193   0.382   6.924   3.049 -0.3345  0.0749  0.6356
   12MOL    C12 6194   0.513   6.993   3.015 -0.1240 -0.1804 -0.5245
   12MOL    H13 6195   0.650   7.248   2.990  0.7891 -1.2510 -1.6321
   12MOL    H14 6196   0.650   7.234   3.168  2.3693  0.6674  0.4295
   12MOL    H15 6197   0.776   7.025   2.971  1.9941  1.1320  0.1672
   12MOL    H16 6198   0.892   6.965   3.152  1.7960  0.2488 -0.0257
   12MOL    H17 6199   0.582   7.024   3.208  1.4057 -0.4034 -0.2696
   12MOL    H18 6200   0.687   6.789   3.048  2.0884  1.6882  0.3453
   12MOL    H19 6201   0.723   6.803   3.214  2.0782  1.9596 -0.0013
   12MOL    H20 6202   0.486   6.788   3.274 -0.8313 -1.4484  0.8846
   12MOL    H21 6203   0.553   6.573   3.129  0.4769 -1.0690  0.3257
   12MOL    H22 6204   0.449   6.737   2.975  0.3375 -1.0981 -0.0074
   12MOL    H23 6205   0.277   6.597   3.117 -0.5526  0.0564 -2.0319
   12MOL    H24 6206   0.262   6.741   3.216 -0.1150  1.8699 -0.9750
   12MOL    H25 6207   0.334   6.954   3.143 -1.8693 -0.8983  0.1791
   12MOL    H26 6208   0.301   6.940   2.978  1.2727  1.0845 -1.0039
   12MOL    H27 6209   0.492   7.099   3.025  2.4448  0.2130  1.4473
   12MOL    H28 6210   0.546   6.969   2.914 -0.4181 -0.0359 -0.6563
   12MOL    H29 6211   0.883   7.225   3.142  0.2647 -1.6793 -0.9890
   12MOL    O30 6212   0.170   6.753   3.034 -0.4347  0.1309  0.1899
   12MOL    C31 6213   0.046   6.737   3.097  0.2963 -0.5634 -0.8132
   12MOL    C32 6214   7.571   6.784   2.992  0.5927  0.0908 -0.5060
   12MOL    O33 6215   7.570   6.676   2.903  0.2049  0.2807 -0.3457
   12MOL    C34 6216   7.434   6.807   3.044 -0.3994 -0.1086 -1.0474
   12MOL    C35 6217   7.332   6.852   2.933  0.3451  0.3646  0.6962
   12MOL    C36 6218   7.193   6.905   2.977  0.2016  0.2814  0.9385
   12MOL    O37 6219   7.128   6.937   2.854 -0.5332  0.1307  0.0670
   12MOL    C38 6220   7.201   7.010   3.088 -0.0289 -0.0569 -0.1694
   12MOL    C39 6221   7.062   7.048   3.140 -0.5342  0.4322 -0.3367
   12MOL    C40 6222   7.293   6.958   3.204  0.2083 -0.6311  1.0601
   12MOL    C41 6223   7.434   6.919   3.145 -0.0439  0.1813 -0.3033
   12MOL    H42 6224   0.055   6.807   3.180  0.7027 -1.5128 -0.0531
   12MOL    H43 6225   0.025   6.637   3.134  0.5142 -0.3778 -0.1868
   12MOL    H44 6226   7.603   6.878   2.946  0.3697  1.3000  1.6947
   12MOL    H45 6227   0.028   6.641   2.904 -0.9439 -2.7518  1.8833
   12MOL    H46 6228   7.392   6.722   3.097 -1.7793  0.3965 -1.2930
   12MOL    H47 6229   7.377   6.935   2.878 -0.4912  0.4034  0.0563
   12MOL    H48 6230   7.310   6.784   2.851  1.0070  0.0252  0.7996
   12MOL    H49 6231   7.128   6.824   3.011 -1.8799  1.0847 -0.9916
   12MOL    H50 6232   7.037   6.910   2.859 -0.0353 -1.2684  1.5671
   12MOL    H51 6233   7.261   7.089   3.043  1.0426 -1.8755 -2.0719
   12MOL    H52 6234   6.993   7.059   3.056  1.8223 -0.4213 -2.4617
   12MOL    H53 6235   7.031   6.957   3.191  0.6703 -0.3110 -0.9025
   12MOL    H54 6236   7.251   6.867   3.246 -0.0025 -1.0021  0.0512
   12MOL    H55 6237   7.309   7.039   3.276 -1.1498  0.1556  0.5035
   12MOL    H56 6238   7.480   6.888   3.239 -0.2769 -1.5126 -0.7323
   12MOL    H57 6239   7.485   7.010   3.114  0.2880  0.8212  1.9935
   12MOL    O58 6240   7.041   7.159   3.229  0.4206  0.3819 -0.2725
   12MOL    C59 6241   7.067   7.289   3.169  0.3831 -0.0142 -0.0454
   12MOL    C60 6242   6.931   7.357   3.189 -0.0626  0.0371 -0.6075
   12MOL    O61 6243   6.921   7.370   3.322  0.3450  0.4391 -0.1119
   12MOL    C62 6244   6.913   7.498   3.127 -0.7334 -0.1365  0.1973
   12MOL    C63 6245   7.008   7.608   3.177 -0.3263  1.3018 -0.2521
   12MOL    C64 6246   6.996   0.116   3.104  0.7521  0.3081 -0.0948
   12MOL    O65 6247   7.065   0.215   3.179  0.8776 -0.5866 -0.1885
   12MOL    C66 6248   6.847   0.159   3.075  0.1110 -0.0725  0.3399
   12MOL    C67 6249   6.836   0.276   2.971 -0.0189  0.1893  0.2217
   12MOL    C68 6250   6.757   0.042   3.027 -0.2500  0.1777 -0.0332
   12MOL    C69 6251   6.766   7.541   3.120  0.2112 -0.0949  0.7288
   12MOL    H70 6252   7.116   7.279   3.072  1.6427 -0.1424  0.5971
   12MOL    H71 6253   7.141   7.322   3.242 -1.2221 -1.5762  2.3362
   12MOL    H72 6254   6.862   7.282   3.151  0.8433 -0.7964 -0.6179
   12MOL    H73 6255   6.946   7.282   3.347 -0.6366 -0.3252 -1.7629
   12MOL    H74 6256   6.941   7.476   3.023 -1.0443 -0.3192  0.1510
   12MOL    H75 6257   6.976   7.608   3.281 -3.2092 -1.2869 -1.0815
   12MOL    H76 6258   7.113   7.580   3.191 -0.6439 -1.8291 -3.4707
   12MOL    H77 6259   7.039   0.102   3.005 -0.9706 -1.1545 -0.6612
   12MOL    H78 6260   7.118   0.263   3.118  1.6336 -0.5315  0.5066
   12MOL    H79 6261   6.810   0.203   3.167  1.1213  0.1522  0.6530
   12MOL    H80 6262   6.871   0.253   2.870 -2.3345  0.9392 -0.7971
   12MOL    H81 6263   6.730   0.304   2.972  0.5471  2.5966 -1.6270
   12MOL    H82 6264   6.813   0.016   2.937 -0.8875  2.4892 -1.1408
   12MOL    H83 6265   6.655   0.074   3.010 -0.3006 -0.5463 -1.1395
   12MOL    H84 6266   6.702   7.466   3.073 -1.2756  1.2164  0.6060
   12MOL    H85 6267   6.718   7.559   3.216 -1.1437  0.5859 -0.0634
   12MOL    O86 6268   6.902   0.395   3.022 -0.2510  0.5097 -0.1079
   12MOL    C87 6269   6.970   0.463   2.911  0.2472 -0.1646 -0.6570
   12MOL    C88 6270   7.017   0.599   2.970  0.8660  0.1256 -0.0151
   12MOL    O89 6271   7.109   0.563   3.073 -0.1156  0.2943  0.5185
   12MOL    C90 6272   7.082   0.700   2.871  0.1606  0.0437  0.2637
   12MOL    C91 6273   7.170   0.814   2.932 -0.0535 -0.0919  0.1312
   12MOL    C92 6274   7.234   0.902   2.821  0.0990 -0.3118  0.9056
   12MOL    O93 6275   7.308   1.004   2.886  0.4139  0.1488 -0.2187
   12MOL    C94 6276   7.133   0.955   2.720 -0.3442 -0.3053  0.0613
   12MOL    C95 6277   7.198   1.032   2.605  0.4098 -0.8109 -0.5515
   12MOL    C96 6278   7.050   0.841   2.666  0.1915  0.0667 -0.6131
   12MOL    C97 6279   6.982   0.756   2.772  0.0572 -0.1197 -0.1548
   12MOL    H98 6280   6.896   0.479   2.832  0.5962  0.7835 -0.7994
   12MOL    H99 6281   7.047   0.404   2.861 -0.2280  1.2038 -3.0751
   12MOL   H100 6282   6.931   0.648   3.016  0.2921 -2.5351  1.8275
   12MOL   H101 6283   7.073   0.484   3.111 -0.2498 -0.5961 -1.4272
   12MOL   H102 6284   7.150   0.638   2.811  2.3431  1.2477  1.4191
   12MOL   H103 6285   7.103   0.874   2.994 -0.6420  0.6109 -1.1551
   12MOL   H104 6286   7.247   0.768   2.994  0.1735  0.0341 -0.0562
   12MOL   H105 6287   7.311   0.845   2.770 -0.3622  0.1879 -0.3500
   12MOL   H106 6288   7.378   0.954   2.926 -1.1190 -0.8590  1.2366
   12MOL   H107 6289   7.060   1.017   2.771 -0.5086 -0.3983 -0.0584
   12MOL   H108 6290   7.120   1.041   2.529  0.4723  0.2480 -0.5033
   12MOL   H109 6291   7.239   1.126   2.643 -1.9796  1.1177 -2.5060
   12MOL   H110 6292   7.105   0.782   2.593  0.6315 -0.4817  0.1640
   12MOL   H111 6293   6.959   0.873   2.614 -1.0113 -2.1990  0.0371
   12MOL   H112 6294   6.934   0.672   2.723  1.3015 -0.7437 -0.3415
   12MOL   H113 6295   6.913   0.812   2.835 -0.1429 -0.9056  0.3397
   12MOL   O114 6296   7.299   0.953   2.546  0.3511  0.0083  0.1269
   12MOL   C115 6297   7.341   0.993   2.417 -0.1394  0.1886 -0.0788
   12MOL   C116 6298   7.469   1.073   2.425 -0.2106 -0.3697 -1.0243
   12MOL   O117 6299   7.568   0.967   2.445  0.1652 -0.3747 -0.0677
   12MOL   C118 6300   7.480   1.160   2.302 -0.2537 -0.2711  1.1504
   12MOL   C119 6301   7.479   1.083   2.160 -0.4128  0.3545 -0.5617
   12MOL   C120 6302   7.486   1.191   2.055 -0.0578  0.3628  0.7167
   12MOL   O121 6303   7.477   1.125   1.929  0.4436 -0.1459 -0.1874
   12MOL   C122 6304   7.617   1.270   2.063  0.2544 -0.5692  0.9913
   12MOL   C123 6305   7.625   1.376   1.955 -0.0320 -0.0474  0.2730
   12MOL   C124 6306   0.001   1.339   2.197 -0.1542  0.2722 -0.7825
   12MOL   C125 6307   7.607   1.247   2.311  0.3455 -0.5523  0.0940
   12MOL   H126 6308   7.264   1.057   2.373  1.6167  1.8580 -0.8063
   12MOL   H127 6309   7.362   0.908   2.352  0.3709  0.2844 -0.0360
   12MOL   H128 6310   7.475   1.148   2.504 -0.6161  1.0781 -2.3392
   12MOL   H129 6311   7.538   0.931   2.527 -0.6089  3.2059  1.3282
   12MOL   H130 6312   7.394   1.226   2.304 -0.6007 -0.7286  1.5370
   12MOL   H131 6313   7.575   1.030   2.153 -0.9911 -0.9709  1.2116
   12MOL   H132 6314   7.391   1.021   2.145  0.6800 -1.2417 -0.4959
   12MOL   H133 6315   7.406   1.263   2.073  0.5338  1.0619  0.5330
   12MOL   H134 6316   7.546   1.167   1.880 -1.6228  0.8186 -2.4037
   12MOL   H135 6317   0.070   1.201   2.046 -1.3264 -1.7900 -2.0398
   12MOL   H136 6318   7.536   1.439   1.964 -0.2858 -0.5658  1.4865
   12MOL   H137 6319   0.079   1.444   1.969 -0.8371  1.1281 -0.5546
   12MOL   H138 6320   7.548   1.409   2.209  0.9880  1.2435  1.6260
   12MOL   H139 6321   0.091   1.397   2.219 -0.1704  0.1276 -0.3353
   12MOL   H140 6322   7.615   1.311   2.398 -0.0051 -1.9224  1.1574
   12MOL   H141 6323   0.063   1.179   2.318  1.0645  0.2041 -1.0623
   12MOL   O142 6324   0.015   1.310   1.834 -0.3625 -0.1913  0.4970
   12MOL   C143 6325   0.033   1.384   1.720  0.8272 -0.0307  0.2379
   12MOL   C144 6326   0.041   1.281   1.597  0.7387 -0.1560 -0.4404
   12MOL   O145 6327   7.609   1.334   1.479 -0.2239  0.4925 -0.2825
   12MOL   C146 6328   0.196   1.237   1.578 -0.4891 -0.2383 -0.1519
   12MOL   C147 6329   0.220   1.152   1.448 -0.0862  0.0468  0.5653
   12MOL   C148 6330   0.364   1.103   1.438  0.9049  0.2018 -0.3161
   12MOL   O149 6331   0.378   1.048   1.311 -0.3213 -0.5308  0.0915
   12MOL   C150 6332   0.409   1.015   1.553 -0.3564 -0.3900 -0.1933
   12MOL   C151 6333   0.557   0.978   1.534  0.0921  1.3655 -0.6553
   12MOL   C152 6334   0.387   1.094   1.680  0.1934  0.4273  0.1497
   12MOL   C153 6335   0.242   1.150   1.698  0.6716  0.5787 -0.5234
   12MOL   H154 6336   0.125   1.441   1.735  0.6881 -0.5107  3.2785
   12MOL   H155 6337   7.589   1.461   1.696  3.2522  3.0901  2.2898
   12MOL   H156 6338   7.602   1.197   1.606 -0.7209  1.2145  1.7014
   12MOL   H157 6339   0.007   1.424   1.473  0.8250  0.1820 -0.1554
   12MOL   H158 6340   0.254   1.329   1.571  2.1863 -1.6794  2.2949
   12MOL   H159 6341   0.163   1.059   1.455 -1.8328  1.2610  4.0733
   12MOL   H160 6342   0.183   1.206   1.361 -2.8435 -1.5836  0.6497
   12MOL   H161 6343   0.427   1.191   1.423  0.2575  0.6948 -0.1750
   12MOL   H162 6344   0.342   1.111   1.251  1.9500  0.4037 -0.3381
   12MOL   H163 6345   0.355   0.921   1.563 -0.2179 -0.4348  0.1325
   12MOL   H164 6346   0.564   0.905   1.453  0.1105  0.5476  0.0747
   12MOL   H165 6347   0.610   1.065   1.495 -0.8455  2.4212  0.3706
   12MOL   H166 6348   0.454   1.180   1.687 -0.6951  1.1576 -0.1503
   12MOL   H167 6349   0.404   1.024   1.762  1.2107 -0.6776 -0.9858
   12MOL   H168 6350   0.236   1.205   1.792  0.7820  0.5523 -0.5003
   12MOL   H169 6351   0.165   1.074   1.712  1.0677  0.1976 -0.4055
   12MOL   O170 6352   0.620   0.933   1.651 -0.4245  0.0631  0.0927
   12MOL   C171 6353   0.743   0.866   1.624  0.2944 -0.1315 -0.4202
   12MOL   C172 6354   0.799   0.808   1.757 -0.0848 -0.6366 -0.2312
   12MOL   O173 6355   0.898   0.892   1.809 -0.4541  0.1134 -0.5578
   12MOL   C174 6356   0.698   0.774   1.871  0.0014  0.8939 -0.0422
   12MOL   C175 6357   0.770   0.701   1.989  0.8688 -0.0335  0.4468
   12MOL   C176 6358   0.678   0.646   2.102 -0.1550  0.5288  0.0329
   12MOL   O177 6359   0.767   0.558   2.182  0.9119 -0.1160 -0.4348
   12MOL   C178 6360   0.559   0.567   2.045  1.4161 -0.1483  0.7784
   12MOL   C179 6361   0.460   0.523   2.161 -1.1209 -0.0016  0.1296
   12MOL   C180 6362   0.493   0.643   1.929 -1.2381  0.4665 -0.4249
   12MOL   C181 6363   0.588   0.681   1.820 -0.3592  0.5881  0.3343
   12MOL   H182 6364   0.824   0.934   1.597  1.3580 -2.8890 -4.5352
   12MOL   H183 6365   0.728   0.779   1.561 -0.0243 -0.5503  0.2271
   12MOL   H184 6366   0.854   0.716   1.736  1.2017 -0.3798  1.8502
   12MOL   H185 6367   0.972   0.901   1.752  1.7991 -1.8790  1.9229
   12MOL   H186 6368   0.655   0.871   1.897  0.9694  0.7681  2.1723
   12MOL   H187 6369   0.812   0.609   1.949  2.0476  0.6699  0.0437
   12MOL   H188 6370   0.846   0.764   2.035  0.8340 -0.6660  1.3814
   12MOL   H189 6371   0.643   0.726   2.167  0.7498  0.3793  0.7183
   12MOL   H190 6372   0.848   0.606   2.195 -0.2913  1.5904  1.0107
   12MOL   H191 6373   0.607   0.482   1.998  0.5388 -0.7349  0.9345
   12MOL   H192 6374   0.510   0.442   2.214  0.1893  0.9640  0.4059
   12MOL   H193 6375   0.437   0.608   2.225  2.6198 -0.2605  1.9506
   12MOL   H194 6376   0.463   0.740   1.969 -2.2805  1.3297 -3.2020
   12MOL   H195 6377   0.404   0.589   1.898  0.9914 -1.7014 -3.3409
   12MOL   H196 6378   0.530   0.740   1.748 -1.0732 -2.2825 -1.5118
   12MOL   H197 6379   0.639   0.600   1.768 -0.1835  0.0234  1.3781
   12MOL   O198 6380   0.335   0.483   2.111  0.5648  0.2489 -0.0707
   12MOL   C199 6381   0.227   0.499   2.203  0.1051  0.2592  0.0801
   12MOL   C200 6382   0.095   0.453   2.130  0.1108  0.1698  0.0779
   12MOL   O201 6383   0.008   0.414   2.235  0.3087 -0.7704 -0.1552
   12MOL   C202 6384   0.027   0.561   2.038 -0.1896 -0.2443 -0.6906
   12MOL   C203 6385   7.545   0.496   1.955 -0.3407  0.3039 -0.1377
   12MOL   C204 6386   7.491   0.596   1.848  0.3107  0.1551  0.1597
   12MOL   O205 6387   7.394   0.516   1.783 -0.3848  0.0359 -0.0532
   12MOL   C206 6388   7.602   0.648   1.753  0.5148  0.1622 -0.1313
   12MOL   C207 6389   7.547   0.735   1.639 -0.2800 -0.2072  0.1116
   12MOL   C208 6390   0.078   0.723   1.839 -0.0774 -0.4052 -0.6046
   12MOL   C209 6391   0.127   0.628   1.941  0.1308  0.4716 -0.7126
   12MOL   H210 6392   0.218   0.602   2.237  0.6662  0.4126 -0.2309
   12MOL   H211 6393   0.243   0.451   2.300  1.2451 -2.1017 -1.2392
   12MOL   H212 6394   0.116   0.364   2.070 -1.3734  0.7361 -1.3213
   12MOL   H213 6395   7.629   0.482   2.301  1.0223 -0.2839 -0.5597
   12MOL   H214 6396   7.621   0.644   2.100 -1.1608 -0.3487 -1.0907
   12MOL   H215 6397   7.577   0.402   1.912  2.4305  1.3571 -0.4958
   12MOL   H216 6398   7.476   0.466   2.034 -1.8803  0.5785 -1.3581
   12MOL   H217 6399   7.448   0.683   1.897  1.5163  1.1385 -0.5047
   12MOL   H218 6400   7.319   0.490   1.833 -0.3867 -2.6740 -1.4038
   12MOL   H219 6401   0.008   0.557   1.704  0.2958 -0.1798  0.3452
   12MOL   H220 6402   7.449   0.705   1.602 -1.6997  2.6062  1.4052
   12MOL   H221 6403   7.541   0.838   1.674 -0.7767  0.1589 -1.0000
   12MOL   H222 6404   0.026   0.805   1.888  2.9980  0.7577  0.7990
   12MOL   H223 6405   0.155   0.766   1.775 -1.3980  1.9197 -0.6930
   12MOL   H224 6406   0.205   0.680   1.996  2.2868 -0.4603 -2.7990
   12MOL   H225 6407   0.175   0.544   1.890 -0.6967 -0.4558  0.0039
   12MOL   O226 6408   0.013   0.733   1.533  0.2956  0.3493  0.1936
   12MOL   C227 6409   7.594   0.783   1.408 -0.4001  0.0312  0.5376
   12MOL   C228 6410   0.069   0.747   1.299  0.1779 -0.1901  0.0312
   12MOL   O229 6411   0.088   0.607   1.311 -0.5421  0.6586 -0.4129
   12MOL   C230 6412   0.040   0.793   1.149  0.1238  0.6723 -0.0048
   12MOL   C231 6413   0.146   0.749   1.051 -0.1811  0.1458  0.0516
   12MOL   C232 6414   0.117   0.799   0.907  0.2765 -0.9501  0.3466
   12MOL   O233 6415   0.228   0.751   0.836  0.3189 -0.0775 -0.0332
   12MOL   C234 6416   0.111   0.956   0.898 -0.3945  0.9809 -0.7678
   12MOL   C235 6417   0.084   1.014   0.763  0.5281  0.3124  0.3346
   12MOL   C236 6418   0.006   1.012   1.003 -0.0058 -0.1935 -0.1008
   12MOL   C237 6419   0.043   0.949   1.140  0.4181 -0.1246  0.2264
   12MOL   H238 6420   7.568   0.889   1.403 -1.5560 -0.1434  2.2084
   12MOL   H239 6421   7.506   0.732   1.369  0.9385 -0.1179 -2.4029
   12MOL   H240 6422   0.157   0.804   1.331 -0.1216  0.7454 -0.7896
   12MOL   H241 6423   0.060   0.587   1.399  0.6725  1.7594  0.2416
   12MOL   H242 6424   7.578   0.756   1.102  1.6216 -1.7645 -1.0959
   12MOL   H243 6425   0.241   0.786   1.091 -1.5097  3.2751  0.4572
   12MOL   H244 6426   0.161   0.641   1.045  4.0425  0.6985 -1.0901
   12MOL   H245 6427   0.021   0.762   0.873  1.1119 -3.1443  0.3057
   12MOL   H246 6428   0.303   0.786   0.881  0.3966  0.6717 -0.7259
   12MOL   H247 6429   0.209   0.990   0.929  0.1631  0.4785 -1.9267
   12MOL   H248 6430   0.140   0.967   0.682 -0.1232 -2.1786  1.2897
   12MOL   H249 6431   7.610   0.990   0.742  1.2168 -4.5059  2.0334
   12MOL   H250 6432   7.534   0.978   0.982 -0.2695 -0.3664  1.3849
   12MOL   H251 6433   7.625   1.120   1.006 -0.1153 -0.2546  2.3515
   12MOL   H252 6434   7.601   0.994   1.209 -1.4516  0.9781 -2.3608
   12MOL   H253 6435   0.135   0.998   1.173  0.4840  0.6475 -1.0805
   12MOL   O254 6436   0.102   1.149   0.764 -0.4976 -0.0903 -0.4761
   12MOL   C255 6437   0.063   1.208   0.641  0.2944  0.1953  0.0505
   12MOL   C256 6438   0.114   1.354   0.628  0.1833 -0.2318  0.4307
   12MOL   O257 6439   0.039   1.418   0.724 -0.2956 -0.1783 -0.6369
   12MOL   C258 6440   0.272   1.370   0.641  0.5136 -0.5068 -0.4293
   12MOL   C259 6441   0.313   1.374   0.792  0.4187 -0.4689 -0.2643
   12MOL   C260 6442   0.460   1.413   0.818  0.1686  0.4967  0.5012
   12MOL   O261 6443   0.479   1.409   0.956  0.4539  0.0200  0.1048
   12MOL   C262 6444   0.500   1.550   0.753  0.1516 -0.1703 -1.0475
   12MOL   C263 6445   0.651   1.588   0.779 -0.2007 -0.0803 -0.6569
   12MOL   C264 6446   0.464   1.542   0.599 -0.2713  0.5091  0.2719
   12MOL   C265 6447   0.311   1.510   0.581 -1.0179  0.3123  0.0049
   12MOL   H266 6448   7.583   1.203   0.643  0.2291  1.7270  1.4204
   12MOL   H267 6449   0.097   1.159   0.550  2.1215  2.0398 -0.2936
   12MOL   H268 6450   0.082   1.398   0.534 -0.4444 -0.9853  0.2815
   12MOL   H269 6451   0.042   1.352   0.792  0.1735  0.3048 -0.1838
   12MOL   H270 6452   0.323   1.296   0.579  0.9147 -0.8524  0.3167
   12MOL   H271 6453   0.249   1.443   0.847  0.9266 -1.4943  1.6850
   12MOL   H272 6454   0.295   1.276   0.837 -0.2569 -0.7493 -1.1372
   12MOL   H273 6455   0.527   1.343   0.769  0.1134  0.2813  0.7334
   12MOL   H274 6456   0.412   1.461   0.996 -0.4149 -1.0245  0.0388
   12MOL   H275 6457   0.441   1.631   0.797  0.1379 -1.4246  1.3375
   12MOL   H276 6458   0.686   1.584   0.882  0.6249  0.5477 -0.9095
   12MOL   H277 6459   0.705   1.519   0.713 -1.1452 -0.6705 -0.8341
   12MOL   H278 6460   0.525   1.472   0.541  1.8840  1.2278  1.6213
   12MOL   H279 6461   0.473   1.641   0.555 -0.4525 -0.9933 -3.3578
   12MOL   H280 6462   0.290   1.515   0.474  1.1143 -0.3123 -0.4644
   12MOL   H281 6463   0.241   1.580   0.627 -2.1903 -1.1020  0.4138
   12MOL   O282 6464   0.665   1.719   0.729 -0.4294 -0.4014  0.4341
   12MOL   C283 6465   0.807   1.756   0.722  0.1288  0.2903  0.1069
   12MOL   C284 6466   0.838   1.894   0.661  0.5159  0.4229 -0.0139
   12MOL   O285 6467   0.781   1.877   0.532 -0.1826 -0.2354 -0.2302
   12MOL   C286 6468   0.792   2.022   0.729  0.3488 -0.2661 -0.1941
   12MOL   C287 6469   0.830   2.142   0.644 -0.1870  0.1141 -0.3645
   12MOL   C288 6470   0.791   2.269   0.718  0.4403 -0.3053 -0.1747
   12MOL   O289 6471   0.823   2.374   0.636  0.2668  0.0836  0.1460
   12MOL   C290 6472   0.852   2.281   0.861 -0.3741  0.0433 -0.4719
   12MOL   C291 6473   0.796   2.406   0.944  0.9446  0.2623  0.3843
   12MOL   C292 6474   0.836   2.158   0.942  0.1686  0.5365 -1.1778
   12MOL   C293 6475   0.870   2.030   0.867 -0.7743  0.0830 -0.1957
   12MOL   H294 6476   0.863   1.678   0.668  1.7698 -0.2405  2.4945
   12MOL   H295 6477   0.851   1.757   0.822 -0.5231 -3.0756  0.4737
   12MOL   H296 6478   0.946   1.906   0.655  0.5183 -0.2432 -1.7138
   12MOL   H297 6479   0.701   1.828   0.544  2.3817 -4.0959  2.3110
   12MOL   H298 6480   0.683   2.024   0.736  0.2353  0.2210 -1.8588
   12MOL   H299 6481   0.939   2.141   0.636  0.0462 -1.2656  2.3894
   12MOL   H300 6482   0.774   2.136   0.550 -0.0500  0.5567 -0.4749
   12MOL   H301 6483   0.682   2.276   0.727  0.6117 -1.2368  3.7034
   12MOL   H302 6484   0.902   2.360   0.586  2.1088  0.3356  2.9085
   12MOL   H303 6485   0.961   2.283   0.859 -0.3939  1.5128 -0.3226
   12MOL   H304 6486   0.828   2.498   0.894  1.2783  0.0278  0.1684
   12MOL   H305 6487   0.688   2.416   0.942  1.0289  1.1115 -2.5776
   12MOL   H306 6488   0.734   2.143   0.978  0.6879 -1.9756 -0.6416
   12MOL   H307 6489   0.900   2.157   1.030 -1.4728 -2.6341  0.0819
   12MOL   H308 6490   0.849   1.951   0.939  1.6010 -1.4120 -1.0489
   12MOL   H309 6491   0.979   2.030   0.854 -0.6593  1.8270  0.6057
   12MOL   O310 6492   0.853   2.417   1.071 -0.8625 -0.0898 -0.3232
   12MOL   C311 6493   0.989   2.433   1.100  0.7310  0.0387 -0.0666
   12MOL   C312 6494   1.026   2.438   1.252  0.7498 -0.2044 -0.4538
   12MOL   O313 6495   1.058   2.312   1.298  0.3139  0.4466  0.0421
   12MOL   C314 6496   1.141   2.535   1.269 -0.5541  0.2305 -0.1536
   12MOL   C315 6497   1.270   2.512   1.188 -0.2484  0.5965  0.4264
   12MOL   C316 6498   1.368   2.634   1.199 -0.0354  0.2400  0.3773
   12MOL   O317 6499   1.485   2.605   1.133  0.4042  0.1045  0.7136
   12MOL   C318 6500   1.394   2.671   1.350 -0.3323 -0.5452 -0.2080
   12MOL   C319 6501   1.475   2.795   1.354  0.3780  0.1728 -0.1585
   12MOL   C320 6502   1.267   2.687   1.441 -0.2442  0.0548  0.4574
   12MOL   C321 6503   1.174   2.561   1.425  0.1649  0.0792  0.8428
   12MOL   H322 6504   1.007   2.527   1.049 -0.9256  0.1740 -0.3971
   12MOL   H323 6505   1.060   2.362   1.056 -1.2504 -1.5428 -0.7574
   12MOL   H324 6506   0.936   2.476   1.301  0.0090 -0.8824 -1.2771
   12MOL   H325 6507   1.015   2.309   1.382 -1.8551  0.7850 -1.0424
   12MOL   H326 6508   1.107   2.626   1.220  0.6337  1.3612  1.0626
   12MOL   H327 6509   1.312   2.416   1.219 -1.9516 -0.2960  0.0252
   12MOL   H328 6510   1.247   2.482   1.085 -1.0381  1.3703  0.3710
   12MOL   H329 6511   1.316   2.724   1.167  0.3695  0.3865  0.1366
   12MOL   H330 6512   1.458   2.564   1.052  0.6099  2.2557 -0.4912
   12MOL   H331 6513   1.459   2.596   1.395 -1.7547 -1.4250  0.4626
   12MOL   H332 6514   1.554   2.786   1.280 -0.5244  1.0446 -1.2388
   12MOL   H333 6515   1.417   2.883   1.329 -0.2759 -0.5956 -1.3686
   12MOL   H334 6516   1.204   2.776   1.431 -1.4072 -0.6356  1.4716
   12MOL   H335 6517   1.308   2.687   1.542  1.8916 -1.4654 -0.3751
   12MOL   H336 6518   1.081   2.561   1.482 -0.2007 -1.1950  0.2475
   12MOL   H337 6519   1.224   2.474   1.468 -1.7070 -0.8914  1.1009
   12MOL   O338 6520   1.537   2.812   1.478 -0.3270  0.0770 -0.3283
   12MOL   C339 6521   1.597   2.940   1.501 -0.0364  0.5637 -0.2192
   12MOL   C340 6522   1.673   2.957   1.631 -0.4391  0.0789 -0.4021
   12MOL   O341 6523   1.576   2.978   1.734 -0.1360  0.0467  0.0476
   12MOL   C342 6524   1.791   2.862   1.673  0.2425 -0.1659 -0.2181
   12MOL   C343 6525   1.894   2.850   1.557  0.2605  0.0082  0.1228
   12MOL   C344 6526   2.016   2.768   1.596 -0.6309 -0.5047 -0.1598
   12MOL   O345 6527   2.094   2.756   1.484  0.2748 -0.4755  0.4534
   12MOL   C346 6528   1.982   2.627   1.651 -0.9840  0.1864 -0.0826
   12MOL   C347 6529   2.107   2.551   1.701 -0.2486  0.1730 -0.3351
   12MOL   C348 6530   1.875   2.645   1.766  0.0584 -0.3564 -0.9727
   12MOL   C349 6531   1.750   2.727   1.722 -0.1377  0.1456  0.1994
   12MOL   H350 6532   1.532   3.026   1.484  1.1709  1.5455  0.0188
   12MOL   H351 6533   1.675   2.964   1.428 -0.4236  0.3759 -0.6946
   12MOL   H352 6534   1.718   3.056   1.625 -1.9829  0.8565  0.3002
   12MOL   H353 6535   1.521   2.901   1.739 -1.2305  0.8666  0.9370
   12MOL   H354 6536   1.839   2.909   1.758 -0.3201  0.3230 -0.1674
   12MOL   H355 6537   1.852   2.807   1.467  0.4824  0.4084 -0.1789
   12MOL   H356 6538   1.928   2.947   1.519  0.8064 -0.3145 -0.2291
   12MOL   H357 6539   2.074   2.832   1.663 -0.9403  0.5396 -0.8855
   12MOL   H358 6540   2.186   2.760   1.505  0.8827  0.6467 -2.3158
   12MOL   H359 6541   1.935   2.563   1.576 -1.0104  0.3438 -0.2021
   12MOL   H360 6542   2.093   2.445   1.721  2.7238  0.1048  1.7261
   12MOL   H361 6543   2.174   2.556   1.615 -0.3859 -2.5625 -0.6401
   12MOL   H362 6544   1.921   2.694   1.852 -0.7298  0.4434 -0.9918
   12MOL   H363 6545   1.839   2.549   1.803 -1.9289  0.7728  0.1255
   12MOL   H364 6546   1.669   2.732   1.794  0.7037  2.2350  1.0749
   12MOL   H365 6547   1.705   2.664   1.646  1.0816 -1.0306  0.4417
   12MOL   O366 6548   2.177   2.596   1.814  0.0649  0.3998 -0.5025
   12MOL   C367 6549   2.171   2.517   1.937 -0.0420 -0.0751 -0.2527
   12MOL   C368 6550   2.167   2.624   2.049  0.8070  0.1190 -0.5246
   12MOL   O369 6551   2.130   2.571   2.171 -0.5438 -0.1490 -0.0731
   12MOL   C370 6552   2.306   2.691   2.073 -0.3903 -0.0368  0.5317
   12MOL   C371 6553   2.405   2.602   2.155  0.4294  0.1567  0.4909
   12MOL   C372 6554   2.544   2.672   2.173  0.4376  0.2831 -0.2865
   12MOL   O373 6555   2.619   2.578   2.250 -0.3786 -0.3521 -0.1205
   12MOL   C374 6556   2.518   2.799   2.256  0.2786 -0.3929 -0.3924
   12MOL   C375 6557   2.651   2.868   2.282 -0.4807 -0.4895 -0.0779
   12MOL   C376 6558   2.425   2.896   2.176  0.1696 -0.0061  0.5209
   12MOL   C377 6559   2.287   2.830   2.149 -0.0896 -0.1466  0.0066
   12MOL   H378 6560   2.269   2.470   1.940  0.3131  0.6106 -0.8354
   12MOL   H379 6561   2.076   2.465   1.948 -0.8046  1.0407 -1.3240
   12MOL   H380 6562   2.080   2.687   2.033  0.3904 -0.8423 -2.0917
   12MOL   H381 6563   2.197   2.505   2.183  0.5258  0.7973 -0.6812
   12MOL   H382 6564   2.358   2.713   1.980  2.4709  0.3884  2.1496
   12MOL   H383 6565   2.366   2.582   2.255  1.4377 -0.8491  0.6986
   12MOL   H384 6566   2.413   2.505   2.106  0.2116 -0.0742  0.9045
   12MOL   H385 6567   2.588   2.700   2.078 -1.8306  1.7545 -0.9303
   12MOL   H386 6568   2.705   2.594   2.215 -0.4299 -0.5318 -0.3280
   12MOL   H387 6569   2.466   2.782   2.350 -1.9002 -3.1344 -2.0263
   12MOL   H388 6570   2.715   2.805   2.343 -1.0448  1.3772  2.5474
   12MOL   H389 6571   2.706   2.877   2.188  3.1028 -4.1831  1.5146
   12MOL   H390 6572   2.466   2.913   2.077 -2.0232  0.4005 -0.3259
   12MOL   H391 6573   2.404   2.987   2.233 -0.2787 -1.8988  3.5085
   12MOL   H392 6574   2.214   2.896   2.102  1.4211  1.4456 -0.1610
   12MOL   H393 6575   2.241   2.814   2.246  2.9208  0.0065  1.5209
   12MOL   O394 6576   2.640   2.994   2.358 -0.4791  0.1360  0.2073
   12MOL   C395 6577   2.669   2.992   2.495 -0.3644 -0.1195 -0.3907
   12MOL   C396 6578   2.760   3.116   2.522  0.7173 -0.2199  0.0174
   12MOL   O397 6579   2.782   3.115   2.665 -0.0872 -0.0318 -0.0625
   12MOL   C398 6580   2.896   3.116   2.459 -0.2778  0.2394  0.2806
   12MOL   C399 6581   2.991   3.002   2.510 -0.3425 -0.3215  0.3511
   12MOL   C400 6582   3.124   3.000   2.436  0.0448 -0.0791  0.5506
   12MOL   O401 6583   3.202   2.915   2.517 -0.2654 -0.4125  0.1027
   12MOL   C402 6584   3.189   3.143   2.441 -0.2725 -0.3699  0.3387
   12MOL   C403 6585   3.318   3.143   2.353  0.4105 -0.1783 -0.3534
   12MOL   C404 6586   3.091   3.252   2.401 -0.1989 -0.5762 -0.1676
   12MOL   C405 6587   2.959   3.251   2.468 -0.9248 -0.2529 -0.3510
   12MOL   H406 6588   2.718   2.904   2.536  1.3931  0.6593 -0.7967
   12MOL   H407 6589   2.572   2.997   2.545 -0.4478  0.9302 -0.6467
   12MOL   H408 6590   2.700   3.205   2.499  1.9522  0.9317  1.1813
   12MOL   H409 6591   2.696   3.122   2.705 -1.0678  0.8323 -2.2414
   12MOL   H410 6592   2.885   3.081   2.356  0.6964  2.1334 -0.4929
   12MOL   H411 6593   3.018   3.024   2.613  3.3926 -0.1651 -0.6001
   12MOL   H412 6594   2.945   2.904   2.506 -1.3091  0.1982 -2.6841
   12MOL   H413 6595   3.109   2.962   2.335 -1.6550  2.0373 -0.0283
   12MOL   H414 6596   3.181   2.935   2.607  1.9833 -0.1512  0.6012
   12MOL   H415 6597   3.212   3.164   2.546 -0.9932 -1.7595  0.7895
   12MOL   H416 6598   3.375   3.060   2.396 -2.2557 -2.0363 -0.2647
   12MOL   H417 6599   3.289   3.114   2.252 -1.9946 -0.9573  0.5049
   12MOL   H418 6600   3.072   3.259   2.293 -1.2618  2.5204  0.1731
   12MOL   H419 6601   3.134   3.350   2.417 -0.7359 -0.4192  0.3142
   12MOL   H420 6602   2.889   3.318   2.417 -1.6866 -0.9876 -0.2954
   12MOL   H421 6603   2.971   3.271   2.574  0.4358  0.2754 -0.5948
   12MOL   O422 6604   3.396   3.264   2.380  0.5451 -0.0589  0.3305
   12MOL   C423 6605   3.485   3.310   2.280  0.0702 -0.0625 -0.0989
   12MOL   C424 6606   3.576   3.417   2.337  0.2714 -0.4493 -0.2374
   12MOL   O425 6607   3.496   3.504   2.417 -0.3914  0.2919  0.1625
   12MOL   C426 6608   3.697   3.366   2.418 -0.3017 -0.4181  0.1278
   12MOL   C427 6609   3.813   3.360   2.324  0.0509  0.8493  0.0375
   12MOL   C428 6610   3.939   3.309   2.392  1.1559 -0.2293 -0.9014
   12MOL   O429 6611   4.033   3.315   2.284 -0.5288  0.3968  0.3625
   12MOL   C430 6612   3.919   3.171   2.462  0.8014 -0.1760 -0.2242
   12MOL   C431 6613   4.045   3.119   2.530  0.2599  0.2045 -0.2076
   12MOL   C432 6614   3.801   3.179   2.561 -0.3864  0.4201 -0.0552
   12MOL   C433 6615   3.677   3.236   2.489 -0.3002  0.1537  0.3612
   12MOL   H434 6616   3.427   3.344   2.194  1.5928  2.6722 -0.1068
   12MOL   H435 6617   3.550   3.234   2.238  0.4113  0.8124 -1.1811
   12MOL   H436 6618   3.620   3.474   2.256 -0.7755 -2.3134 -2.1618
   12MOL   H437 6619   3.410   3.471   2.438  0.0192 -0.4609  0.6977
   12MOL   H438 6620   3.730   3.435   2.496 -0.1741 -0.8686  0.4710
   12MOL   H439 6621   3.795   3.282   2.250  0.4204  0.6074  0.2043
   12MOL   H440 6622   3.829   3.457   2.276 -0.3297  0.5997 -0.6031
   12MOL   H441 6623   3.978   3.373   2.470  0.1316  0.0072 -0.5780
   12MOL   H442 6624   4.123   3.312   2.314 -0.7384 -0.6918  0.9213
   12MOL   H443 6625   3.879   3.106   2.384 -0.6387 -0.2933  0.5990
   12MOL   H444 6626   4.115   3.130   2.447 -0.7504  1.1012 -0.9604
   12MOL   H445 6627   4.066   3.176   2.621 -1.4394 -1.0848  1.0256
   12MOL   H446 6628   3.818   3.254   2.639  0.2810 -0.9611  1.1627
   12MOL   H447 6629   3.779   3.080   2.600  2.6871  0.2445  1.3428
   12MOL   H448 6630   3.590   3.248   2.554 -1.6781 -3.2415 -0.7429
   12MOL   H449 6631   3.645   3.160   2.417 -2.0965  1.2541 -0.0320
   12MOL   O450 6632   4.043   2.981   2.571 -0.1794 -0.1402  0.3481
   12MOL   C451 6633   4.067   2.885   2.468 -0.2561  0.2220 -1.0554
   12MOL   C452 6634   4.066   2.742   2.518  0.1146  0.3511  0.0808
   12MOL   O453 6635   3.930   2.710   2.522 -0.2452  0.4872  0.1131
   12MOL   C454 6636   4.144   2.639   2.425 -0.0965  0.0952  0.1763
   12MOL   C455 6637   4.083   2.623   2.282  0.4543  0.4838  0.0640
   12MOL   C456 6638   4.170   2.527   2.196 -0.0358  0.5575  0.1794
   12MOL   O457 6639   4.104   2.502   2.076 -0.3334 -0.3639  0.6395
   12MOL   C458 6640   4.197   2.391   2.266 -0.2567  0.1421 -0.1050
   12MOL   C459 6641   4.299   2.309   2.188 -0.3696 -0.6741  0.1561
   12MOL   C460 6642   4.246   2.407   2.413 -0.6508  0.1621 -0.1491
   12MOL   C461 6643   4.157   2.501   2.496 -0.1133  0.0761 -0.5847
   12MOL   H462 6644   4.168   2.899   2.429 -0.1889 -0.0491 -0.9771
   12MOL   H463 6645   3.986   2.903   2.396 -1.8757 -0.1324  0.6475
   12MOL   H464 6646   4.114   2.732   2.616 -0.8964 -0.8686  0.4544
   12MOL   H465 6647   3.897   2.732   2.608  0.5381  3.1350 -0.2169
   12MOL   H466 6648   4.242   2.679   2.397 -0.4014  0.1514 -0.8345
   12MOL   H467 6649   3.984   2.579   2.292 -0.1012  1.4674 -1.0015
   12MOL   H468 6650   4.064   2.720   2.236 -1.6691 -0.2183 -0.5533
   12MOL   H469 6651   4.263   2.577   2.169  0.4382  0.3162  1.3712
   12MOL   H470 6652   4.054   2.580   2.060  0.4932  0.0691  0.1308
   12MOL   H471 6653   4.101   2.338   2.267  0.4245 -1.1129  2.0288
   12MOL   H472 6654   4.270   2.298   2.083  1.9196  2.1567 -0.8416
   12MOL   H473 6655   4.390   2.369   2.191 -0.6911  0.0493 -2.6742
   12MOL   H474 6656   4.349   2.445   2.409  0.2169 -2.1124 -0.0680
   12MOL   H475 6657   4.248   2.309   2.459 -1.2142  0.3155  0.2030
   12MOL   H476 6658   4.195   2.529   2.594  0.0598 -2.0751 -0.0102
   12MOL   H477 6659   4.061   2.452   2.516  0.8385 -1.6697 -0.2217
   12MOL   O478 6660   4.330   2.185   2.254  0.0554 -0.3324 -0.3151
   12MOL   C479 6661   4.381   2.077   2.175 -0.1555  0.2690 -0.4430
   12MOL   C480 6662   4.275   2.005   2.086  0.5122 -1.2458 -0.3048
   12MOL   O481 6663   4.356   1.926   2.003 -0.1648 -0.2446 -0.6362
   12MOL   C482 6664   4.156   1.927   2.152  0.0709 -0.4463 -0.3532
   12MOL   C483 6665   4.063   1.885   2.037  0.0816  0.7385 -0.0265
   12MOL   C484 6666   3.949   1.791   2.085 -0.1014  0.1667  0.0006
   12MOL   O485 6667   3.878   1.735   1.982 -0.7042  0.3165 -0.1790
   12MOL   C486 6668   3.856   1.864   2.175 -0.3098 -0.5982 -0.1659
   12MOL   C487 6669   3.735   1.795   2.228 -0.6102  0.1796 -0.3319
   12MOL   C488 6670   3.942   1.930   2.290  0.7014  0.1063  0.2696
   12MOL   C489 6671   4.069   2.004   2.249 -0.1138  0.3904  0.4034
   12MOL   H490 6672   4.436   2.006   2.238  0.8735  0.7714 -0.7606
   12MOL   H491 6673   4.451   2.138   2.118  0.0923 -2.4651 -3.1860
   12MOL   H492 6674   4.233   2.076   2.014  1.6414 -2.9440 -2.7140
   12MOL   H493 6675   4.316   1.904   1.920  1.1625 -1.8907 -0.8482
   12MOL   H494 6676   4.182   1.838   2.208 -0.3109 -0.0863  0.3961
   12MOL   H495 6677   4.033   1.970   1.976  2.4625  0.5116 -1.5847
   12MOL   H496 6678   4.120   1.824   1.967 -1.7338 -0.9083 -0.1241
   12MOL   H497 6679   3.997   1.711   2.140 -0.9514 -0.2652  0.1293
   12MOL   H498 6680   3.826   1.669   2.024  0.2244  0.5845  1.4119
   12MOL   H499 6681   3.814   1.946   2.118 -0.6650  0.0029  0.9352
   12MOL   H500 6682   3.682   1.735   2.154 -0.7738 -0.4831  0.3143
   12MOL   H501 6683   3.763   1.718   2.300 -3.1152 -1.0528 -0.5939
   12MOL   H502 6684   3.980   1.843   2.345 -1.0452 -0.0716  1.2102
   12MOL   H503 6685   3.882   1.976   2.368  1.9420 -0.7765  1.7755
   12MOL   H504 6686   4.132   2.020   2.336 -0.1451  1.4108  0.2423
   12MOL   H505 6687   4.048   2.103   2.209  1.1013  0.8100  0.7892
   12MOL   O506 6688   3.645   1.884   2.295 -0.0586 -0.2536 -0.0774
   12MOL   C507 6689   3.523   1.827   2.324  0.0386 -0.1770 -0.1528
   12MOL   C508 6690   3.420   1.876   2.232  0.0954  0.2499  0.0318
   12MOL   O509 6691   3.299   1.804   2.247 -0.1568 -0.4381  0.2398
   12MOL   C510 6692   3.395   2.028   2.253  0.2708  0.3142  0.4095
   12MOL   C511 6693   3.321   2.058   2.389  0.1731  0.1806 -0.3964
   12MOL   C512 6694   3.313   2.203   2.414 -0.2179 -0.1485  0.1927
   12MOL   O513 6695   3.236   2.208   2.533  0.4271 -0.5321 -0.3304
   12MOL   C514 6696   3.231   2.279   2.304  0.1049  0.2873 -0.3179
   12MOL   C515 6697   3.231   2.433   2.331  0.2118  0.1333  0.0826
   12MOL   C516 6698   3.280   2.238   2.166  0.3879 -0.2259  0.4615
   12MOL   C517 6699   3.295   2.086   2.145  0.4244 -0.1093  0.0340
   12MOL   H518 6700   3.502   1.836   2.431 -0.6317 -0.1160 -0.2831
   12MOL   H519 6701   3.528   1.719   2.311  0.9725  0.1718 -2.8763
   12MOL   H520 6702   3.457   1.849   2.133 -1.8487 -1.9874 -0.1417
   12MOL   H521 6703   3.237   1.858   2.200 -0.2424 -1.2490 -0.6217
   12MOL   H522 6704   3.488   2.084   2.254 -1.4472  3.3211 -0.1722
   12MOL   H523 6705   3.227   2.006   2.407  0.3238 -0.0661 -0.3268
   12MOL   H524 6706   3.398   2.023   2.458 -0.0877  0.2880 -0.0452
   12MOL   H525 6707   3.407   2.252   2.438  0.2183 -0.0442 -1.6558
   12MOL   H526 6708   3.159   2.153   2.529 -0.1682  0.1412  1.3681
   12MOL   H527 6709   3.130   2.240   2.297  0.4526 -0.5314 -0.8396
   12MOL   H528 6710   3.191   2.446   2.431 -1.6357  0.9547 -0.7305
   12MOL   H529 6711   3.332   2.474   2.329  0.8070 -1.3045 -0.1508
   12MOL   H530 6712   3.377   2.285   2.152 -0.0264  0.1517 -1.1762
   12MOL   H531 6713   3.212   2.285   2.096 -1.4663  0.9883  2.9861
   12MOL   H532 6714   3.326   2.068   2.042  1.9309 -0.5467  0.5578
   12MOL   H533 6715   3.199   2.034   2.154  0.0072  0.4881 -0.8495
   12MOL   O534 6716   3.132   2.493   2.246  0.4557 -0.8003 -0.0039
   12MOL   C535 6717   3.114   2.636   2.257  0.0034  0.9098 -0.2502
   12MOL   C536 6718   3.015   2.675   2.142  0.3048 -0.4541 -0.3387
   12MOL   O537 6719   2.886   2.638   2.188 -0.3336 -0.1159 -0.1774
   12MOL   C538 6720   2.997   2.819   2.096 -0.5816 -0.2092 -0.3257
   12MOL   C539 6721   2.906   2.838   1.967 -0.2456  0.5224 -0.4274
   12MOL   C540 6722   2.901   2.984   1.919  0.7313 -0.2369  0.4871
   12MOL   O541 6723   2.836   2.985   1.790 -0.0160 -0.4050 -0.2184
   12MOL   C542 6724   3.042   3.058   1.898  0.8897  0.4464  0.3131
   12MOL   C543 6725   3.025   3.210   1.869 -0.3258 -0.1408 -0.8149
   12MOL   C544 6726   3.125   3.031   2.026 -0.9026  0.2325  0.3182
   12MOL   C545 6727   3.134   2.882   2.071 -0.3150  0.4579  0.1148
   12MOL   H546 6728   3.208   2.691   2.252 -0.1768  1.2178 -0.2759
   12MOL   H547 6729   3.071   2.658   2.355 -3.1639 -2.8813 -0.7057
   12MOL   H548 6730   3.037   2.613   2.055  1.5436  0.0741 -0.4106
   12MOL   H549 6731   2.897   2.550   2.220 -3.7233 -1.2008 -1.7449
   12MOL   H550 6732   2.952   2.879   2.175 -0.2100 -0.2472 -0.0847
   12MOL   H551 6733   2.933   2.772   1.884 -0.0242  0.4234 -0.2768
   12MOL   H552 6734   2.805   2.802   1.988  0.4368 -1.0140  0.3121
   12MOL   H553 6735   2.836   3.051   1.974  0.6881  1.7066 -1.8368
   12MOL   H554 6736   2.818   3.077   1.781 -0.0373 -0.2163  1.5799
   12MOL   H555 6737   3.091   3.018   1.809 -0.3488  1.0834 -0.6795
   12MOL   H556 6738   3.128   3.241   1.882  0.3654 -3.3633  2.3871
   12MOL   H557 6739   2.972   3.228   1.776 -0.8552 -0.7066 -0.6285
   12MOL   H558 6740   3.082   3.090   2.107 -0.5726 -0.8119  1.2567
   12MOL   H559 6741   3.221   3.078   2.002 -0.8285  0.2202  0.5983
   12MOL   H560 6742   3.195   2.886   2.161 -1.0805  1.6331  0.5953
   12MOL   H561 6743   3.198   2.842   1.993 -1.7954 -2.9798  0.5758
   12MOL   H562 6744   2.953   3.260   1.934 -0.3605  0.7684 -1.5400
   13MOL     O1 6745   0.623   7.526   6.180 -0.1347  0.4678 -0.1313
   13MOL     C2 6746   0.716   7.419   6.178 -0.0781 -0.2364  0.5281
   13MOL     C3 6747   0.860   7.472   6.191  0.2825 -0.3317  0.7642
   13MOL     O4 6748   0.856   7.566   6.083  0.5860  0.3543  0.2215
   13MOL     C5 6749   0.895   7.549   6.320 -0.6965 -0.1556 -0.2795
   13MOL     C6 6750   1.039   7.592   6.322  0.1235 -0.3104 -0.2835
   13MOL     C7 6751   1.071   0.044   6.457 -0.2165  0.7613  0.3062
   13MOL     O8 6752   1.207   0.053   6.466  0.2751  0.5739 -0.1112
   13MOL     C9 6753   1.009   7.621   6.584  0.4844 -0.5115 -0.6160
   13MOL    C10 6754   1.029   0.092   6.703 -0.0048  0.1982 -0.3440
   13MOL    C11 6755   0.859   7.581   6.561 -0.1411 -0.0854 -0.1181
   13MOL    C12 6756   0.838   7.483   6.442  0.1137  0.1932  0.0716
   13MOL    H13 6757   0.705   7.364   6.085 -2.0748  1.3182 -0.1830
   13MOL    H14 6758   0.703   7.346   6.258  1.0008 -1.6378 -0.5360
   13MOL    H15 6759   0.924   7.386   6.169 -0.6462 -0.6043 -0.9811
   13MOL    H16 6760   0.772   7.607   6.099 -0.1271 -0.7543 -0.6234
   13MOL    H17 6761   0.830   0.007   6.320  0.4512  0.7050  0.0375
   13MOL    H18 6762   1.097   7.499   6.320 -1.4886 -1.3871  1.7919
   13MOL    H19 6763   1.066   0.017   6.231  1.9216 -2.1778 -0.9315
   13MOL    H20 6764   1.026   0.141   6.439  0.8668  1.1720 -0.2505
   13MOL    H21 6765   1.219   0.139   6.503  0.7522 -0.5677  2.4596
   13MOL    H22 6766   1.060   7.527   6.608  0.7463 -0.0727  0.5646
   13MOL    H23 6767   1.131   0.130   6.707  0.1565 -0.4488  2.3798
   13MOL    H24 6768   0.973   0.181   6.671  2.2742  0.8025 -2.8104
   13MOL    H25 6769   0.794   0.038   6.557 -1.3157 -0.9049  1.0306
   13MOL    H26 6770   0.829   7.537   6.656  2.7611 -1.4126  0.2600
   13MOL    H27 6771   0.729   7.485   6.434  0.1575 -1.1921 -1.2254
   13MOL    H28 6772   0.883   7.386   6.461  2.1624  0.8140 -1.5014
   13MOL    H29 6773   0.568   7.512   6.256  1.6131  2.3439  1.5306
   13MOL    O30 6774   0.986   0.043   6.829  0.4438 -0.1617  0.3441
   13MOL    C31 6775   1.021   0.133   6.921  0.0668 -0.5067 -0.1824
   13MOL    C32 6776   0.957   0.108   7.056  0.4190  0.6847  0.1629
   13MOL    O33 6777   1.053   0.024   7.119  0.1626 -0.1798  0.1325
   13MOL    C34 6778   0.941   0.238   7.142 -0.8374  0.4683 -0.6615
   13MOL    C35 6779   1.062   0.326   7.161 -0.3344 -0.3137 -0.4383
   13MOL    C36 6780   1.018   0.464   7.225  0.5304  1.0601  0.4537
   13MOL    O37 6781   1.143   0.535   7.244 -0.0501 -0.1605 -0.2686
   13MOL    C38 6782   0.931   0.436   7.349 -0.1517 -0.0213 -0.3120
   13MOL    C39 6783   0.881   0.566   7.418 -0.4043 -0.4073 -0.3744
   13MOL    C40 6784   0.819   0.338   7.340  0.1375  0.4227  0.1290
   13MOL    C41 6785   0.858   0.207   7.260  0.5602 -0.0321 -0.1898
   13MOL    H42 6786   0.993   0.231   6.883  1.1799 -0.6190 -1.3394
   13MOL    H43 6787   1.130   0.135   6.924  0.2458 -2.0909 -3.3090
   13MOL    H44 6788   0.859   0.061   7.049  1.1642 -1.1188  1.3655
   13MOL    H45 6789   1.045   7.572   7.071  0.0251  0.9767 -1.8496
   13MOL    H46 6790   0.866   0.303   7.097 -0.6998  0.9748 -0.1688
   13MOL    H47 6791   1.132   0.287   7.235 -0.5238  0.0226 -0.0795
   13MOL    H48 6792   1.113   0.344   7.067  0.9879  1.0634  0.5143
   13MOL    H49 6793   0.962   0.517   7.148 -0.5477 -0.7996 -0.0728
   13MOL    H50 6794   1.192   0.483   7.306  0.1666  2.7146  2.0800
   13MOL    H51 6795   0.996   0.389   7.423  0.9271  0.4946 -0.9223
   13MOL    H52 6796   0.968   0.632   7.421 -1.1489  0.4974  1.3650
   13MOL    H53 6797   0.807   0.611   7.352 -0.4119  0.9678  0.5700
   13MOL    H54 6798   0.732   0.388   7.298 -1.6400 -3.3583 -0.9521
   13MOL    H55 6799   0.788   0.313   7.441  1.8819 -2.0136  0.1340
   13MOL    H56 6800   0.764   0.159   7.231  0.0191 -0.8683  2.7525
   13MOL    H57 6801   0.911   0.138   7.325  0.0948  0.5929  0.8677
   13MOL    O58 6802   0.834   0.557   7.554  0.0016 -0.0281  0.2547
   13MOL    C59 6803   0.924   0.598   0.024  0.6354 -0.2916 -0.0492
   13MOL    C60 6804   0.884   0.530   0.155 -0.7408  0.7775  0.6023
   13MOL    O61 6805   0.771   0.599   0.204  0.3149 -0.1420 -0.3833
   13MOL    C62 6806   0.854   0.374   0.147  0.1528  0.3420 -0.5037
   13MOL    C63 6807   0.795   0.316   0.278 -0.4458 -0.0939  0.2366
   13MOL    C64 6808   0.774   0.161   0.267  0.0097 -1.0249 -0.2512
   13MOL    O65 6809   0.712   0.117   0.382  0.1991 -0.4721  0.3243
   13MOL    C66 6810   0.910   0.082   0.245 -0.8884  0.5533 -0.2739
   13MOL    C67 6811   0.899   7.565   0.225  0.2811 -0.5624  0.0652
   13MOL    C68 6812   0.967   0.141   0.114  0.2186  0.6159  0.7205
   13MOL    C69 6813   0.987   0.295   0.125 -0.1694 -0.4874  1.3758
   13MOL    H70 6814   0.920   0.707   0.034  1.6982 -0.3823  1.4316
   13MOL    H71 6815   1.024   0.563   7.628  0.8341 -0.8570  1.4487
   13MOL    H72 6816   0.958   0.544   0.233 -0.5433  3.1217  0.0260
   13MOL    H73 6817   0.701   0.577   0.143  0.2783 -1.0396 -0.0260
   13MOL    H74 6818   0.781   0.355   0.068 -0.0872 -0.9008  0.0165
   13MOL    H75 6819   0.863   0.338   0.361 -0.0491 -0.3355 -0.0232
   13MOL    H76 6820   0.704   0.371   0.303  1.0717  1.6842  2.0677
   13MOL    H77 6821   0.703   0.144   0.186 -1.2119 -0.2867  0.6520
   13MOL    H78 6822   0.715   0.023   0.380  0.3693 -0.4811  0.8458
   13MOL    H79 6823   0.969   0.112   0.332 -2.6210 -0.4580  1.2846
   13MOL    H80 6824   0.830   7.542   0.144  0.4231  1.0664 -0.5542
   13MOL    H81 6825   0.997   7.527   0.197 -0.2991 -2.0095 -0.0537
   13MOL    H82 6826   0.903   0.124   0.027 -1.3314  0.5159  1.8725
   13MOL    H83 6827   1.066   0.096   0.107  0.1451  0.4266  0.9236
   13MOL    H84 6828   1.029   0.321   0.028  0.8040 -0.7405  1.7299
   13MOL    H85 6829   1.062   0.313   0.202  2.1770 -0.2201 -0.9303
   13MOL    O86 6830   0.839   7.507   0.343 -0.1089 -0.0615  0.0113
   13MOL    C87 6831   0.815   7.363   0.336 -0.3589 -0.2106  0.6065
   13MOL    C88 6832   0.745   7.293   0.454  0.4071 -0.0067 -1.0582
   13MOL    O89 6833   0.735   7.156   0.423 -1.0330 -0.1338  0.1895
   13MOL    C90 6834   0.797   7.311   0.595  0.1476  0.8765 -1.0562
   13MOL    C91 6835   0.691   7.311   0.695  0.8026  0.5614 -0.0268
   13MOL    C92 6836   0.746   7.306   0.837 -0.3243  0.3088 -0.1714
   13MOL    O93 6837   0.643   7.297   0.932 -0.0105  0.4651 -0.6529
   13MOL    C94 6838   0.842   7.429   0.867  0.3991  0.2155  1.0813
   13MOL    C95 6839   0.923   7.426   0.998  0.4978 -0.3634  0.2866
   13MOL    C96 6840   0.948   7.436   0.758  0.1554 -0.3790  0.1251
   13MOL    C97 6841   0.885   7.439   0.624 -0.5150 -0.2544  0.4152
   13MOL    H98 6842   0.920   7.334   0.327 -0.6186 -0.5690 -1.7965
   13MOL    H99 6843   0.778   7.334   0.237  0.0598 -0.5284  0.5375
   13MOL   H100 6844   0.647   7.340   0.461  1.0467  1.1643  0.1098
   13MOL   H101 6845   0.815   7.123   0.385 -0.5304  0.8494  0.3667
   13MOL   H102 6846   0.866   7.228   0.611 -0.0095  0.7081 -1.2516
   13MOL   H103 6847   0.632   7.402   0.688 -0.9029 -0.3138  2.2082
   13MOL   H104 6848   0.627   7.224   0.676 -0.7838  1.9922 -1.3971
   13MOL   H105 6849   0.804   7.215   0.849  0.3751  0.8173  0.4160
   13MOL   H106 6850   0.633   7.205   0.954 -2.0398  1.0626  1.1166
   13MOL   H107 6851   0.780   7.518   0.856  0.6133  0.2130 -0.2429
   13MOL   H108 6852   0.850   7.395   1.073  1.8737 -3.4214  0.4555
   13MOL   H109 6853   1.007   7.356   0.990  0.6173 -0.2236  0.3171
   13MOL   H110 6854   1.005   7.344   0.769  0.9799  0.1437  0.1840
   13MOL   H111 6855   1.016   7.520   0.771  1.4905 -1.3866 -0.3548
   13MOL   H112 6856   0.963   7.451   0.550 -1.7633 -0.3745 -0.9450
   13MOL   H113 6857   0.829   7.532   0.625  1.8056  1.1754  2.2614
   13MOL   O114 6858   0.974   7.554   1.034 -0.3411 -0.0071  0.1926
   13MOL   C115 6859   1.057   7.552   1.147 -0.4106 -0.4262 -0.3976
   13MOL   C116 6860   1.134   0.053   1.168 -0.0520  0.1205  0.3142
   13MOL   O117 6861   1.177   0.056   1.304  0.4575 -0.3571 -0.0901
   13MOL   C118 6862   1.249   0.083   1.068 -0.0392  0.1296 -0.9255
   13MOL   C119 6863   1.305   0.225   1.087 -0.7379 -0.3965 -0.1721
   13MOL   C120 6864   1.424   0.254   0.995  0.3065  0.1074  0.5749
   13MOL   O121 6865   1.463   0.383   1.033 -0.2715  1.1404 -0.0495
   13MOL   C122 6866   1.372   0.243   0.847  0.4625  0.0229 -0.3296
   13MOL   C123 6867   1.470   0.278   0.736  0.5743 -0.3273 -0.2709
   13MOL   C124 6868   1.318   0.100   0.824 -0.2247  0.3277  0.1040
   13MOL   C125 6869   1.210   0.062   0.917 -0.7196 -0.0838 -0.3197
   13MOL   H126 6870   1.137   7.479   1.141  0.7385  0.7836  0.0758
   13MOL   H127 6871   0.996   7.527   1.234  0.5268  1.9115  0.9743
   13MOL   H128 6872   1.064   0.137   1.167 -0.5133 -0.2699 -0.1915
   13MOL   H129 6873   1.104   0.049   1.363  0.0833  0.9046 -0.3839
   13MOL   H130 6874   1.326   0.007   1.083 -0.6918 -0.3006  0.2770
   13MOL   H131 6875   1.226   0.298   1.075  1.9918  3.0848  2.0377
   13MOL   H132 6876   1.342   0.244   1.188 -1.0254  0.3627 -0.2096
   13MOL   H133 6877   1.504   0.189   1.031 -0.7247 -1.8937 -0.6168
   13MOL   H134 6878   1.549   0.375   1.072 -0.3894  0.5165  0.0909
   13MOL   H135 6879   1.288   0.313   0.846 -1.5009 -2.2392  0.2611
   13MOL   H136 6880   1.519   0.374   0.755  5.4998 -3.0104  1.5679
   13MOL   H137 6881   1.550   0.204   0.747  0.2180 -0.8637 -1.2419
   13MOL   H138 6882   1.412   0.047   0.842  0.6466  1.7309 -0.2264
   13MOL   H139 6883   1.285   0.074   0.724  0.8896  1.9996 -0.7110
   13MOL   H140 6884   1.194   7.584   0.904 -2.9977  0.2629 -0.4670
   13MOL   H141 6885   1.112   0.103   0.896 -0.7949 -0.4870 -0.7775
   13MOL   O142 6886   1.416   0.259   0.602  0.2822  0.1459  0.0154
   13MOL   C143 6887   1.516   0.263   0.507 -0.3181 -0.1493  0.0723
   13MOL   C144 6888   1.477   0.202   0.372  0.2215  0.0158 -0.0710
   13MOL   O145 6889   1.586   0.205   0.280 -0.0127  0.2408 -0.1378
   13MOL   C146 6890   1.410   0.062   0.387 -0.8919  0.3506 -0.0031
   13MOL   C147 6891   1.498   7.578   0.443  0.3671 -0.6237  0.6975
   13MOL   C148 6892   1.418   7.448   0.466  1.0848  0.0003 -0.0535
   13MOL   O149 6893   1.489   7.344   0.522 -0.6975  0.2388  0.2690
   13MOL   C150 6894   1.350   7.405   0.333 -0.4733  0.2298  0.5820
   13MOL   C151 6895   1.260   7.278   0.352  0.4039  0.3911  0.0116
   13MOL   C152 6896   1.264   7.516   0.281 -0.1394  0.0486 -0.3593
   13MOL   C153 6897   1.355   0.008   0.251 -0.2858 -0.1043 -0.4362
   13MOL   H154 6898   1.607   0.215   0.543  0.9807  1.6462 -0.6991
   13MOL   H155 6899   1.540   0.369   0.497 -2.1370  0.2196 -0.4441
   13MOL   H156 6900   1.394   0.256   0.325 -0.8380 -0.6590  0.9770
   13MOL   H157 6901   1.660   0.176   0.331 -0.0372 -0.6420 -0.5726
   13MOL   H158 6902   1.327   0.072   0.458 -2.1826 -0.5305 -1.3568
   13MOL   H159 6903   1.580   7.542   0.381  0.4246  0.2249  0.2661
   13MOL   H160 6904   1.546   7.614   0.534  1.5913  0.1236 -0.2305
   13MOL   H161 6905   1.344   7.481   0.540  2.9223 -0.5812  2.1094
   13MOL   H162 6906   1.530   7.368   0.604 -0.4911  0.7710  0.0089
   13MOL   H163 6907   1.419   7.386   0.251 -0.3569  0.6093  0.5915
   13MOL   H164 6908   1.328   7.201   0.388 -0.8660 -0.7266  0.0817
   13MOL   H165 6909   1.189   7.300   0.432  0.5483 -0.0183  0.2526
   13MOL   H166 6910   1.184   7.547   0.349  1.1966  0.2124  1.1848
   13MOL   H167 6911   1.224   7.484   0.185  1.3973 -1.7821 -0.4282
   13MOL   H168 6912   1.291   0.076   0.195  0.4249 -1.4760 -2.9809
   13MOL   H169 6913   1.441   7.615   0.188 -0.0236  0.7563 -0.3988
   13MOL   O170 6914   1.199   7.238   0.225 -0.0666  0.4246  0.3773
   13MOL   C171 6915   1.187   7.100   0.207  0.9712 -0.1080  0.9529
   13MOL   C172 6916   1.106   7.031   0.321  0.2836 -1.1031 -0.0069
   13MOL   O173 6917   0.979   7.090   0.299  0.8832 -0.1106 -0.1890
   13MOL   C174 6918   1.089   6.882   0.312 -0.4670  0.3759  0.7368
   13MOL   C175 6919   1.198   6.798   0.371 -0.1834  1.0504 -0.5497
   13MOL   C176 6920   1.180   6.650   0.339 -0.1592  0.2989 -0.7846
   13MOL   O177 6921   1.298   6.583   0.354 -0.4824  0.2310 -0.1697
   13MOL   C178 6922   1.122   6.620   0.199  0.3748  0.1382  0.5396
   13MOL   C179 6923   1.071   6.470   0.185  0.6323  0.0288  0.2810
   13MOL   C180 6924   0.995   6.708   0.169  0.2197  0.6868  0.2216
   13MOL   C181 6925   1.031   6.846   0.174 -0.0279  0.4124 -0.3680
   13MOL   H182 6926   1.286   7.056   0.195  0.4863 -1.3926  1.5997
   13MOL   H183 6927   1.142   7.090   0.108 -1.2779 -0.2962  1.9716
   13MOL   H184 6928   1.149   7.041   0.420 -1.7451 -2.3755  1.0436
   13MOL   H185 6929   0.993   7.141   0.221  1.7286 -0.2336 -0.1228
   13MOL   H186 6930   1.013   6.854   0.385 -1.1497 -0.6495 -0.3612
   13MOL   H187 6931   1.285   6.839   0.320  0.4501  1.2545  0.6991
   13MOL   H188 6932   1.198   6.812   0.479 -4.7928  0.4488 -0.3741
   13MOL   H189 6933   1.113   6.614   0.417 -1.0571 -0.1830 -1.7732
   13MOL   H190 6934   1.365   6.636   0.313  0.4537 -0.9949 -0.2633
   13MOL   H191 6935   1.195   6.631   0.119 -1.3330  0.5163 -1.0098
   13MOL   H192 6936   1.142   6.400   0.229 -1.3205 -1.0542  1.7559
   13MOL   H193 6937   0.975   6.454   0.235  0.1474 -0.9893 -0.9240
   13MOL   H194 6938   0.915   6.695   0.242 -2.2190 -0.7706 -2.6051
   13MOL   H195 6939   0.945   6.698   0.073 -0.5272  2.0412  0.4691
   13MOL   H196 6940   0.944   6.903   0.142  0.1722  0.3040 -1.1237
   13MOL   H197 6941   1.104   6.870   0.096 -2.6031 -1.5426 -3.5582
   13MOL   O198 6942   1.083   6.444   0.045  0.3098 -0.7974 -0.0626
   13MOL   C199 6943   0.955   6.402   7.622 -0.0773  0.1178  0.1537
   13MOL   C200 6944   0.964   6.400   7.470  0.0871 -0.0986  0.0471
   13MOL   O201 6945   0.965   6.541   7.430  0.1069 -0.0291 -0.1016
   13MOL   C202 6946   1.089   6.324   7.420 -0.5510  0.4183  0.1760
   13MOL   C203 6947   1.128   6.356   7.274  0.1120  0.6780  0.7099
   13MOL   C204 6948   1.259   6.282   7.227 -0.4871 -0.6557  0.2955
   13MOL   O205 6949   1.295   6.337   7.102 -0.4507 -0.1396 -0.0029
   13MOL   C206 6950   1.241   6.132   7.238  0.1699 -0.2761  0.5588
   13MOL   C207 6951   1.375   6.066   7.202  0.1731  0.1853  0.0054
   13MOL   C208 6952   1.207   6.104   7.381 -0.5387  0.2482 -0.2106
   13MOL   C209 6953   1.086   6.172   7.434  1.0116  0.6369 -0.5309
   13MOL   H210 6954   0.875   6.473   0.015  0.8966  1.8513 -1.7584
   13MOL   H211 6955   0.928   6.303   0.029  2.9053 -1.4681 -1.7734
   13MOL   H212 6956   0.875   6.353   7.428  0.6927 -0.8159 -0.4325
   13MOL   H213 6957   1.031   6.586   7.481  0.2503 -0.8761  0.4696
   13MOL   H214 6958   1.171   6.355   7.485  0.7033 -0.8896 -0.7580
   13MOL   H215 6959   1.049   6.342   7.200  0.6738 -3.5649  0.7976
   13MOL   H216 6960   1.160   6.460   7.275  1.5096  0.2559 -0.2256
   13MOL   H217 6961   1.341   6.317   7.288  0.5218  0.4872 -1.6645
   13MOL   H218 6962   1.225   6.359   7.043  1.7728  1.6026 -2.0886
   13MOL   H219 6963   1.164   6.102   7.167 -0.2695  1.1599  0.4110
   13MOL   H220 6964   1.429   6.129   7.131  2.7481  0.1970  1.8926
   13MOL   H221 6965   1.434   6.047   7.291  0.4326 -0.3786 -0.2840
   13MOL   H222 6966   1.292   6.132   7.443  0.2315  2.3275 -2.1742
   13MOL   H223 6967   1.184   5.998   7.391 -0.7601  0.1343 -1.7908
   13MOL   H224 6968   1.063   6.158   7.540 -0.2757  0.3710 -0.8295
   13MOL   H225 6969   0.996   6.149   7.376  1.0393 -1.3594  0.1868
   13MOL   O226 6970   1.343   5.943   7.138 -0.1600  0.0042 -0.5957
   13MOL   C227 6971   1.461   5.863   7.127  0.6762 -0.3373  0.0894
   13MOL   C228 6972   1.489   5.783   7.258 -0.3052  0.6381 -0.3415
   13MOL   O229 6973   1.388   5.683   7.264  0.4445 -0.6411  0.1697
   13MOL   C230 6974   1.623   5.715   7.261  0.5355  0.0120 -0.2159
   13MOL   C231 6975   1.652   5.618   7.140  0.3664 -0.4943 -1.0606
   13MOL   C232 6976   1.806   5.581   7.145  0.6921  0.2858  0.4109
   13MOL   O233 6977   1.816   5.501   7.032 -0.2170 -0.4635  0.0733
   13MOL   C234 6978   1.828   5.505   7.279  0.3396 -0.6832 -0.3801
   13MOL   C235 6979   1.970   5.446   7.288  0.2148 -0.1982  0.7823
   13MOL   C236 6980   1.796   5.594   7.402  0.2531 -0.2452 -0.1712
   13MOL   C237 6981   1.651   5.635   7.398 -0.3676 -0.1564 -0.4159
   13MOL   H238 6982   1.554   5.911   7.098  0.7069  0.2471  1.1525
   13MOL   H239 6983   1.451   5.795   7.042  1.0455 -0.5999  0.2539
   13MOL   H240 6984   1.489   5.837   7.353 -3.6920  0.5552 -0.2190
   13MOL   H241 6985   1.303   5.723   7.277  0.7709  0.8001 -1.8910
   13MOL   H242 6986   1.689   5.801   7.248  0.0270  0.3492 -0.5379
   13MOL   H243 6987   1.587   5.530   7.143 -0.1068 -0.0944  1.0425
   13MOL   H244 6988   1.631   5.671   7.047 -1.5646 -2.1669 -1.6211
   13MOL   H245 6989   1.866   5.671   7.136 -0.7550  1.1533 -0.6370
   13MOL   H246 6990   1.757   5.427   7.031 -0.8939  0.0640 -1.8494
   13MOL   H247 6991   1.751   5.429   7.291  0.4069 -0.6344  0.3805
   13MOL   H248 6992   1.980   5.374   7.369 -1.3445 -0.7849  0.4734
   13MOL   H249 6993   1.989   5.391   7.195 -2.4056  1.3346 -0.7357
   13MOL   H250 6994   1.855   5.686   7.395 -0.7374  0.3666 -0.6108
   13MOL   H251 6995   1.813   5.543   7.496 -0.1306  0.7891  0.4736
   13MOL   H252 6996   1.630   5.698   7.484 -1.6502  0.3812 -1.1125
   13MOL   H253 6997   1.590   5.548   7.419 -2.6882  0.9465 -2.3344
   13MOL   O254 6998   2.067   5.544   7.288  0.7490 -0.3883 -0.1760
   13MOL   C255 6999   2.198   5.513   7.328  0.1269  0.3148  0.1737
   13MOL   C256 7000   2.238   5.633   7.408 -0.2625  0.5669 -0.7367
   13MOL   O257 7001   2.228   5.723   7.300  0.1807  0.3477  0.0901
   13MOL   C258 7002   2.144   5.659   7.531  0.2228 -0.6024 -0.2214
   13MOL   C259 7003   2.144   5.811   7.558  0.2922  0.8779 -0.1578
   13MOL   C260 7004   2.059   5.839   0.051  0.2929 -0.4986  0.2901
   13MOL   O261 7005   2.080   5.979   0.078  0.1216  0.0264  0.0644
   13MOL   C262 7006   2.106   5.755   0.176  0.1949  0.2177 -0.3468
   13MOL   C263 7007   2.005   5.780   0.292  0.3830  0.1347 -0.5843
   13MOL   C264 7008   2.102   5.604   0.142 -0.3895  0.1835  0.3454
   13MOL   C265 7009   2.186   5.576   0.022 -0.2389  0.6522  0.7148
   13MOL   H266 7010   2.257   5.496   7.237  0.6459  1.0107  0.3674
   13MOL   H267 7011   2.209   5.420   7.383 -0.8956 -0.7125 -1.3282
   13MOL   H268 7012   2.339   5.618   7.447 -1.0446  1.3133  1.6465
   13MOL   H269 7013   2.158   5.685   7.250 -0.2308 -2.5389  2.7309
   13MOL   H270 7014   2.047   5.625   7.495  0.2581  0.7937 -1.6703
   13MOL   H271 7015   2.248   5.837   7.576  0.1530  0.3389  1.5036
   13MOL   H272 7016   2.109   5.869   7.473  1.1133  1.4940 -0.0813
   13MOL   H273 7017   1.954   5.822   0.027  0.6326 -0.7872 -1.0424
   13MOL   H274 7018   2.140   6.025   0.022  0.6664  0.5721  1.0746
   13MOL   H275 7019   2.208   5.780   0.204  1.2335 -2.2973 -1.6124
   13MOL   H276 7020   1.995   5.887   0.310  0.7653  0.5139 -2.5288
   13MOL   H277 7021   1.899   5.758   0.277 -0.1083 -0.8912  3.5343
   13MOL   H278 7022   1.997   5.580   0.126 -0.4984  1.4190 -0.8438
   13MOL   H279 7023   2.135   5.547   0.229  0.8775 -1.5602 -1.2243
   13MOL   H280 7024   2.173   5.472   7.620 -2.2796  0.5874  1.6998
   13MOL   H281 7025   2.291   5.599   0.038 -0.0277  0.9147 -0.9462
   13MOL   O282 7026   2.055   5.733   0.415  0.3789  0.1040  0.0579
   13MOL   C283 7027   1.957   5.734   0.520 -0.9763 -0.3916  0.3198
   13MOL   C284 7028   2.031   5.749   0.658 -0.3843 -0.2606  0.0832
   13MOL   O285 7029   2.034   5.884   0.690 -0.0024 -0.0119  0.0889
   13MOL   C286 7030   1.960   5.666   0.772  0.1407  0.8216  0.3655
   13MOL   C287 7031   1.811   5.709   0.801  1.1494  0.0027  0.0275
   13MOL   C288 7032   1.746   5.618   0.915  0.4039 -0.4759 -0.7216
   13MOL   O289 7033   1.624   5.681   0.960 -0.2604  0.3182 -0.5542
   13MOL   C290 7034   1.840   5.593   1.040  0.6824  0.7441  0.4465
   13MOL   C291 7035   1.791   5.479   1.143 -0.2181 -0.5299  0.3993
   13MOL   C292 7036   1.983   5.551   0.999  0.3390 -0.5727 -0.0581
   13MOL   C293 7037   2.046   5.649   0.897  0.6248 -0.9562  0.2693
   13MOL   H294 7038   1.892   5.646   0.512  0.0107 -1.0498 -0.6367
   13MOL   H295 7039   1.890   5.818   0.504  1.7256  1.5674 -0.9394
   13MOL   H296 7040   2.134   5.716   0.643 -0.5583 -1.3257  1.1882
   13MOL   H297 7041   2.023   5.936   0.613 -0.4231  0.7901  0.6865
   13MOL   H298 7042   1.961   5.568   0.723  2.3069 -0.5058  2.9333
   13MOL   H299 7043   1.819   5.813   0.833  0.1412  0.0064  0.3112
   13MOL   H300 7044   1.736   5.702   0.722  0.5798 -0.6098  0.6081
   13MOL   H301 7045   1.740   5.517   0.875 -0.6899  0.3530 -2.7232
   13MOL   H302 7046   1.593   5.632   1.034 -0.2057 -0.2920 -0.9335
   13MOL   H303 7047   1.841   5.685   1.098  0.6663  1.0184  0.0068
   13MOL   H304 7048   1.754   5.389   1.093 -0.6666  0.4843 -1.1528
   13MOL   H305 7049   1.869   5.454   1.214  1.0536  1.8576 -0.0919
   13MOL   H306 7050   1.978   5.456   0.944 -0.2360 -0.2941 -0.4958
   13MOL   H307 7051   2.051   5.535   1.082  1.3669  2.0767 -0.3567
   13MOL   H308 7052   2.146   5.626   0.860  1.0566  2.0139 -0.4751
   13MOL   H309 7053   2.050   5.747   0.943  1.7629  0.7389 -3.3087
   13MOL   O310 7054   1.687   5.540   1.216  0.2202  0.4313  0.3288
   13MOL   C311 7055   1.720   5.548   1.358 -0.3214 -0.4814 -0.5073
   13MOL   C312 7056   1.627   5.655   1.422  0.0804  0.2838 -0.6548
   13MOL   O313 7057   1.498   5.607   1.411  0.6636 -0.1561  0.4789
   13MOL   C314 7058   1.665   5.698   1.567  0.7394  0.2604 -0.1150
   13MOL   C315 7059   1.635   5.586   1.667 -0.1493 -0.6014  0.2325
   13MOL   C316 7060   1.685   5.628   1.805  0.2398 -0.1569  0.6850
   13MOL   O317 7061   1.650   5.524   1.890  0.0737  0.1417 -0.5669
   13MOL   C318 7062   1.638   5.759   1.857  0.3725 -0.2910  0.1244
   13MOL   C319 7063   1.688   5.799   1.995 -0.1341  0.1067  0.5368
   13MOL   C320 7064   1.655   5.878   1.756 -1.7741  0.0110 -0.2838
   13MOL   C321 7065   1.619   5.843   1.609  0.2064  0.8425 -0.3448
   13MOL   H322 7066   1.823   5.582   1.370  0.7107 -3.1341 -1.4038
   13MOL   H323 7067   1.700   5.447   1.391 -0.2700 -0.4964 -0.5235
   13MOL   H324 7068   1.630   5.729   1.341 -1.4650  0.2883 -0.7347
   13MOL   H325 7069   1.500   5.552   1.334  2.6736  0.4895  0.0279
   13MOL   H326 7070   1.773   5.710   1.565  0.7472  0.2511  0.1569
   13MOL   H327 7071   1.531   5.552   1.671 -0.9295  1.8270  1.6555
   13MOL   H328 7072   1.698   5.503   1.635  0.2694 -0.1589 -0.0882
   13MOL   H329 7073   1.793   5.631   1.789  0.0333 -2.9923 -1.8024
   13MOL   H330 7074   1.564   5.533   1.929  0.5624  0.5262  0.4136
   13MOL   H331 7075   1.532   5.747   1.876  0.6360 -0.5664  1.4361
   13MOL   H332 7076   1.644   5.895   2.020 -1.8498 -1.0437  2.0382
   13MOL   H333 7077   1.656   5.735   2.077  0.1374 -0.8746 -0.1128
   13MOL   H334 7078   1.761   5.905   1.764 -1.5876 -0.9309  0.4512
   13MOL   H335 7079   1.604   5.970   1.783  0.4297  0.7419  1.5726
   13MOL   H336 7080   1.684   5.908   1.550  4.3445 -0.5346  2.4656
   13MOL   H337 7081   1.516   5.848   1.574  0.5064  1.0507 -1.2124
   13MOL   O338 7082   1.834   5.795   1.994 -0.2939  0.0922 -0.2017
   13MOL   C339 7083   1.886   5.897   2.076  0.6724 -0.2023 -0.2152
   13MOL   C340 7084   2.034   5.869   2.113 -0.2703  0.0614  0.3537
   13MOL   O341 7085   2.078   5.978   2.189  0.5478 -0.1605  0.5840
   13MOL   C342 7086   2.075   5.725   2.163 -0.2337  0.1874 -0.4660
   13MOL   C343 7087   1.988   5.687   2.286  0.0731  0.0255 -0.2356
   13MOL   C344 7088   2.010   5.547   2.324 -0.0642  0.4529 -0.1029
   13MOL   O345 7089   1.946   5.519   2.444 -0.4415 -0.6243  0.5422
   13MOL   C346 7090   2.162   5.522   2.348  0.1393 -0.0252 -0.4212
   13MOL   C347 7091   2.195   5.373   2.380  0.5986  0.1290  0.2197
   13MOL   C348 7092   2.257   5.576   2.228 -0.2216 -0.0448  0.2951
   13MOL   C349 7093   2.224   5.709   2.178  0.3500 -0.2079  0.3612
   13MOL   H350 7094   1.822   5.889   2.164  1.0956 -0.1079  0.1006
   13MOL   H351 7095   1.870   6.001   2.048  0.6359  0.7510  3.1471
   13MOL   H352 7096   2.094   5.882   2.023 -1.4444 -2.0417 -0.7720
   13MOL   H353 7097   2.038   5.971   2.275  2.2417 -0.6308  1.3593
   13MOL   H354 7098   2.037   5.662   2.083  0.3534  0.8183 -1.2596
   13MOL   H355 7099   2.022   5.750   2.368  2.1746  2.0429 -2.5749
   13MOL   H356 7100   1.881   5.691   2.266  0.0321  1.2778  0.1674
   13MOL   H357 7101   1.967   5.480   2.250 -1.8318  1.7416 -0.2800
   13MOL   H358 7102   1.990   5.443   2.480 -1.5341 -0.0912  3.1704
   13MOL   H359 7103   2.184   5.580   2.437 -0.8150 -2.0994  1.2044
   13MOL   H360 7104   2.163   5.313   2.294 -1.5830  0.9167  0.4397
   13MOL   H361 7105   2.300   5.353   2.399  0.7324  0.8728  0.2645
   13MOL   H362 7106   2.239   5.510   2.143 -1.0398 -0.3099  0.6664
   13MOL   H363 7107   2.364   5.581   2.244  0.1249  1.0475 -2.0711
   13MOL   H364 7108   2.282   5.735   2.090  2.0874  1.8312  2.0513
   13MOL   H365 7109   2.249   5.789   2.248  2.5408 -2.0473  1.7597
   13MOL   O366 7110   2.127   5.321   2.490 -0.1330 -0.3093 -0.2923
   13MOL   C367 7111   2.185   5.348   2.618 -0.4984 -0.5198  0.3825
   13MOL   C368 7112   2.119   5.271   2.733 -0.2302 -0.3037  0.0383
   13MOL   O369 7113   2.165   5.143   2.702  0.4235 -0.3181  0.6768
   13MOL   C370 7114   2.175   5.305   2.873 -0.0726 -1.0592  0.6884
   13MOL   C371 7115   2.111   5.202   2.973 -0.0449 -0.2024  0.4290
   13MOL   C372 7116   2.152   5.215   3.116  0.2556 -0.4370 -0.6591
   13MOL   O373 7117   2.073   5.123   3.188 -0.2698  0.2021  0.1766
   13MOL   C374 7118   2.117   5.369   3.155 -0.4435  0.0189  0.0868
   13MOL   C375 7119   2.166   5.402   3.303  0.3713 -0.1967  0.2959
   13MOL   C376 7120   2.177   5.472   3.058 -0.1904  0.5014  0.2466
   13MOL   C377 7121   2.142   5.444   2.919  0.3724  0.1058  0.0177
   13MOL   H378 7122   2.175   5.455   2.637 -2.3422 -0.7854  1.0242
   13MOL   H379 7123   2.291   5.325   2.615 -0.4137  0.0998 -3.8386
   13MOL   H380 7124   2.010   5.280   2.740 -0.2404 -1.9899  2.6563
   13MOL   H381 7125   2.157   5.125   2.609  1.5751  1.4670  0.2238
   13MOL   H382 7126   2.282   5.283   2.871 -0.4172 -2.8789  1.7610
   13MOL   H383 7127   2.003   5.199   2.962  0.0042 -0.1990 -0.0578
   13MOL   H384 7128   2.146   5.100   2.956 -1.5844 -0.4951 -1.1034
   13MOL   H385 7129   2.256   5.186   3.125 -0.0075 -1.2048 -0.0531
   13MOL   H386 7130   1.987   5.156   3.210 -0.6399 -0.9413  0.5060
   13MOL   H387 7131   2.009   5.383   3.153 -0.3510  1.4241  2.4759
   13MOL   H388 7132   2.169   5.307   3.358  0.3688  0.7610  2.0058
   13MOL   H389 7133   2.270   5.433   3.295 -0.0726  1.0781 -0.6707
   13MOL   H390 7134   2.284   5.486   3.069 -0.2428 -0.2359  1.7729
   13MOL   H391 7135   2.144   5.574   3.080 -0.1602  0.0207  2.6586
   13MOL   H392 7136   2.186   5.525   2.859  1.4816 -1.0855 -0.7946
   13MOL   H393 7137   2.035   5.456   2.908  0.4081  0.5077  0.0827
   13MOL   O394 7138   2.106   5.518   3.358  0.1522 -0.5429  0.4471
   13MOL   C395 7139   1.973   5.500   3.414  0.0881 -0.4250  0.1060
   13MOL   C396 7140   1.885   5.625   3.420  0.3644  0.1814 -0.3964
   13MOL   O397 7141   1.958   5.722   3.486  0.3173 -0.0409  0.2250
   13MOL   C398 7142   1.829   5.675   3.285 -0.1343 -0.1297  0.3552
   13MOL   C399 7143   1.799   5.824   3.280 -0.3219  0.0962 -0.6265
   13MOL   C400 7144   1.741   5.870   3.149 -1.1006 -0.1669  0.4610
   13MOL   O401 7145   1.715   6.012   3.144 -0.3308 -0.4954  0.5155
   13MOL   C402 7146   1.613   5.789   3.124 -0.0019 -0.1974  0.6960
   13MOL   C403 7147   1.542   5.840   2.997  0.0164  0.3676  0.1106
   13MOL   C404 7148   1.641   5.640   3.107 -0.4393  0.1553 -0.1139
   13MOL   C405 7149   1.708   5.592   3.238 -0.7138  0.6180 -0.5489
   13MOL   H406 7150   1.981   5.453   3.511 -0.8623 -2.1260 -0.6244
   13MOL   H407 7151   1.913   5.423   3.366 -1.1007  0.0645  0.7767
   13MOL   H408 7152   1.805   5.598   3.489 -2.1042  0.8850 -2.8999
   13MOL   H409 7153   2.043   5.713   3.447  1.0159  0.2263  1.6680
   13MOL   H410 7154   1.902   5.660   3.206 -1.4727 -1.3205 -0.6970
   13MOL   H411 7155   1.731   5.860   3.357  4.0057  1.4790  2.7533
   13MOL   H412 7156   1.887   5.883   3.302 -0.9673  0.7111  0.3660
   13MOL   H413 7157   1.817   5.850   3.073  1.6336  2.5905  2.3165
   13MOL   H414 7158   1.791   6.061   3.170 -1.0191  0.6716  0.3843
   13MOL   H415 7159   1.560   5.806   3.217 -0.6552  0.1335  0.2667
   13MOL   H416 7160   1.558   5.946   2.978 -1.8393  0.8258  1.0390
   13MOL   H417 7161   1.588   5.793   2.911 -1.4144 -2.6806  0.9530
   13MOL   H418 7162   1.702   5.629   3.017 -2.1945 -0.6320 -1.2396
   13MOL   H419 7163   1.547   5.588   3.088 -0.5177 -0.1765  1.1479
   13MOL   H420 7164   1.736   5.487   3.235 -1.1484  0.5039 -0.6827
   13MOL   H421 7165   1.626   5.596   3.311  0.1085 -0.6907  0.4525
   13MOL   O422 7166   1.404   5.806   3.005 -0.1783 -0.1082 -0.8339
   13MOL   C423 7167   1.351   5.760   2.884  0.4863 -0.4208  0.2871
   13MOL   C424 7168   1.199   5.780   2.885  0.0145 -0.2073 -0.7114
   13MOL   O425 7169   1.155   5.675   2.969  0.6999  0.5895  0.3809
   13MOL   C426 7170   1.146   5.920   2.929 -0.0071  0.3298  0.2242
   13MOL   C427 7171   0.990   5.937   2.931 -0.7371 -0.0659 -0.4595
   13MOL   C428 7172   0.947   6.083   2.974 -0.0056 -0.4552 -0.0833
   13MOL   O429 7173   0.805   6.095   2.946 -0.1135 -0.1051  0.7631
   13MOL   C430 7174   1.018   6.197   2.906  0.4797  0.4891  0.0014
   13MOL   C431 7175   0.986   6.340   2.966  0.4170  0.8900  0.3222
   13MOL   C432 7176   1.171   6.176   2.904 -0.1305 -0.3597  0.1932
   13MOL   C433 7177   1.210   6.039   2.847 -0.4619 -0.4071 -0.1753
   13MOL   H434 7178   1.378   5.657   2.860 -0.8012 -0.7898  0.3851
   13MOL   H435 7179   1.401   5.818   2.806  1.1830 -2.0802 -0.5195
   13MOL   H436 7180   1.161   5.751   2.787  0.1343 -1.9650 -0.2549
   13MOL   H437 7181   1.221   5.667   3.036 -0.1424 -1.7802  0.9803
   13MOL   H438 7182   1.189   5.929   3.029 -0.6021 -1.8701  0.6880
   13MOL   H439 7183   0.954   5.919   2.830 -0.8562  0.4870 -0.5191
   13MOL   H440 7184   0.950   5.859   2.996  0.0695 -0.0685  0.0421
   13MOL   H441 7185   0.966   6.094   3.081  3.1552  0.4654 -0.6893
   13MOL   H442 7186   0.771   6.175   2.983  0.1116  0.9133 -1.1780
   13MOL   H443 7187   0.986   6.190   2.802 -0.8496  2.7191  0.2360
   13MOL   H444 7188   1.012   6.336   3.072  0.6370  1.5448  0.2963
   13MOL   H445 7189   1.044   6.409   2.906  1.3169  1.0622  1.3768
   13MOL   H446 7190   1.206   6.188   3.006 -0.6906 -0.9039  0.4576
   13MOL   H447 7191   1.222   6.256   2.850  1.6990  0.8334  3.5271
   13MOL   H448 7192   1.318   6.029   2.840 -0.6620 -1.8446 -1.3863
   13MOL   H449 7193   1.164   6.030   2.749 -0.4122  2.1953 -0.4744
   13MOL   O450 7194   0.850   6.374   2.977 -0.2357 -0.0449 -0.5406
   13MOL   C451 7195   0.770   6.406   2.859  0.7347  0.0346 -0.8696
   13MOL   C452 7196   0.625   6.380   2.904  0.0760  0.2378 -0.3490
   13MOL   O453 7197   0.608   6.449   3.022 -0.0622 -0.5659  0.0378
   13MOL   C454 7198   0.516   6.437   2.810  0.0028  0.4622  0.4837
   13MOL   C455 7199   0.373   6.447   2.862 -0.5696 -0.7021 -1.0947
   13MOL   C456 7200   0.272   6.505   2.758 -0.3829 -0.0509 -0.5912
   13MOL   O457 7201   0.140   6.504   2.824  0.7950  0.1153  0.1586
   13MOL   C458 7202   0.265   6.416   2.642 -0.0372 -0.0431  0.7763
   13MOL   C459 7203   0.168   6.475   2.537 -0.1061 -0.0224 -0.6058
   13MOL   C460 7204   0.409   6.402   2.582 -0.1296 -0.8718  0.5325
   13MOL   C461 7205   0.521   6.363   2.680  0.4811  0.6304 -0.2765
   13MOL   H462 7206   0.805   6.346   2.775  0.8167 -0.7855 -0.2528
   13MOL   H463 7207   0.797   6.508   2.832 -1.1305  0.8484  0.2447
   13MOL   H464 7208   0.599   6.274   2.910 -1.6553  0.7313  1.4675
   13MOL   H465 7209   0.676   6.425   3.084 -0.4039 -0.8262  0.3140
   13MOL   H466 7210   0.539   6.541   2.789 -3.4303  1.0220 -0.8021
   13MOL   H467 7211   0.338   6.348   2.891  2.2511 -1.1293  1.0155
   13MOL   H468 7212   0.387   6.512   2.948  1.1247 -1.8361 -0.4966
   13MOL   H469 7213   0.302   6.607   2.734 -1.8023  0.2627 -1.1038
   13MOL   H470 7214   0.131   6.416   2.859 -0.3575 -0.6184 -1.8899
   13MOL   H471 7215   0.234   6.318   2.678 -1.6057  0.1770  0.0533
   13MOL   H472 7216   0.144   6.382   2.486 -0.8801 -2.1575  3.4113
   13MOL   H473 7217   0.078   6.523   2.576 -0.0788  0.7644 -1.4919
   13MOL   H474 7218   0.439   6.500   2.545  0.2580 -0.8850  0.8179
   13MOL   H475 7219   0.415   6.327   2.503 -0.9883 -1.5976  1.1444
   13MOL   H476 7220   0.615   6.381   2.629  0.7257  1.3507  0.4136
   13MOL   H477 7221   0.513   6.257   2.702 -0.7894  0.7317 -0.1926
   13MOL   O478 7222   0.234   6.568   2.465  0.2503  0.3325  0.4300
   13MOL   C479 7223   0.169   6.600   2.337  0.4291 -0.1222  0.1660
   13MOL   C480 7224   0.273   6.640   2.230 -0.5379 -0.9861 -0.0497
   13MOL   O481 7225   0.306   6.775   2.267  0.2516  0.0067  0.4316
   13MOL   C482 7226   0.395   6.556   2.227 -0.0237  0.4643  0.1250
   13MOL   C483 7227   0.494   6.614   2.121  0.2425  0.0234  0.1320
   13MOL   C484 7228   0.619   6.526   2.098  0.6761  0.2035 -0.5638
   13MOL   O485 7229   0.693   6.571   1.992  0.4641  0.0952 -0.2537
   13MOL   C486 7230   0.578   6.387   2.064 -0.4430  0.0228  0.2904
   13MOL   C487 7231   0.701   6.293   2.039 -0.5851  0.1679 -0.1346
   13MOL   C488 7232   0.492   6.331   2.175  0.2312  0.3202  1.0527
   13MOL   C489 7233   0.365   6.412   2.191  0.4905  0.3007 -0.0985
   13MOL   H490 7234   0.092   6.675   2.357 -0.1067 -0.7362  0.4204
   13MOL   H491 7235   0.116   6.513   2.298  3.1112 -0.6476 -2.4634
   13MOL   H492 7236   0.226   6.634   2.132  2.7206 -1.7957 -1.6657
   13MOL   H493 7237   0.326   6.770   2.359  0.6734  1.7447  0.4393
   13MOL   H494 7238   0.441   6.563   2.326  1.2996 -2.6959 -0.1930
   13MOL   H495 7239   0.434   6.632   2.033 -0.3769 -1.0823  0.3230
   13MOL   H496 7240   0.532   6.708   2.163  0.4561 -0.3757  0.8486
   13MOL   H497 7241   0.687   6.529   2.183 -1.8205 -0.2071  1.5159
   13MOL   H498 7242   0.784   6.568   2.018  0.0574  0.6750  1.2870
   13MOL   H499 7243   0.528   6.391   1.967  2.6631  0.5619 -1.3491
   13MOL   H500 7244   0.774   6.333   1.968 -0.3763 -0.4275 -0.2580
   13MOL   H501 7245   0.756   6.286   2.133  1.5231 -1.4905 -1.4326
   13MOL   H502 7246   0.561   6.323   2.259  1.7241 -3.0910 -0.3904
   13MOL   H503 7247   0.481   6.224   2.160  0.3463  0.5123 -0.4924
   13MOL   H504 7248   0.305   6.363   2.268  0.1457 -1.9056 -1.7166
   13MOL   H505 7249   0.310   6.400   2.098 -1.3836  0.2128  0.9961
   13MOL   O506 7250   0.659   6.166   1.989 -0.7927  0.0162  0.0172
   13MOL   C507 7251   0.749   6.065   2.041  0.6223  0.4096  0.4655
   13MOL   C508 7252   0.695   5.929   1.987  0.5962  0.0322  0.3798
   13MOL   O509 7253   0.685   5.936   1.844  0.1168 -0.3300  0.3049
   13MOL   C510 7254   0.785   5.814   2.028  0.6507  0.5907  0.0524
   13MOL   C511 7255   0.745   5.678   1.960  0.3890 -0.4413 -0.2094
   13MOL   C512 7256   0.856   5.577   1.982 -0.4664 -0.6265 -0.4043
   13MOL   O513 7257   0.837   5.450   1.917  0.0928 -0.3914 -0.4883
   13MOL   C514 7258   0.880   5.557   2.136 -0.5718  0.7342 -0.1751
   13MOL   C515 7259   0.994   5.460   2.152 -0.7425  0.3482 -0.4495
   13MOL   C516 7260   0.915   5.701   2.198  0.0568  0.4025  0.0463
   13MOL   C517 7261   0.801   5.798   2.180 -0.7247  0.7453  0.4301
   13MOL   H518 7262   0.745   6.070   2.150 -0.9109  1.7068  0.3592
   13MOL   H519 7263   0.850   6.088   2.007  0.6693  0.3485  0.5644
   13MOL   H520 7264   0.592   5.907   2.016  1.0807 -3.1931 -0.2482
   13MOL   H521 7265   0.621   6.005   1.831 -1.3860 -2.0582 -1.7371
   13MOL   H522 7266   0.888   5.845   2.008  0.7240  1.2062  1.3135
   13MOL   H523 7267   0.650   5.636   1.993 -0.4832 -0.7888 -2.9997
   13MOL   H524 7268   0.729   5.683   1.852 -1.1512 -1.1248 -0.0225
   13MOL   H525 7269   0.947   5.604   1.929  0.8299 -0.5471  1.8078
   13MOL   H526 7270   0.841   5.459   1.823  1.1020 -1.7292 -0.5912
   13MOL   H527 7271   0.788   5.508   2.167 -1.6331  2.0852 -1.1191
   13MOL   H528 7272   0.965   5.363   2.112  0.1076  0.1376 -0.5651
   13MOL   H529 7273   1.085   5.492   2.102 -0.3966  1.0319  0.5881
   13MOL   H530 7274   0.999   5.735   2.138  0.4744 -0.1332  0.3217
   13MOL   H531 7275   0.947   5.700   2.303  0.3562  1.4382 -0.0286
   13MOL   H532 7276   0.823   5.897   2.220 -0.7397  0.4076  1.2759
   13MOL   H533 7277   0.707   5.763   2.222 -0.4721  2.1403  2.2009
   13MOL   O534 7278   1.027   5.433   2.289 -0.3975 -0.2804  0.2690
   13MOL   C535 7279   0.965   5.313   2.331  0.0978 -0.8204 -0.2471
   13MOL   C536 7280   1.046   5.186   2.303  0.2647 -0.5527 -0.5208
   13MOL   O537 7281   1.175   5.232   2.350  0.0066 -0.0426  0.1403
   13MOL   C538 7282   0.998   5.063   2.380 -0.4028  0.0047  0.3597
   13MOL   C539 7283   1.103   4.951   2.362  0.3209  0.6654  0.1581
   13MOL   C540 7284   1.053   4.817   2.431 -0.2610 -0.7076  0.0776
   13MOL   O541 7285   1.160   4.724   2.428 -0.1735 -0.0695 -0.5133
   13MOL   C542 7286   0.909   4.765   2.387  0.4398 -0.7851  0.2220
   13MOL   C543 7287   0.860   4.644   2.466  0.4852 -0.3540  1.1039
   13MOL   C544 7288   0.810   4.887   2.398 -0.3776 -0.2323  0.2610
   13MOL   C545 7289   0.858   5.013   2.330  0.1117  0.1099  0.4152
   13MOL   H546 7290   0.863   5.311   2.292  0.1610  0.7248 -0.5344
   13MOL   H547 7291   0.963   5.323   2.439  0.6651 -1.3255 -0.1879
   13MOL   H548 7292   1.062   5.154   2.200  2.0986 -2.1720  0.2242
   13MOL   H549 7293   1.156   5.324   2.361  0.8664  0.1320  0.1376
   13MOL   H550 7294   0.978   5.095   2.483 -1.1729  4.2430 -1.0122
   13MOL   H551 7295   1.129   4.926   2.259 -1.0866 -0.4758  0.0632
   13MOL   H552 7296   1.199   4.985   2.402  0.5649  1.0647 -0.7504
   13MOL   H553 7297   1.058   4.829   2.539 -0.2985 -0.7736  0.0868
   13MOL   H554 7298   1.240   4.773   2.438 -1.3935  2.3118 -1.6668
   13MOL   H555 7299   0.912   4.746   2.280  3.9036 -3.5044  0.7296
   13MOL   H556 7300   0.780   4.591   2.414  0.5774 -0.5937  1.2083
   13MOL   H557 7301   0.945   4.578   2.482  1.1421 -0.2593 -1.7049
   13MOL   H558 7302   0.794   4.907   2.504 -0.5632 -1.7605  0.5361
   13MOL   H559 7303   0.713   4.859   2.359 -1.7125  1.9453  1.9164
   13MOL   H560 7304   0.779   5.087   2.349 -0.2610  0.4419 -2.1815
   13MOL   H561 7305   0.854   4.995   2.222  2.0074  4.1437 -0.4169
   13MOL   H562 7306   0.816   4.670   2.562  1.5696  1.1171  1.2224
   14MOL     O1 7307   3.643   3.610   7.592 -0.2013  0.2571  0.4404
   14MOL     C2 7308   3.721   3.570   0.073 -0.1117  0.2584 -0.0168
   14MOL     C3 7309   3.857   3.617   0.049 -0.0259 -0.3598  0.2734
   14MOL     O4 7310   3.853   3.762   0.025  0.2523 -0.0123  0.3124
   14MOL     C5 7311   3.954   3.580   0.172  0.2039 -0.0434  0.9749
   14MOL     C6 7312   4.086   3.640   0.149 -0.0503 -0.3690 -0.1306
   14MOL     C7 7313   4.206   3.604   0.240 -0.0242  0.1163 -0.4597
   14MOL     O8 7314   4.323   3.650   0.181  0.8678 -0.6778 -0.0383
   14MOL     C9 7315   4.213   3.456   0.246  0.4710  0.3077 -0.3039
   14MOL    C10 7316   4.313   3.416   0.357  0.0621 -0.0527  0.1979
   14MOL    C11 7317   4.078   3.396   0.292  0.2741 -0.0337 -0.3409
   14MOL    C12 7318   3.971   3.428   0.188  0.5661  0.0599  0.1773
   14MOL    H13 7319   3.730   3.462   0.084  0.3474  0.1575 -1.2174
   14MOL    H14 7320   3.680   3.615   0.163  0.1677  0.2972  0.0902
   14MOL    H15 7321   3.889   3.570   7.586 -1.1416 -1.3649  0.3916
   14MOL    H16 7322   3.774   3.767   7.603 -1.2324  2.5292  2.6763
   14MOL    H17 7323   3.909   3.617   0.264 -3.2945  2.9676 -1.8336
   14MOL    H18 7324   4.118   3.609   0.050 -0.5284 -2.4558  0.3356
   14MOL    H19 7325   4.071   3.748   0.140 -1.1684 -0.4907  0.1650
   14MOL    H20 7326   4.179   3.652   0.334  0.6653 -0.8435  0.2344
   14MOL    H21 7327   4.391   3.620   0.239  0.4535  0.0636  0.8555
   14MOL    H22 7328   4.241   3.408   0.153  0.3617  0.2548 -0.3101
   14MOL    H23 7329   4.259   3.413   0.451 -0.1355  0.8016  0.1133
   14MOL    H24 7330   4.345   3.314   0.335  3.4698  1.1194 -0.6241
   14MOL    H25 7331   4.039   3.434   0.387 -0.6032 -3.8513  0.9010
   14MOL    H26 7332   4.095   3.289   0.301  1.9447  0.1940 -0.5289
   14MOL    H27 7333   3.884   3.371   0.222  0.4691 -0.2338 -0.5526
   14MOL    H28 7334   3.999   3.385   0.092  0.0100  1.8152 -0.7879
   14MOL    H29 7335   3.554   3.578   7.597 -0.6114  1.1389 -0.8992
   14MOL    O30 7336   4.428   3.496   0.371  0.1897  0.0556  0.5495
   14MOL    C31 7337   4.499   3.462   0.489  0.6825 -0.3193 -0.4365
   14MOL    C32 7338   4.635   3.539   0.488  0.4671 -0.3142 -0.5523
   14MOL    O33 7339   4.722   3.503   0.392 -0.2109  0.8118  0.2492
   14MOL    C34 7340   4.602   3.694   0.482 -0.1796  0.2002  0.4080
   14MOL    C35 7341   4.711   3.776   0.411  0.0228  0.8065 -1.3218
   14MOL    C36 7342   4.670   3.923   0.404 -0.4522 -0.2156 -0.2069
   14MOL    O37 7343   4.776   3.994   0.345  0.3731  0.6433 -0.1267
   14MOL    C38 7344   4.637   3.979   0.542 -0.6032 -0.4863  0.1866
   14MOL    C39 7345   4.598   4.128   0.535 -0.4866  0.0271 -0.7129
   14MOL    C40 7346   4.527   3.900   0.606  0.0755  0.5887  0.2434
   14MOL    C41 7347   4.562   3.746   0.617  0.1686 -0.5047  0.1698
   14MOL    H42 7348   4.525   3.357   0.477  0.4228 -0.3524 -0.7040
   14MOL    H43 7349   4.436   3.483   0.576  0.4945 -0.0933 -0.6276
   14MOL    H44 7350   4.679   3.519   0.586 -0.2662  0.8639  0.0303
   14MOL    H45 7351   4.806   3.493   0.433  0.5136 -3.8521 -1.9658
   14MOL    H46 7352   4.517   3.711   0.416  0.0409  0.6452  0.2349
   14MOL    H47 7353   4.809   3.757   0.454 -1.5574 -1.7746  1.2516
   14MOL    H48 7354   4.709   3.741   0.308  1.4375  0.7248 -1.3342
   14MOL    H49 7355   4.589   3.939   0.333  1.9493  1.9861 -2.5552
   14MOL    H50 7356   4.768   3.990   0.250 -0.0406  2.1835 -0.1629
   14MOL    H51 7357   4.717   3.975   0.616 -0.0411  1.9461 -0.2281
   14MOL    H52 7358   4.668   4.201   0.496  1.5823 -1.6913 -0.2779
   14MOL    H53 7359   4.508   4.119   0.473  0.4285 -3.1765 -1.7121
   14MOL    H54 7360   4.435   3.916   0.550  0.2362 -0.4001 -0.3087
   14MOL    H55 7361   4.519   3.945   0.705 -0.0228 -0.3396  0.6724
   14MOL    H56 7362   4.479   3.686   0.654  1.0587 -1.7632  0.1490
   14MOL    H57 7363   4.649   3.716   0.677  0.0393 -1.1251  0.0434
   14MOL    O58 7364   4.572   4.183   0.662  0.1881  0.7510 -0.0562
   14MOL    C59 7365   4.507   4.307   0.650  0.0723  0.3054  0.0908
   14MOL    C60 7366   4.439   4.350   0.786  0.4468  0.6867  0.1947
   14MOL    O61 7367   4.395   4.484   0.785  0.0474 -0.7210 -0.1815
   14MOL    C62 7368   4.329   4.251   0.827 -0.8050  0.2507 -0.1354
   14MOL    C63 7369   4.205   4.272   0.741  0.2256  0.6653  0.3112
   14MOL    C64 7370   4.082   4.185   0.786 -0.3866 -0.7522 -0.0559
   14MOL    O65 7371   3.971   4.225   0.707 -0.0805  0.2455 -0.5834
   14MOL    C66 7372   4.055   4.186   0.938  0.4509  0.5453 -0.5408
   14MOL    C67 7373   3.943   4.089   0.992  0.5454  0.1153 -0.7039
   14MOL    C68 7374   4.181   4.171   1.021  0.4629 -0.1661  0.3057
   14MOL    C69 7375   4.294   4.272   0.977  0.1528  0.0963  0.7109
   14MOL    H70 7376   4.436   4.298   0.567  0.7398  0.7285 -0.5337
   14MOL    H71 7377   4.576   4.385   0.618 -0.0862 -1.0424 -3.8902
   14MOL    H72 7378   4.510   4.336   0.867 -1.4469 -2.0517  1.4651
   14MOL    H73 7379   4.428   4.509   0.700  1.6221 -1.6709  0.1271
   14MOL    H74 7380   4.371   4.151   0.815  3.0432  1.7628  0.0398
   14MOL    H75 7381   4.179   4.377   0.731  0.4269  0.7130  0.2727
   14MOL    H76 7382   4.224   4.257   0.634 -0.9006  0.6766  0.1051
   14MOL    H77 7383   4.112   4.085   0.754 -0.3021 -0.3891 -1.1267
   14MOL    H78 7384   3.954   4.157   0.644  0.3472 -1.3487  0.9823
   14MOL    H79 7385   4.030   4.291   0.957  1.9661  0.8975 -0.4505
   14MOL    H80 7386   3.902   4.120   1.087 -1.1145  0.6143 -1.5708
   14MOL    H81 7387   3.860   4.092   0.922 -0.3577  1.1596  0.3930
   14MOL    H82 7388   4.230   4.074   1.003 -0.0214 -0.2397 -0.6485
   14MOL    H83 7389   4.149   4.183   1.124  0.2328 -1.5249  0.4117
   14MOL    H84 7390   4.372   4.274   1.054  0.5650  5.5271  0.4034
   14MOL    H85 7391   4.258   4.374   0.990 -0.4078 -0.2586  1.9674
   14MOL    O86 7392   3.989   3.957   0.986 -0.0248  0.3254 -0.0812
   14MOL    C87 7393   3.994   3.906   1.125 -0.1778  0.2693  0.4334
   14MOL    C88 7394   4.088   3.778   1.130 -0.1611  0.3403 -0.8265
   14MOL    O89 7395   4.215   3.819   1.085 -0.0365  0.0222 -0.0912
   14MOL    C90 7396   4.094   3.712   1.270 -1.0229  0.2920 -0.3844
   14MOL    C91 7397   4.196   3.599   1.264 -0.2041 -0.1856  0.3088
   14MOL    C92 7398   4.229   3.542   1.399 -1.0949  0.3871 -0.2447
   14MOL    O93 7399   4.317   3.434   1.376  0.3921 -0.2350  0.2430
   14MOL    C94 7400   4.101   3.491   1.481 -0.1584 -0.8405 -0.3575
   14MOL    C95 7401   4.145   3.425   1.614 -0.3118  0.0523 -0.0908
   14MOL    C96 7402   3.995   3.606   1.489 -0.0422  1.0375 -0.5798
   14MOL    C97 7403   3.968   3.671   1.350 -0.3688  0.1270  0.1094
   14MOL    H98 7404   3.895   3.873   1.154  0.3533 -1.2340  0.5549
   14MOL    H99 7405   4.033   3.981   1.194  0.6270 -0.3487  0.6519
   14MOL   H100 7406   4.045   3.715   1.052  0.4797 -1.1834  0.0477
   14MOL   H101 7407   4.199   3.860   1.001 -0.9454  1.8495  0.9540
   14MOL   H102 7408   4.133   3.796   1.328  0.0569  1.4282 -2.6832
   14MOL   H103 7409   4.178   3.526   1.185  0.1333  0.2141 -0.1497
   14MOL   H104 7410   4.289   3.633   1.218 -1.7897  3.0836 -0.7139
   14MOL   H105 7411   4.272   3.620   1.461 -0.3933 -0.3222  0.1767
   14MOL   H106 7412   4.388   3.442   1.438 -0.6794 -0.6073  1.5415
   14MOL   H107 7413   4.059   3.408   1.424  0.0126 -1.1973  0.0304
   14MOL   H108 7414   4.062   3.374   1.662  1.1254 -1.8024  0.4693
   14MOL   H109 7415   4.231   3.361   1.595  0.6404  0.4195  2.7727
   14MOL   H110 7416   4.046   3.685   1.545  2.2645 -0.9575  0.2761
   14MOL   H111 7417   3.905   3.586   1.547  2.1244 -2.2717  1.8450
   14MOL   H112 7418   3.910   3.763   1.363  0.6624  0.8383 -0.2988
   14MOL   H113 7419   3.892   3.609   1.302 -3.2268  1.1413  3.1381
   14MOL   O114 7420   4.195   3.524   1.700 -0.2882  0.4203  0.3896
   14MOL   C115 7421   4.279   3.470   1.804 -0.1321 -0.8907  0.0891
   14MOL   C116 7422   4.278   3.583   1.910 -0.0185 -0.6038 -0.7584
   14MOL   O117 7423   4.145   3.590   1.964  0.0833 -0.2060 -0.0118
   14MOL   C118 7424   4.373   3.562   2.027 -0.0753  0.2252  0.0563
   14MOL   C119 7425   4.325   3.441   2.110 -0.1998 -0.0197 -0.0459
   14MOL   C120 7426   4.403   3.407   2.239  0.1950  0.0044 -0.5879
   14MOL   O121 7427   4.315   3.321   2.316 -1.0164  0.5678 -0.4077
   14MOL   C122 7428   4.450   3.528   2.329 -0.2595  0.4220 -0.7357
   14MOL   C123 7429   4.578   3.482   2.405  0.3393 -0.0035  0.1499
   14MOL   C124 7430   4.482   3.658   2.245  0.7726 -0.1190  0.5663
   14MOL   C125 7431   4.378   3.680   2.128 -0.4687 -0.3960 -0.0908
   14MOL   H126 7432   4.378   3.443   1.768  1.0956  1.2037  1.7949
   14MOL   H127 7433   4.232   3.379   1.844  0.5793 -1.8035 -1.1325
   14MOL   H128 7434   4.319   3.673   1.866  1.0310 -0.4751  0.4505
   14MOL   H129 7435   4.084   3.606   1.894  0.7940 -0.0702 -0.6068
   14MOL   H130 7436   4.473   3.537   1.990  0.4147 -1.0234  2.1879
   14MOL   H131 7437   4.220   3.450   2.138 -0.2967 -0.5882 -0.2145
   14MOL   H132 7438   4.335   3.346   2.057  1.4252  1.4570 -2.4854
   14MOL   H133 7439   4.493   3.351   2.216  0.5189  0.0969  0.4071
   14MOL   H134 7440   4.358   3.270   2.383 -0.0359  0.1366 -1.3597
   14MOL   H135 7441   4.382   3.566   2.405 -0.1546 -1.4719  0.3255
   14MOL   H136 7442   4.554   3.390   2.458 -0.3278 -0.3721 -0.7751
   14MOL   H137 7443   4.655   3.472   2.329 -0.0060  2.3826 -0.5594
   14MOL   H138 7444   4.573   3.650   2.186 -0.9023  1.4324 -2.3175
   14MOL   H139 7445   4.486   3.740   2.317  1.0254 -0.1090  0.5448
   14MOL   H140 7446   4.392   3.775   2.078 -0.3440  0.2404  1.1205
   14MOL   H141 7447   4.279   3.690   2.171 -0.2512  1.6502 -0.0581
   14MOL   O142 7448   4.609   3.581   2.495  0.4644 -0.2915 -0.2203
   14MOL   C143 7449   4.719   3.552   2.582  0.4966  0.3018 -0.2996
   14MOL   C144 7450   4.766   3.676   2.663  0.0221 -0.2901 -0.1186
   14MOL   O145 7451   4.863   3.615   2.747 -0.4682 -0.7306  0.3400
   14MOL   C146 7452   4.831   3.796   2.586  0.3359 -0.2690  0.3763
   14MOL   C147 7453   4.923   3.882   2.677 -0.2468 -0.0634 -0.5646
   14MOL   C148 7454   4.969   4.011   2.613  0.0342  0.1159  0.3987
   14MOL   O149 7455   5.035   4.085   2.710  0.5974 -0.3964  0.4286
   14MOL   C150 7456   4.845   4.093   2.556  0.0099  0.5382  0.0112
   14MOL   C151 7457   4.891   4.223   2.492  0.4869  0.1023  0.5362
   14MOL   C152 7458   4.770   4.000   2.450 -0.0368 -0.3002 -0.5930
   14MOL   C153 7459   4.717   3.883   2.530  0.3841 -0.2422  0.0089
   14MOL   H154 7460   4.792   3.495   2.525  1.8994 -0.9635  2.6623
   14MOL   H155 7461   4.685   3.481   2.657  0.8439  0.1002 -0.3352
   14MOL   H156 7462   4.685   3.721   2.719 -1.3183 -0.0722 -2.1967
   14MOL   H157 7463   4.948   3.626   2.706 -1.1043 -0.5812 -0.9826
   14MOL   H158 7464   4.889   3.749   2.506 -0.6871 -1.1043  0.1143
   14MOL   H159 7465   4.868   3.895   2.770  1.3507 -1.0592  0.5622
   14MOL   H160 7466   5.012   3.824   2.703 -0.1923 -0.0587 -0.7419
   14MOL   H161 7467   5.036   3.985   2.530  0.3267  1.7316  0.1243
   14MOL   H162 7468   5.090   4.147   2.665 -1.6043 -0.1831 -2.1025
   14MOL   H163 7469   4.777   4.123   2.635 -0.3758 -2.3772  0.8356
   14MOL   H164 7470   4.948   4.300   2.545  0.8715  0.5581 -0.5196
   14MOL   H165 7471   4.950   4.191   2.407  0.3211 -0.7976  0.7550
   14MOL   H166 7472   4.834   3.967   2.368  0.1924 -2.3746  0.4053
   14MOL   H167 7473   4.698   4.066   2.402 -1.2996 -0.5000  1.0088
   14MOL   H168 7474   4.643   3.823   2.477  0.4818  1.2142 -1.8571
   14MOL   H169 7475   4.673   3.933   2.616  1.4099  1.9867 -0.7111
   14MOL   O170 7476   4.776   4.292   2.447 -0.1049 -0.4800 -0.2424
   14MOL   C171 7477   4.786   4.421   2.378  0.0628 -0.2422  0.0424
   14MOL   C172 7478   4.809   4.385   2.229 -0.3690  0.0929 -0.5598
   14MOL   O173 7479   4.687   4.320   2.198 -0.2017  0.1832  0.3468
   14MOL   C174 7480   4.830   4.497   2.130  0.7345  0.1172 -0.2301
   14MOL   C175 7481   4.832   4.428   1.986  0.3820 -0.0262 -0.1790
   14MOL   C176 7482   4.880   4.532   1.873  0.0237  0.5944  0.5078
   14MOL   O177 7483   4.926   4.446   1.764  0.3947 -0.1290  0.0053
   14MOL   C178 7484   4.997   4.624   1.903 -0.9431  0.1546 -0.1075
   14MOL   C179 7485   5.011   4.734   1.797  0.1172  0.2915  0.4091
   14MOL   C180 7486   4.969   4.688   2.042  0.3265 -0.3599 -0.4311
   14MOL   C181 7487   4.956   4.585   2.155  0.4791  0.4817  0.4189
   14MOL   H182 7488   4.868   4.485   2.411  0.9316 -1.0444 -0.5454
   14MOL   H183 7489   4.689   4.471   2.384 -1.2009 -2.8358  2.1201
   14MOL   H184 7490   4.883   4.305   2.222 -2.1070 -1.7593  1.4324
   14MOL   H185 7491   4.654   4.278   2.276 -0.9439  1.8897  0.9690
   14MOL   H186 7492   4.736   4.553   2.137  0.8389  0.2786 -0.1054
   14MOL   H187 7493   4.897   4.341   1.977 -0.7570 -0.7086 -2.2660
   14MOL   H188 7494   4.733   4.390   1.962  0.5965 -0.1872 -0.8429
   14MOL   H189 7495   4.791   4.588   1.845 -1.2519 -0.9638  1.3074
   14MOL   H190 7496   4.997   4.394   1.797  0.6276 -0.4904 -1.0486
   14MOL   H191 7497   5.092   4.572   1.917 -0.7911  0.6277  0.6539
   14MOL   H192 7498   5.034   4.681   1.704  1.5423  1.4635  0.0753
   14MOL   H193 7499   4.912   4.779   1.790 -0.3023 -0.7718 -0.7684
   14MOL   H194 7500   4.873   4.739   2.035  2.2266  3.2832 -1.0293
   14MOL   H195 7501   5.041   4.764   2.072  0.2169 -0.2737 -0.3902
   14MOL   H196 7502   4.953   4.654   2.240  0.1016  2.7374 -1.3821
   14MOL   H197 7503   5.041   4.521   2.179 -0.0852 -0.2926  0.3401
   14MOL   O198 7504   5.105   4.837   1.827  0.1963  0.6879 -0.6036
   14MOL   C199 7505   5.123   4.929   1.724  0.4467  0.2331  0.2166
   14MOL   C200 7506   5.264   4.988   1.731  0.8751 -0.0223 -1.2906
   14MOL   O201 7507   5.259   5.056   1.852  0.0178 -0.4738  0.5966
   14MOL   C202 7508   5.363   4.871   1.725 -0.5368  0.2912 -0.6710
   14MOL   C203 7509   5.446   4.859   1.847 -0.0375  0.6117  0.3344
   14MOL   C204 7510   5.565   4.758   1.848 -0.2672 -0.3310  0.3650
   14MOL   O205 7511   5.627   4.764   1.968  0.0197 -0.4198  0.3349
   14MOL   C206 7512   5.658   4.795   1.722 -0.3107 -0.6136  0.3067
   14MOL   C207 7513   5.772   4.691   1.716 -0.2489 -0.1042 -0.0901
   14MOL   C208 7514   5.568   4.793   1.596 -0.8302 -0.3797 -1.2980
   14MOL   C209 7515   5.460   4.891   1.606  0.4887 -0.3248  0.2748
   14MOL   H210 7516   5.047   5.007   1.714  0.6411  0.3227 -0.5899
   14MOL   H211 7517   5.116   4.870   1.633  1.0710  2.4566 -1.3289
   14MOL   H212 7518   5.283   5.061   1.652  0.6255  2.1476  0.6112
   14MOL   H213 7519   5.222   4.990   1.908  0.1011 -0.1589  1.0194
   14MOL   H214 7520   5.309   4.779   1.704 -0.4763 -0.1964  1.1728
   14MOL   H215 7521   5.484   4.958   1.871  1.3589 -0.4855  2.9432
   14MOL   H216 7522   5.375   4.833   1.925 -0.8848  0.9716 -0.3159
   14MOL   H217 7523   5.517   4.660   1.839 -0.0738 -0.5739  1.8679
   14MOL   H218 7524   5.678   4.844   1.968 -0.6710  0.0222  0.7520
   14MOL   H219 7525   5.711   4.889   1.735  2.4031 -2.4604  3.4523
   14MOL   H220 7526   5.823   4.695   1.813  0.4407 -0.3104 -0.4436
   14MOL   H221 7527   5.729   4.594   1.695  1.0442 -0.4889 -0.9928
   14MOL   H222 7528   5.525   4.695   1.577  1.1579 -1.4867 -0.2257
   14MOL   H223 7529   5.636   4.815   1.514 -0.0931 -0.6784 -0.7795
   14MOL   H224 7530   5.399   4.890   1.516 -0.4345  0.4561  0.8871
   14MOL   H225 7531   5.499   4.993   1.607  1.9256 -0.8591 -0.0007
   14MOL   O226 7532   5.871   4.725   1.612  0.2895  0.3409  0.5148
   14MOL   C227 7533   5.994   4.657   1.631  0.7203  0.0242  0.4165
   14MOL   C228 7534   6.102   4.715   1.529 -0.0693 -0.6233  0.1857
   14MOL   O229 7535   6.060   4.688   1.405  0.2925 -0.5140 -0.6204
   14MOL   C230 7536   6.136   4.868   1.547  0.1569 -0.0123 -0.5287
   14MOL   C231 7537   6.252   4.899   1.438  0.5145  0.0112 -0.3279
   14MOL   C232 7538   6.324   5.033   1.458  0.5275  0.1252 -0.1724
   14MOL   O233 7539   6.441   5.033   1.378  0.0840 -0.3898 -0.0943
   14MOL   C234 7540   6.362   5.059   1.602  0.1466  1.3431 -1.3154
   14MOL   C235 7541   6.424   5.197   1.629  1.2597 -0.1356  0.7800
   14MOL   C236 7542   6.242   5.041   1.694 -0.1376 -0.3822  0.0419
   14MOL   C237 7543   6.184   4.905   1.688  0.2075 -0.4630 -0.1824
   14MOL   H238 7544   5.977   4.550   1.614  0.4319  0.3747 -1.6426
   14MOL   H239 7545   6.025   4.679   1.733 -0.4761  0.1823  0.7494
   14MOL   H240 7546   6.187   4.647   1.536  0.9530  0.6677  0.3957
   14MOL   H241 7547   5.974   4.727   1.401  0.6827  0.3229 -0.9638
   14MOL   H242 7548   6.048   4.930   1.530  0.7875  1.4806  1.4497
   14MOL   H243 7549   6.327   4.820   1.437  1.3050  0.7459 -1.4378
   14MOL   H244 7550   6.219   4.891   1.334 -0.8042 -0.0218  0.0928
   14MOL   H245 7551   6.268   5.119   1.421  2.7544  0.1876 -3.6307
   14MOL   H246 7552   6.515   4.992   1.421  0.1778  0.3878  0.4897
   14MOL   H247 7553   6.441   4.990   1.630 -0.4336  1.8583  1.7252
   14MOL   H248 7554   6.516   5.189   1.571  0.3130  1.6767 -1.0235
   14MOL   H249 7555   6.375   5.288   1.595  0.0319 -1.2145 -0.3581
   14MOL   H250 7556   6.161   5.107   1.664 -0.5634 -0.3143  1.3282
   14MOL   H251 7557   6.271   5.078   1.792  0.1576  1.8635 -0.8703
   14MOL   H252 7558   6.111   4.906   1.769 -0.3182 -1.0983 -0.6458
   14MOL   H253 7559   6.254   4.825   1.713 -0.1737 -0.3019  1.4773
   14MOL   O254 7560   6.460   5.208   1.762  0.4917 -0.3220 -0.0656
   14MOL   C255 7561   6.561   5.308   1.779  0.5540 -0.3233  0.9118
   14MOL   C256 7562   6.527   5.390   1.907 -0.2065 -0.0548  0.3766
   14MOL   O257 7563   6.541   5.308   2.023 -0.4493 -0.4025  0.1448
   14MOL   C258 7564   6.626   5.508   1.935  0.2049 -0.3205 -0.3450
   14MOL   C259 7565   6.764   5.456   1.965 -0.1490 -0.3221 -0.0808
   14MOL   C260 7566   6.863   5.574   1.991 -0.5417 -0.0983  0.2785
   14MOL   O261 7567   6.981   5.513   2.050  0.5692  0.0463  0.1678
   14MOL   C262 7568   6.818   5.674   2.092  0.4727  0.3897 -0.1357
   14MOL   C263 7569   6.905   5.794   2.114 -0.3729 -0.3354 -0.9534
   14MOL   C264 7570   6.676   5.727   2.057  0.1192 -0.5568  0.1600
   14MOL   C265 7571   6.573   5.604   2.046  0.0152  0.5681 -0.3813
   14MOL   H266 7572   6.583   5.369   1.692  0.2470 -0.4567  0.7380
   14MOL   H267 7573   6.655   5.252   1.786  1.1927  0.5594 -0.4429
   14MOL   H268 7574   6.425   5.430   1.900  0.3712  1.0408 -2.3255
   14MOL   H269 7575   6.495   5.234   1.986  0.1054 -0.7466  0.1276
   14MOL   H270 7576   6.635   5.558   1.839 -2.0686  0.1013 -0.3640
   14MOL   H271 7577   6.778   5.390   2.051 -1.5747  1.7867  1.8565
   14MOL   H272 7578   6.811   5.403   1.883 -0.1504 -0.1824 -0.1698
   14MOL   H273 7579   6.900   5.615   1.897 -0.1466 -1.6546 -0.2568
   14MOL   H274 7580   7.033   5.584   2.086 -0.2905  2.1887 -2.6522
   14MOL   H275 7581   6.815   5.625   2.189 -2.1951 -2.1629 -1.4180
   14MOL   H276 7582   6.911   5.853   2.023  0.3141 -0.4216 -0.9629
   14MOL   H277 7583   6.852   5.859   2.183 -0.2238  1.3802 -2.4340
   14MOL   H278 7584   6.681   5.780   1.963  0.0701  0.6878  0.8522
   14MOL   H279 7585   6.639   5.802   2.126  0.0988  0.5823 -1.0908
   14MOL   H280 7586   6.473   5.632   2.013 -0.1867  0.5005  0.1644
   14MOL   H281 7587   6.573   5.552   2.142 -1.1139 -1.4447 -1.4331
   14MOL   O282 7588   7.034   5.753   2.168  0.2381 -0.0740  0.0861
   14MOL   C283 7589   7.131   5.859   2.165  0.3018 -0.8104 -0.1350
   14MOL   C284 7590   7.263   5.787   2.188  0.1950 -0.1481  0.9237
   14MOL   O285 7591   7.260   5.740   2.320  0.5222  0.5590  0.2077
   14MOL   C286 7592   7.293   5.676   2.077  0.0508 -1.0651  0.0686
   14MOL   C287 7593   7.408   5.592   2.139  0.3949  0.2252 -0.8715
   14MOL   C288 7594   7.475   5.495   2.036 -0.6981 -0.6988 -0.6365
   14MOL   O289 7595   7.568   5.414   2.112  0.9250  0.4196 -0.2902
   14MOL   C290 7596   7.527   5.574   1.911  0.6201 -0.2990 -0.0665
   14MOL   C291 7597   7.605   5.488   1.809  0.0755 -0.5197 -0.4689
   14MOL   C292 7598   7.402   5.645   1.845 -0.2544  0.0387  0.5798
   14MOL   C293 7599   7.335   5.747   1.943  0.1424  0.0997 -0.4786
   14MOL   H294 7600   7.109   5.923   2.250 -0.5486 -0.4023 -0.6534
   14MOL   H295 7601   7.138   5.921   2.076  0.5745  0.9098  1.0546
   14MOL   H296 7602   7.350   5.853   2.191  0.3364 -0.3436  1.1824
   14MOL   H297 7603   7.170   5.734   2.346  0.0593 -1.4692 -1.7598
   14MOL   H298 7604   7.201   5.618   2.068 -0.7922  0.0526  1.3024
   14MOL   H299 7605   7.485   5.659   2.180 -0.7795  0.0585  1.7197
   14MOL   H300 7606   7.362   5.538   2.221  0.4994  3.3481  1.3350
   14MOL   H301 7607   7.398   5.423   2.006 -2.5803  1.2309 -0.5516
   14MOL   H302 7608   7.599   5.463   2.186  0.7711  0.4366 -0.2357
   14MOL   H303 7609   7.588   5.658   1.945 -0.6303 -0.4541  2.7662
   14MOL   H304 7610   0.055   5.437   1.864  0.4267  0.8391  0.3092
   14MOL   H305 7611   7.546   5.412   1.757 -0.9566 -0.5291  0.7201
   14MOL   H306 7612   7.325   5.574   1.813 -1.6001  1.5354  0.4100
   14MOL   H307 7613   7.440   5.700   1.759 -0.3408  0.3855  0.7621
   14MOL   H308 7614   7.247   5.773   1.885  0.5925 -0.3227 -1.3576
   14MOL   H309 7615   7.404   5.827   1.972  2.5407 -1.3632 -1.9966
   14MOL   O310 7616   0.029   5.587   1.715 -0.1110  0.0314 -0.3224
   14MOL   C311 7617   0.115   5.531   1.614  0.2455 -0.3880 -0.1931
   14MOL   C312 7618   0.033   5.491   1.490  0.2052 -0.3763 -0.2416
   14MOL   O313 7619   7.611   5.610   1.424  0.2869  0.5606  0.4739
   14MOL   C314 7620   0.109   5.403   1.382  0.0187 -0.0797  0.1925
   14MOL   C315 7621   0.011   5.371   1.269  0.3118 -0.1899 -0.5814
   14MOL   C316 7622   0.086   5.294   1.161  0.3433 -1.0046  0.7590
   14MOL   O317 7623   0.007   5.287   1.049  0.1563 -0.0418  0.5522
   14MOL   C318 7624   0.133   5.160   1.207  0.4473  0.0459 -0.5533
   14MOL   C319 7625   0.194   5.076   1.095 -0.8019  0.5881 -0.0913
   14MOL   C320 7626   0.220   5.173   1.334  0.2015  0.5779  0.6456
   14MOL   C321 7627   0.147   5.263   1.435 -0.2241 -1.0008  0.3472
   14MOL   H322 7628   0.164   5.451   1.668 -2.1685 -1.9348 -0.2077
   14MOL   H323 7629   0.192   5.603   1.587  0.9130 -0.4586  1.4597
   14MOL   H324 7630   7.580   5.429   1.524 -0.8973  0.2315 -1.7456
   14MOL   H325 7631   7.563   5.666   1.484 -0.0118  0.7041  0.0991
   14MOL   H326 7632   0.192   5.463   1.344 -1.3736  1.4032 -0.5273
   14MOL   H327 7633   7.554   5.316   1.309 -1.3432  2.5169 -0.3166
   14MOL   H328 7634   7.606   5.465   1.226  1.5482  1.2604  1.5065
   14MOL   H329 7635   0.181   5.341   1.137 -0.2163 -1.2173 -1.9648
   14MOL   H330 7636   7.616   5.373   1.016  2.0015 -0.0760 -0.7978
   14MOL   H331 7637   0.048   5.098   1.237  0.7554 -0.5242 -0.8491
   14MOL   H332 7638   0.119   5.051   1.021 -0.1690 -2.1900  0.1459
   14MOL   H333 7639   0.274   5.138   1.055 -0.9108  0.5586 -0.3547
   14MOL   H334 7640   0.322   5.206   1.315  1.0046 -1.5145  1.1894
   14MOL   H335 7641   0.223   5.071   1.372  0.1698  0.3627  0.0679
   14MOL   H336 7642   0.209   5.269   1.524 -1.2602  0.8977  0.9691
   14MOL   H337 7643   0.059   5.204   1.462 -1.8808  0.7180 -1.1392
   14MOL   O338 7644   0.241   4.942   1.143 -0.4467 -0.4833 -0.7579
   14MOL   C339 7645   0.379   4.945   1.175  0.1456 -0.6296  0.5507
   14MOL   C340 7646   0.422   4.807   1.235 -0.3489  0.3922 -0.5918
   14MOL   O341 7647   0.562   4.784   1.228  0.2252  0.2581  0.7514
   14MOL   C342 7648   0.373   4.774   1.377  0.5335  0.2914  1.0227
   14MOL   C343 7649   0.438   4.870   1.487 -0.1937  0.5221  0.1915
   14MOL   C344 7650   0.377   4.854   1.622  0.2662  0.3106 -0.6006
   14MOL   O345 7651   0.447   4.945   1.710 -0.1410  0.9104 -0.0715
   14MOL   C346 7652   0.387   4.709   1.672 -0.6223  0.2950 -0.3519
   14MOL   C347 7653   0.321   4.685   1.805  0.2256 -0.1179  0.3426
   14MOL   C348 7654   0.330   4.612   1.561  0.5870 -0.6212 -0.3447
   14MOL   C349 7655   0.402   4.629   1.422  0.4273  0.0574  0.3564
   14MOL   H350 7656   0.402   5.022   1.249 -0.2868 -0.0947  0.1327
   14MOL   H351 7657   0.432   4.961   1.081  0.8484  0.5110  1.1302
   14MOL   H352 7658   0.376   4.743   1.159  0.8007 -0.2623 -0.7512
   14MOL   H353 7659   0.598   4.830   1.153  2.2820 -0.0638  1.5097
   14MOL   H354 7660   0.264   4.780   1.376  0.5168  1.5705  4.3363
   14MOL   H355 7661   0.543   4.843   1.499  0.1127 -0.9914 -4.7034
   14MOL   H356 7662   0.426   4.974   1.457  0.7480  0.6082  0.0917
   14MOL   H357 7663   0.274   4.889   1.614  0.1371  0.3620  1.0273
   14MOL   H358 7664   0.426   5.032   1.682  1.0688  1.2573  0.0897
   14MOL   H359 7665   0.492   4.682   1.682 -1.3076 -1.6099  2.3505
   14MOL   H360 7666   0.356   4.769   1.866  1.2811 -0.4804  0.2435
   14MOL   H361 7667   0.213   4.690   1.789  0.0981 -2.9297  0.0844
   14MOL   H362 7668   0.221   4.615   1.554  0.5170 -1.6090  0.2942
   14MOL   H363 7669   0.360   4.514   1.599 -1.1525 -0.6091  1.1368
   14MOL   H364 7670   0.359   4.563   1.346  0.6175 -0.2817  0.5418
   14MOL   H365 7671   0.508   4.606   1.423  0.9901  2.6082  0.8055
   14MOL   O366 7672   0.358   4.566   1.870 -0.7708  0.0692  0.1902
   14MOL   C367 7673   0.320   4.561   2.004 -0.7201 -0.3774  0.1586
   14MOL   C368 7674   0.338   4.421   2.059 -0.7472 -0.5119  0.1002
   14MOL   O369 7675   0.260   4.328   1.987  0.4393  0.1293  0.7222
   14MOL   C370 7676   0.487   4.369   2.063  0.1644  0.1812  0.5851
   14MOL   C371 7677   0.496   4.226   2.121  0.6929  0.1684  0.2674
   14MOL   C372 7678   0.646   4.181   2.098  0.3923 -0.6805 -0.2005
   14MOL   O373 7679   0.652   4.050   2.145  0.0554  0.5665  0.1907
   14MOL   C374 7680   0.741   4.267   2.183 -0.0266 -0.1419  0.1121
   14MOL   C375 7681   0.887   4.226   2.164  0.4810 -0.0795 -0.0725
   14MOL   C376 7682   0.722   4.419   2.153 -0.1449 -0.5637  0.0753
   14MOL   C377 7683   0.573   4.457   2.151  0.0516 -0.0586  0.4666
   14MOL   H378 7684   0.215   4.587   2.018 -0.4529  1.3443 -0.8171
   14MOL   H379 7685   0.371   4.643   2.056 -3.1601  0.6136  1.0968
   14MOL   H380 7686   0.306   4.422   2.163  1.2546 -1.3338  0.7683
   14MOL   H381 7687   0.291   4.337   1.898  0.8697 -1.1658  0.7405
   14MOL   H382 7688   0.527   4.375   1.962  0.5686 -0.1308  0.7248
   14MOL   H383 7689   0.457   4.225   2.223  1.4507  0.7857  0.5635
   14MOL   H384 7690   0.433   4.161   2.059  0.8798 -0.6036  0.8775
   14MOL   H385 7691   0.668   4.178   1.992  1.1630  0.5177 -0.0788
   14MOL   H386 7692   0.677   3.988   2.078  0.7366  0.4587  0.5464
   14MOL   H387 7693   0.718   4.253   2.289  0.7635  3.8160  0.9058
   14MOL   H388 7694   0.896   4.121   2.190 -0.9639 -0.2966 -0.4505
   14MOL   H389 7695   0.918   4.236   2.060 -0.4767  0.2684 -0.3279
   14MOL   H390 7696   0.779   4.437   2.062  1.0170 -1.5515  0.5926
   14MOL   H391 7697   0.769   4.477   2.233 -2.1810  0.9764  0.1717
   14MOL   H392 7698   0.573   4.564   2.129  1.5850 -0.4370 -1.5265
   14MOL   H393 7699   0.525   4.458   2.249 -1.8476  1.1574 -0.4512
   14MOL   O394 7700   0.979   4.303   2.253 -0.1597 -0.0114 -0.2119
   14MOL   C395 7701   1.044   4.412   2.194  0.6816  0.5909  0.0299
   14MOL   C396 7702   1.196   4.389   2.219 -0.4184  0.3904 -0.4334
   14MOL   O397 7703   1.261   4.520   2.213 -0.6733 -0.8157  0.1482
   14MOL   C398 7704   1.242   4.309   2.342 -0.3105  0.3170 -0.0871
   14MOL   C399 7705   1.232   4.387   2.474  0.1114 -0.0663 -0.2674
   14MOL   C400 7706   1.267   4.293   2.587  0.1674 -0.4013  0.6369
   14MOL   O401 7707   1.247   4.381   2.701  0.2663 -0.5136  0.5346
   14MOL   C402 7708   1.410   4.251   2.586 -0.6522  0.1571  0.1697
   14MOL   C403 7709   1.447   4.156   2.699 -0.1016 -0.1531  0.3100
   14MOL   C404 7710   1.432   4.177   2.449  0.2580 -0.3742  0.2510
   14MOL   C405 7711   1.384   4.258   2.329  0.0368  0.8233  1.0028
   14MOL   H406 7712   1.011   4.500   2.250 -0.5777 -0.1572  0.4689
   14MOL   H407 7713   1.038   4.421   2.086  2.1331  0.9313 -0.0341
   14MOL   H408 7714   1.226   4.331   2.131 -2.0949 -1.1924  0.0159
   14MOL   H409 7715   1.220   4.580   2.273  2.8784  0.9014  0.9522
   14MOL   H410 7716   1.175   4.224   2.354 -1.6087  1.3374  0.0872
   14MOL   H411 7717   1.291   4.478   2.461 -1.0395  0.3875 -2.6291
   14MOL   H412 7718   1.132   4.429   2.488  0.3798  0.1160  1.1740
   14MOL   H413 7719   1.203   4.207   2.608  1.5900 -2.1503 -1.9263
   14MOL   H414 7720   1.250   4.333   2.783  0.3172  0.9562  1.4016
   14MOL   H415 7721   1.470   4.343   2.586 -1.4816  0.7116  1.9187
   14MOL   H416 7722   1.385   4.066   2.698 -0.6292  0.2169 -1.0411
   14MOL   H417 7723   1.546   4.120   2.669 -1.1357 -1.4232 -1.6852
   14MOL   H418 7724   1.375   4.085   2.462  0.0458  0.1152  3.2327
   14MOL   H419 7725   1.537   4.151   2.430  0.3721  1.6408 -2.1050
   14MOL   H420 7726   1.386   4.194   2.241 -1.1404  1.6216  0.3769
   14MOL   H421 7727   1.458   4.337   2.312  0.2494  0.6926  1.3131
   14MOL   O422 7728   1.465   4.223   2.818  0.2323 -0.0652  0.1168
   14MOL   C423 7729   1.494   4.130   2.924  0.0911 -0.6349 -0.0543
   14MOL   C424 7730   1.497   4.207   3.059  0.2318  0.8762  0.0009
   14MOL   O425 7731   1.569   4.324   3.030  0.5872 -0.4251 -0.5631
   14MOL   C426 7732   1.375   4.239   3.142  0.1547 -0.1786  0.0360
   14MOL   C427 7733   1.319   4.109   3.209  0.1053 -0.0867 -0.1719
   14MOL   C428 7734   1.192   4.135   3.293 -0.7037  0.5022 -0.1167
   14MOL   O429 7735   1.162   4.007   3.345  0.0943  0.6556 -0.0161
   14MOL   C430 7736   1.081   4.183   3.199 -0.7165 -0.5323  0.1566
   14MOL   C431 7737   0.945   4.212   3.273 -0.3109 -0.0752 -0.5060
   14MOL   C432 7738   1.133   4.323   3.142 -0.8149  0.6553  0.4129
   14MOL   C433 7739   1.269   4.304   3.068  0.5721  0.1709 -0.4764
   14MOL   H434 7740   1.595   4.091   2.910 -0.2440 -2.2585  1.9222
   14MOL   H435 7741   1.409   4.062   2.931 -0.7650  0.3967 -0.2567
   14MOL   H436 7742   1.568   4.159   3.126 -0.3468 -0.0515 -0.0384
   14MOL   H437 7743   1.573   4.334   2.936  1.9335  2.5721 -0.2462
   14MOL   H438 7744   1.404   4.313   3.217  1.2548  1.2771 -1.7897
   14MOL   H439 7745   1.313   4.034   3.130 -1.2000  1.2495 -1.3459
   14MOL   H440 7746   1.393   4.083   3.286 -1.6855 -1.4170  1.1344
   14MOL   H441 7747   1.217   4.205   3.372  1.0053 -0.3629  0.1324
   14MOL   H442 7748   1.242   3.984   3.390  0.9935 -0.1076 -1.9798
   14MOL   H443 7749   1.070   4.112   3.117 -1.3297 -1.6428  1.1791
   14MOL   H444 7750   0.915   4.128   3.336  0.6471 -1.0480 -1.3352
   14MOL   H445 7751   0.948   4.305   3.330 -2.1475  0.5778 -1.4459
   14MOL   H446 7752   1.147   4.389   3.227  1.5526  2.4685 -1.3295
   14MOL   H447 7753   1.057   4.369   3.079  1.0735 -1.4089 -3.5477
   14MOL   H448 7754   1.300   4.399   3.024 -0.6053  0.9626  0.3836
   14MOL   H449 7755   1.243   4.245   2.980 -1.3767 -0.7949  0.7002
   14MOL   O450 7756   0.850   4.215   3.169 -0.8056  0.0610  0.3823
   14MOL   C451 7757   0.722   4.268   3.211  0.1764  0.1836  0.3757
   14MOL   C452 7758   0.622   4.245   3.098 -0.5154 -0.5635 -0.4717
   14MOL   O453 7759   0.689   4.302   2.992 -0.4764  0.0446  0.4264
   14MOL   C454 7760   0.602   4.101   3.054  0.4328  0.3064 -0.7844
   14MOL   C455 7761   0.493   4.094   2.945 -0.7415 -0.6502 -0.7431
   14MOL   C456 7762   0.500   3.951   2.877  0.4719 -0.0044  0.1758
   14MOL   O457 7763   0.406   3.951   2.775 -0.1996  0.2707 -0.1878
   14MOL   C458 7764   0.471   3.838   2.975  0.1335  0.2709 -0.1792
   14MOL   C459 7765   0.489   3.698   2.905 -0.4965  0.5005  0.1264
   14MOL   C460 7766   0.555   3.858   3.103  0.3751 -0.4478  0.5099
   14MOL   C461 7767   0.563   4.002   3.162 -0.6860 -0.2709 -0.9539
   14MOL   H462 7768   0.742   4.373   3.232  0.0052  0.4681 -0.8465
   14MOL   H463 7769   0.685   4.223   3.303  1.4444  0.4099  1.0143
   14MOL   H464 7770   0.529   4.298   3.117  0.0671  0.3745 -0.1757
   14MOL   H465 7771   0.770   4.254   2.984  0.3352  1.6298 -1.5776
   14MOL   H466 7772   0.701   4.069   3.024  0.7513  0.2310  0.3309
   14MOL   H467 7773   0.390   4.115   2.971 -0.8316 -2.5960  0.6085
   14MOL   H468 7774   0.531   4.165   2.871 -0.2260  0.9783  1.0660
   14MOL   H469 7775   0.599   3.938   2.834  1.1436  4.0288  0.3340
   14MOL   H470 7776   0.444   3.911   2.699  0.4529 -0.4240  0.4947
   14MOL   H471 7777   0.365   3.856   2.994  0.9301  3.5292  1.6065
   14MOL   H472 7778   0.477   3.617   2.976 -0.8326  1.1634  0.8386
   14MOL   H473 7779   0.409   3.682   2.833 -1.7514  1.0060  1.3661
   14MOL   H474 7780   0.653   3.813   3.087  1.3687  2.4015 -1.8223
   14MOL   H475 7781   0.514   3.783   3.171 -0.6467 -1.2720 -0.9728
   14MOL   H476 7782   0.632   4.003   3.247 -2.3735 -0.3840  0.4633
   14MOL   H477 7783   0.463   4.022   3.202 -0.9177 -0.2796 -1.5290
   14MOL   O478 7784   0.620   3.689   2.866 -0.7033 -0.2818 -0.4428
   14MOL   C479 7785   0.654   3.564   2.801 -0.6609 -0.6392 -0.2322
   14MOL   C480 7786   0.805   3.523   2.798  0.1484 -0.2250 -0.2705
   14MOL   O481 7787   0.844   3.490   2.929 -0.0261 -0.1366 -0.2762
   14MOL   C482 7788   0.836   3.394   2.712  0.7166  0.0169 -0.1205
   14MOL   C483 7789   0.989   3.368   2.702  0.6858 -0.2268 -0.0694
   14MOL   C484 7790   1.020   3.229   2.645  0.4536  0.6122 -0.1357
   14MOL   O485 7791   1.157   3.210   2.647 -0.0339  0.1837 -0.2864
   14MOL   C486 7792   0.968   3.233   2.497  0.3701 -0.0333 -0.8455
   14MOL   C487 7793   1.014   3.112   2.414 -0.5948  0.0507  0.0315
   14MOL   C488 7794   0.819   3.262   2.487  0.0759 -0.5478 -1.1954
   14MOL   C489 7795   0.787   3.397   2.562  0.4964 -0.6094  0.4154
   14MOL   H490 7796   0.628   3.581   2.697  0.6290  0.2038 -0.4367
   14MOL   H491 7797   0.595   3.477   2.831 -1.2658 -0.2363 -0.2470
   14MOL   H492 7798   0.863   3.607   2.761 -0.8548  0.0974 -1.1336
   14MOL   H493 7799   0.854   3.575   2.970 -0.3896 -0.4454  0.4595
   14MOL   H494 7800   0.789   3.310   2.763  1.0585  0.1525  0.4225
   14MOL   H495 7801   1.027   3.448   2.639  2.5363 -1.3551 -0.4333
   14MOL   H496 7802   1.034   3.390   2.799  0.4277  1.1654 -0.2611
   14MOL   H497 7803   0.978   3.145   2.701  2.8660 -1.5808 -1.4853
   14MOL   H498 7804   1.173   3.197   2.739 -0.1742  1.2847 -0.1036
   14MOL   H499 7805   1.017   3.319   2.450  2.4414 -0.6398  0.1515
   14MOL   H500 7806   0.986   3.114   2.309  0.1831 -3.4083 -0.3141
   14MOL   H501 7807   1.123   3.122   2.414 -0.6785  1.0139 -2.0820
   14MOL   H502 7808   0.780   3.176   2.540 -1.6762  0.6655 -0.4966
   14MOL   H503 7809   0.775   3.259   2.387 -1.0814 -1.2346 -0.6773
   14MOL   H504 7810   0.678   3.404   2.563  0.6051  1.2702  1.1827
   14MOL   H505 7811   0.815   3.482   2.500 -1.7134 -1.4120 -1.7837
   14MOL   O506 7812   0.965   2.989   2.469  0.3351  0.2105 -0.6957
   14MOL   C507 7813   1.031   2.876   2.415 -0.0569 -0.0154  0.0094
   14MOL   C508 7814   1.023   2.756   2.510  0.0965  0.4224  0.9109
   14MOL   O509 7815   1.126   2.772   2.607  0.4155  0.3784  0.3221
   14MOL   C510 7816   0.896   2.712   2.579  0.0534 -0.8696 -0.6164
   14MOL   C511 7817   0.816   2.823   2.665  0.1823  0.1982  0.7659
   14MOL   C512 7818   0.689   2.770   2.730 -0.1224  0.6255 -0.8024
   14MOL   O513 7819   0.630   2.863   2.815 -0.0379  0.4479 -0.0097
   14MOL   C514 7820   0.721   2.633   2.804 -0.1195 -0.5150  0.1362
   14MOL   C515 7821   0.603   2.554   2.864 -0.6407  0.5409 -0.6237
   14MOL   C516 7822   0.798   2.534   2.718 -0.3911 -1.4420 -0.3832
   14MOL   C517 7823   0.921   2.594   2.656 -0.3926 -0.2195 -0.9274
   14MOL   H518 7824   1.136   2.892   2.395  0.2770  0.7745  2.2514
   14MOL   H519 7825   0.976   2.848   2.325 -2.2641  1.8767  0.6996
   14MOL   H520 7826   1.058   2.669   2.454 -1.1004  1.4810 -1.5002
   14MOL   H521 7827   1.157   2.860   2.596  1.5861 -0.2028 -1.1840
   14MOL   H522 7828   0.827   2.685   2.499  1.0041 -0.1332 -1.7050
   14MOL   H523 7829   0.888   2.867   2.733  2.5049 -2.4540  0.1194
   14MOL   H524 7830   0.793   2.901   2.593 -0.8724 -0.0247  0.8511
   14MOL   H525 7831   0.619   2.742   2.651 -2.0262  1.4350  0.5863
   14MOL   H526 7832   0.705   2.895   2.863  1.1212  0.7509 -1.9638
   14MOL   H527 7833   0.783   2.646   2.893  1.4074  0.9794 -1.1104
   14MOL   H528 7834   0.547   2.618   2.933  2.1411  1.1419  1.1845
   14MOL   H529 7835   0.536   2.519   2.786 -1.0870 -1.0998  0.4659
   14MOL   H530 7836   0.726   2.496   2.647 -2.5628  1.4370  0.2023
   14MOL   H531 7837   0.825   2.449   2.782 -0.6566 -0.4008  1.1422
   14MOL   H532 7838   0.972   2.518   2.598  0.0187 -2.1028  1.8277
   14MOL   H533 7839   0.988   2.623   2.737 -1.2034  0.8651 -0.6338
   14MOL   O534 7840   0.647   2.445   2.945 -0.0015 -0.4838  0.4836
   14MOL   C535 7841   0.551   2.340   2.979 -0.1413  0.3965  0.3985
   14MOL   C536 7842   0.629   2.244   3.072 -0.3240  0.1070 -0.1772
   14MOL   O537 7843   0.685   2.324   3.169  0.2014 -0.2198 -0.2241
   14MOL   C538 7844   0.534   2.136   3.137 -0.4289 -0.0534  0.8698
   14MOL   C539 7845   0.608   2.063   3.254  0.2833  0.0554  0.3969
   14MOL   C540 7846   0.528   1.952   3.318  0.0739 -0.8829 -0.3639
   14MOL   O541 7847   0.614   1.877   3.408  0.4901  0.0637 -0.1721
   14MOL   C542 7848   0.475   1.853   3.216  0.3254 -0.0921 -0.0621
   14MOL   C543 7849   0.398   1.738   3.275 -0.5856 -0.1521  0.4740
   14MOL   C544 7850   0.396   1.930   3.107  0.7847  0.9287 -0.7413
   14MOL   C545 7851   0.487   2.031   3.040  0.1604 -0.0965 -0.2890
   14MOL   H546 7852   0.527   2.285   2.889 -1.9512 -0.2259  1.2447
   14MOL   H547 7853   0.457   2.368   3.027  0.0122  0.2641  0.7816
   14MOL   H548 7854   0.704   2.199   3.008 -0.0677  0.5216 -0.1720
   14MOL   H549 7855   0.688   2.403   3.117 -1.6334 -0.4534 -0.7022
   14MOL   H550 7856   0.440   2.183   3.167 -0.5706 -0.4727  1.0949
   14MOL   H551 7857   0.701   2.032   3.207 -0.1561 -2.4969  1.1265
   14MOL   H552 7858   0.642   2.135   3.329  0.2104  0.9305 -0.3998
   14MOL   H553 7859   0.442   1.991   3.373  0.4948  0.0909 -0.4024
   14MOL   H554 7860   0.564   1.875   3.488  1.7326 -1.7514  0.6058
   14MOL   H555 7861   0.560   1.814   3.160 -1.3724 -2.8337 -0.7981
   14MOL   H556 7862   0.465   1.664   3.319 -3.1083 -2.7962  0.0439
   14MOL   H557 7863   0.335   1.778   3.354 -0.3877  0.2789  0.4196
   14MOL   H558 7864   0.306   1.972   3.151 -0.6431 -2.6710 -0.0600
   14MOL   H559 7865   0.363   1.860   3.029 -0.6974  0.0909  0.6180
   14MOL   H560 7866   0.421   2.064   2.959 -0.8764 -1.5943 -0.0693
   14MOL   H561 7867   0.572   1.988   2.989  0.5588  1.2414 -0.7644
   14MOL   H562 7868   0.337   1.692   3.198 -0.7280 -0.2642  0.6551
   15MOL     O1 7869   4.414   6.691   2.765 -0.0037 -0.4191 -0.4745
   15MOL     C2 7870   4.474   6.733   2.891  0.3205  0.0436  0.6042
   15MOL     C3 7871   4.420   6.866   2.939 -0.3581  0.4612  0.2992
   15MOL     O4 7872   4.393   6.952   2.830  0.4874  0.4186  0.7023
   15MOL     C5 7873   4.292   6.850   3.027 -0.4297 -0.5540 -0.0844
   15MOL     C6 7874   4.173   6.807   2.937 -0.0086 -0.0396 -0.3177
   15MOL     C7 7875   4.055   6.776   3.036  0.2292 -0.6517 -0.7502
   15MOL     O8 7876   3.943   6.746   2.963 -0.0344  0.4095  0.1791
   15MOL     C9 7877   4.026   6.890   3.132 -0.2045  0.0369  0.4333
   15MOL    C10 7878   3.907   6.890   3.228 -0.4843 -0.0069  0.1122
   15MOL    C11 7879   4.158   6.938   3.203  0.9270 -0.3790 -0.1918
   15MOL    C12 7880   4.262   6.972   3.102  0.3265  0.0518  0.0903
   15MOL    H13 7881   4.580   6.745   2.868 -0.2366  1.1517 -1.4684
   15MOL    H14 7882   4.464   6.647   2.957  0.3542  0.4192  1.1005
   15MOL    H15 7883   4.493   6.915   3.004  0.1055  2.7897 -1.9138
   15MOL    H16 7884   4.471   6.966   2.779 -0.7787  4.5959 -0.3148
   15MOL    H17 7885   4.313   6.772   3.100 -1.3616 -2.0486 -1.3595
   15MOL    H18 7886   4.140   6.885   2.869  2.1631  1.7783  0.6740
   15MOL    H19 7887   4.196   6.728   2.865 -1.4904  0.7509 -1.6896
   15MOL    H20 7888   4.093   6.694   3.098  1.7938  0.5040 -0.1629
   15MOL    H21 7889   3.893   6.692   3.023  1.0536  1.8468  2.4567
   15MOL    H22 7890   4.000   6.971   3.063 -0.0329  1.0592  1.5544
   15MOL    H23 7891   3.819   6.850   3.177 -1.4497  0.7175  1.1797
   15MOL    H24 7892   3.927   6.838   3.322  1.3231 -0.5208 -0.5288
   15MOL    H25 7893   4.193   6.868   3.278 -0.6688  0.7619  1.6590
   15MOL    H26 7894   4.133   7.022   3.267  0.3002 -0.0483 -0.8595
   15MOL    H27 7895   4.350   7.010   3.155  2.3003 -0.1569 -2.9490
   15MOL    H28 7896   4.233   7.047   3.029 -0.5411 -0.8795 -0.5358
   15MOL    H29 7897   4.337   6.745   2.756  0.4639 -0.0715 -2.5639
   15MOL    O30 7898   3.881   7.024   3.263  0.1822  0.6995  1.3308
   15MOL    C31 7899   3.747   7.037   3.315 -0.2656 -0.0828 -0.5632
   15MOL    C32 7900   3.753   7.183   3.353  0.4750 -0.3215  0.0977
   15MOL    O33 7901   3.766   7.249   3.229  0.1477  0.0113 -0.0321
   15MOL    C34 7902   3.632   7.226   3.436 -0.7676 -0.2139 -0.2407
   15MOL    C35 7903   3.646   7.371   3.487 -0.6872  0.6510  0.0777
   15MOL    C36 7904   3.530   7.430   3.571 -0.6905 -0.3532  0.3393
   15MOL    O37 7905   3.569   7.560   3.606  0.3857  0.2568  0.0529
   15MOL    C38 7906   3.502   7.345   3.690  0.0191  0.5759 -0.5432
   15MOL    C39 7907   3.388   7.398   3.775 -0.1072 -0.3042 -0.5678
   15MOL    C40 7908   3.480   7.201   3.646  0.1419 -0.3160 -0.4601
   15MOL    C41 7909   3.598   7.141   3.564  0.4433 -0.2591 -0.4081
   15MOL    H42 7910   3.729   6.985   3.409 -1.0324  0.8819 -0.1671
   15MOL    H43 7911   3.677   7.028   3.232 -1.6352  1.5343  0.3714
   15MOL    H44 7912   3.840   7.199   3.417  0.5473 -1.8008  0.3918
   15MOL    H45 7913   3.834   7.199   3.187  1.1153  0.5311  0.9163
   15MOL    H46 7914   3.550   7.218   3.366 -0.4843 -0.5097 -0.5398
   15MOL    H47 7915   3.739   7.370   3.545 -0.7198  2.2671  0.1648
   15MOL    H48 7916   3.663   7.440   3.405  0.0671  0.6817  0.2588
   15MOL    H49 7917   3.443   7.435   3.504 -0.1863  3.3987 -0.1505
   15MOL    H50 7918   3.564   7.616   3.530 -0.0018  0.2322  0.0600
   15MOL    H51 7919   3.594   7.355   3.748 -0.0091  0.3752 -0.4640
   15MOL    H52 7920   3.411   7.498   3.809  1.5813 -0.2352 -1.7977
   15MOL    H53 7921   3.307   7.400   3.702 -1.7070 -3.2073  1.0301
   15MOL    H54 7922   3.381   7.185   3.602 -0.3492  1.6575 -0.0909
   15MOL    H55 7923   3.480   7.143   3.738  1.7890 -2.0331 -1.5034
   15MOL    H56 7924   3.563   7.040   3.542  0.6387 -0.0894 -1.4956
   15MOL    H57 7925   3.686   7.138   3.629  1.6828  1.7672 -1.9337
   15MOL    O58 7926   3.342   7.309   3.882 -0.2340 -0.0607 -0.5034
   15MOL    C59 7927   3.243   7.370   3.966  0.2825 -0.1508  0.2489
   15MOL    C60 7928   3.162   7.268   4.054  0.2450 -0.8718 -0.1455
   15MOL    O61 7929   3.117   7.190   3.942 -0.5077  0.0050 -0.2122
   15MOL    C62 7930   3.239   7.201   4.163 -0.4776  0.4612 -0.7633
   15MOL    C63 7931   3.186   7.054   4.192  0.1813  0.0485  0.1051
   15MOL    C64 7932   3.249   6.989   4.322  0.0243 -0.4293 -0.5928
   15MOL    O65 7933   3.185   6.877   4.360  0.3677  0.2939 -0.3517
   15MOL    C66 7934   3.264   7.080   4.438 -0.2467 -0.4383 -0.1745
   15MOL    C67 7935   3.352   7.017   4.550  0.0206  0.4519 -0.4071
   15MOL    C68 7936   3.307   7.221   4.410  0.4852  0.6490 -0.0020
   15MOL    C69 7937   3.226   7.278   4.299  0.1654  0.2528 -0.2226
   15MOL    H70 7938   3.165   7.414   3.904 -0.7311  0.7942  2.1417
   15MOL    H71 7939   3.299   7.446   4.019  0.6426 -2.7494  3.8266
   15MOL    H72 7940   3.083   7.330   4.097  0.0689 -1.5461  0.5160
   15MOL    H73 7941   3.196   7.175   3.893  0.0195 -3.6652  1.5882
   15MOL    H74 7942   3.343   7.197   4.128  0.1097  0.9176  0.8666
   15MOL    H75 7943   3.077   7.050   4.189 -0.0247  2.7666  2.2629
   15MOL    H76 7944   3.214   6.991   4.108 -0.7618  2.2460 -1.9257
   15MOL    H77 7945   3.349   6.955   4.292  0.3939 -0.7888  0.9825
   15MOL    H78 7946   3.251   6.809   4.359 -0.9034 -0.9604 -0.0211
   15MOL    H79 7947   3.168   7.100   4.485  0.3369 -0.2907  0.9792
   15MOL    H80 7948   3.357   7.090   4.630 -2.0544 -2.8980  2.9334
   15MOL    H81 7949   3.308   6.930   4.598 -0.8179  1.1470  0.1012
   15MOL    H82 7950   3.415   7.234   4.402  0.3247  0.8965 -1.9815
   15MOL    H83 7951   3.305   7.278   4.503  0.0782 -0.4596  0.6823
   15MOL    H84 7952   3.251   7.383   4.281 -1.8300  0.4915 -1.7424
   15MOL    H85 7953   3.123   7.285   4.331  0.1368  0.3562 -0.3340
   15MOL    O86 7954   3.486   6.996   4.502  0.2691 -0.0349 -0.4363
   15MOL    C87 7955   3.560   6.899   4.564  0.4776 -0.1969 -0.2441
   15MOL    C88 7956   3.697   6.890   4.495  0.1387  0.5146 -0.1699
   15MOL    O89 7957   3.683   6.829   4.369  0.5639  0.0245 -0.3106
   15MOL    C90 7958   3.763   7.029   4.458  0.4196 -0.2344 -0.0531
   15MOL    C91 7959   3.901   7.005   4.392 -0.2633 -0.1442  0.1671
   15MOL    C92 7960   3.988   7.135   4.366 -0.3467  0.2688 -0.7554
   15MOL    O93 7961   4.121   7.100   4.343 -0.2986 -0.1047 -0.3000
   15MOL    C94 7962   3.989   7.225   4.497  0.2647  0.0025  0.4336
   15MOL    C95 7963   4.060   7.360   4.473  0.1588  0.0922 -0.3852
   15MOL    C96 7964   3.847   7.243   4.553 -0.3884  0.2604 -0.3002
   15MOL    C97 7965   3.777   7.112   4.586  0.5798 -0.1876 -0.4892
   15MOL    H98 7966   3.505   6.806   4.582 -1.0694  0.8940  0.8435
   15MOL    H99 7967   3.580   6.926   4.668  0.9472 -1.1128 -0.0916
   15MOL   H100 7968   3.758   6.829   4.562 -0.1243  0.3562 -0.0753
   15MOL   H101 7969   3.718   6.892   4.308 -0.0580  0.4897 -0.1990
   15MOL   H102 7970   3.701   7.088   4.391 -1.2509 -3.3202 -1.3160
   15MOL   H103 7971   3.949   6.939   4.465  0.8812  1.3516  0.8105
   15MOL   H104 7972   3.905   6.943   4.303  1.1259  0.7246 -0.4001
   15MOL   H105 7973   3.950   7.192   4.282  1.1593  0.0091 -1.6421
   15MOL   H106 7974   4.120   7.038   4.271  0.1161 -1.2190  0.6483
   15MOL   H107 7975   4.046   7.168   4.570 -1.6215 -3.8616 -0.9726
   15MOL   H108 7976   4.087   7.409   4.567  0.8939  0.3956 -0.7537
   15MOL   H109 7977   4.155   7.349   4.422  0.6272 -0.2332  0.5307
   15MOL   H110 7978   3.789   7.307   4.486 -1.1360 -2.1282 -1.9841
   15MOL   H111 7979   3.838   7.298   4.646  1.4215 -2.0644  1.3064
   15MOL   H112 7980   3.677   7.134   4.623  0.6147 -1.7590  0.5864
   15MOL   H113 7981   3.843   7.064   4.659  1.4720 -0.6451 -1.5823
   15MOL   O114 7982   3.972   7.441   4.394  0.1120  0.3740 -0.4376
   15MOL   C115 7983   3.996   7.580   4.428  0.0770 -0.2249 -0.2221
   15MOL   C116 7984   3.900   7.624   4.540 -0.2841  0.1121 -0.4803
   15MOL   O117 7985   3.954   0.109   4.611  0.0146 -0.1421 -0.1628
   15MOL   C118 7986   3.756   0.023   4.488  0.5325 -0.1243  0.2960
   15MOL   C119 7987   3.748   0.165   4.417 -0.3633 -1.2738  0.5129
   15MOL   C120 7988   3.609   0.188   4.350 -1.2343 -0.0941 -0.5953
   15MOL   O121 7989   3.621   0.311   4.286 -0.7606  1.0602 -0.8179
   15MOL   C122 7990   3.503   0.174   4.457 -0.2155  0.2585  1.2934
   15MOL   C123 7991   3.358   0.178   4.398 -0.0872  0.3602 -0.1387
   15MOL   C124 7992   3.519   0.053   4.547  0.1454 -0.2228  0.5788
   15MOL   C125 7993   3.652   0.040   4.602  0.4148 -0.5389  0.0016
   15MOL   H126 7994   3.978   7.627   4.332 -1.6048 -0.8238 -0.2084
   15MOL   H127 7995   4.098   7.618   4.440 -0.2978  0.7537 -0.0663
   15MOL   H128 7996   3.901   7.545   4.615 -1.9609  0.2661 -0.2754
   15MOL   H129 7997   3.895   0.117   4.684 -1.4273  3.5024 -1.6237
   15MOL   H130 7998   3.712   7.584   4.415 -0.0662  1.3158 -0.7080
   15MOL   H131 7999   3.771   0.249   4.484 -1.7990 -0.0065 -0.5381
   15MOL   H132 8000   3.822   0.168   4.337 -2.2444  0.8177 -1.2178
   15MOL   H133 8001   3.605   0.105   4.279 -0.4736  1.0462 -1.9960
   15MOL   H134 8002   3.699   0.301   4.233 -1.6395 -0.7992 -1.8443
   15MOL   H135 8003   3.511   0.261   4.522  0.8596  1.0531  0.1034
   15MOL   H136 8004   3.284   0.179   4.478 -1.9644  0.8258 -1.8340
   15MOL   H137 8005   3.361   0.270   4.339  2.1004  1.6387  1.8754
   15MOL   H138 8006   3.488   7.600   4.482 -2.0285  1.3517 -0.4485
   15MOL   H139 8007   3.439   0.060   4.621 -0.1139 -0.1550  0.2960
   15MOL   H140 8008   3.669   7.584   4.668  0.2749 -0.6661 -0.1252
   15MOL   H141 8009   3.666   0.132   4.658 -0.2467  0.0657 -0.8265
   15MOL   O142 8010   3.334   0.066   4.314 -0.1873 -0.2300  0.7311
   15MOL   C143 8011   3.211   0.073   4.245 -0.1429  0.1055  0.5114
   15MOL   C144 8012   3.230   0.153   4.110  0.1952  0.4854 -1.0246
   15MOL   O145 8013   3.317   0.067   4.040 -0.7667  0.1224  0.1569
   15MOL   C146 8014   3.090   0.183   4.036 -0.0516 -0.3851  0.3981
   15MOL   C147 8015   2.995   0.065   4.015  0.1650  0.0909  0.9130
   15MOL   C148 8016   2.865   0.106   3.937  0.0163 -0.2583 -0.1815
   15MOL   O149 8017   2.789   7.616   3.913  0.0160  0.4021  0.5858
   15MOL   C150 8018   2.901   0.180   3.803  0.1599 -0.2781  0.4991
   15MOL   C151 8019   2.770   0.220   3.714  0.0001  0.5135 -0.4345
   15MOL   C152 8020   2.981   0.301   3.837  0.1011 -0.0303 -0.0993
   15MOL   C153 8021   3.110   0.254   3.903 -0.7786 -0.4833 -0.4974
   15MOL   H154 8022   3.142   0.125   4.311 -0.5836  1.4929 -0.9976
   15MOL   H155 8023   3.174   7.601   4.229 -2.1690  0.7625  0.9283
   15MOL   H156 8024   3.293   0.241   4.126 -0.1878  0.7444 -0.9329
   15MOL   H157 8025   3.357   0.027   4.115 -0.7602 -2.7709 -1.3452
   15MOL   H158 8026   3.043   0.259   4.098  0.7258 -0.9710  1.7379
   15MOL   H159 8027   3.046   7.619   3.955 -1.9664 -2.0090  1.6404
   15MOL   H160 8028   2.967   0.013   4.107 -1.9439 -1.8962 -0.8067
   15MOL   H161 8029   2.807   0.178   3.995  0.2486  1.0382 -1.5017
   15MOL   H162 8030   2.842   7.538   3.911 -0.0232  0.3610 -2.4329
   15MOL   H163 8031   2.972   0.123   3.743  0.1439 -1.0198  1.1669
   15MOL   H164 8032   2.712   0.128   3.721  1.1219 -0.0372  2.5883
   15MOL   H165 8033   2.698   0.284   3.765 -0.2678  0.0147 -0.1776
   15MOL   H166 8034   2.923   0.365   3.903  1.4820 -1.7716  2.8805
   15MOL   H167 8035   2.998   0.372   3.756  1.1870 -2.1338 -1.7903
   15MOL   H168 8036   3.163   0.345   3.930 -0.0042 -1.3066  0.8178
   15MOL   H169 8037   3.164   0.192   3.832  1.0974  0.4289  0.0926
   15MOL   O170 8038   2.808   0.258   3.588 -0.2950 -0.0773 -0.5123
   15MOL   C171 8039   2.706   0.327   3.518  0.0608 -1.1285  0.0562
   15MOL   C172 8040   2.737   0.477   3.532 -0.1897  0.4298 -0.3567
   15MOL   O173 8041   2.863   0.492   3.481 -0.1675  0.2519  0.0679
   15MOL   C174 8042   2.640   0.583   3.473 -0.0259  0.5109 -0.3800
   15MOL   C175 8043   2.622   0.575   3.315  0.4413  0.2416  0.4283
   15MOL   C176 8044   2.724   0.660   3.229  0.5667  0.8014  0.1937
   15MOL   O177 8045   2.849   0.593   3.225 -0.0126 -0.0558  0.0535
   15MOL   C178 8046   2.752   0.806   3.280  0.5658 -0.6980 -0.1183
   15MOL   C179 8047   2.652   0.928   3.238  0.2153 -0.9286  0.3085
   15MOL   C180 8048   2.773   0.807   3.433  1.2926  0.5099  0.7368
   15MOL   C181 8049   2.663   0.727   3.513  0.0895 -0.5919 -0.1502
   15MOL   H182 8050   2.606   0.299   3.551  0.3682 -1.5607  0.6246
   15MOL   H183 8051   2.701   0.299   3.413  0.1169  3.2758 -1.2357
   15MOL   H184 8052   2.740   0.501   3.639 -0.3784  2.5726 -0.7989
   15MOL   H185 8053   2.906   0.408   3.480  0.6870  0.6310  1.7882
   15MOL   H186 8054   2.541   0.555   3.509  0.7405 -1.0380  0.5802
   15MOL   H187 8055   2.637   0.473   3.280  0.0391  0.9625 -1.9248
   15MOL   H188 8056   2.526   0.620   3.289  0.9175  0.7653 -0.4673
   15MOL   H189 8057   2.682   0.643   3.129  1.2492  2.6321 -0.4272
   15MOL   H190 8058   2.866   0.574   3.315  0.3748 -1.9966 -0.4155
   15MOL   H191 8059   2.842   0.842   3.229  1.1040 -1.1672  0.4932
   15MOL   H192 8060   2.553   0.912   3.278 -0.2805  2.3143  0.5083
   15MOL   H193 8061   2.683   1.023   3.282  1.1757 -1.4526  0.7826
   15MOL   H194 8062   2.789   0.908   3.469 -0.9618  1.2518 -0.2283
   15MOL   H195 8063   2.863   0.750   3.456 -0.0199 -2.0382 -0.2237
   15MOL   H196 8064   2.564   0.772   3.512  0.1960 -0.3630 -0.5360
   15MOL   H197 8065   2.695   0.731   3.617  0.0793 -2.3076 -0.0675
   15MOL   O198 8066   2.644   0.939   3.101 -0.0976  0.0488 -0.0951
   15MOL   C199 8067   2.544   1.032   3.051  1.1117 -0.2160  0.2884
   15MOL   C200 8068   2.582   1.044   2.899  0.0864 -0.3018  0.1811
   15MOL   O201 8069   2.719   1.075   2.894  0.1407  0.3972 -0.3772
   15MOL   C202 8070   2.538   0.913   2.816 -0.1061  0.4071 -0.2125
   15MOL   C203 8071   2.602   0.785   2.871  0.0064  1.0693 -0.1461
   15MOL   C204 8072   2.571   0.662   2.781  0.0648  0.2099 -0.1269
   15MOL   O205 8073   2.650   0.561   2.837 -0.1270 -0.1800 -0.2222
   15MOL   C206 8074   2.592   0.687   2.628  0.1949 -0.1179 -0.0464
   15MOL   C207 8075   2.543   0.562   2.546  0.0926  0.2238 -0.4981
   15MOL   C208 8076   2.520   0.810   2.584 -0.2069  0.1194 -0.3342
   15MOL   C209 8077   2.572   0.929   2.668  0.2035  0.1424  0.2243
   15MOL   H210 8078   2.535   1.128   3.100  0.3280  0.4677 -1.1697
   15MOL   H211 8079   2.441   0.999   3.058  1.2885 -0.1229  4.0079
   15MOL   H212 8080   2.525   1.131   2.866  3.1785  1.7854  0.0698
   15MOL   H213 8081   2.770   1.016   2.947 -1.7035  0.3517  1.4140
   15MOL   H214 8082   2.431   0.900   2.831 -0.5151  2.2917 -1.3916
   15MOL   H215 8083   2.710   0.799   2.875  0.4104 -2.0804  1.6820
   15MOL   H216 8084   2.563   0.742   2.963 -0.0602 -2.3366 -1.6573
   15MOL   H217 8085   2.468   0.632   2.799 -0.0008  1.4622  1.8794
   15MOL   H218 8086   2.599   0.481   2.842 -0.3457 -0.1033 -1.0536
   15MOL   H219 8087   2.699   0.700   2.616  0.5600 -0.5433  2.5690
   15MOL   H220 8088   2.616   0.486   2.571 -0.6853 -0.0849  0.9341
   15MOL   H221 8089   2.446   0.523   2.579  0.8183 -2.3427 -1.2966
   15MOL   H222 8090   2.414   0.788   2.593 -0.1065  0.1532  1.0205
   15MOL   H223 8091   2.536   0.824   2.477 -2.4976 -1.7198 -0.9465
   15MOL   H224 8092   2.523   1.015   2.622  1.1951  0.0525 -1.0357
   15MOL   H225 8093   2.678   0.949   2.649 -0.1351 -1.1020 -3.3769
   15MOL   O226 8094   2.535   0.600   2.411 -0.2233 -0.8227  0.3947
   15MOL   C227 8095   2.528   0.505   2.308  0.3944  0.5103  0.4893
   15MOL   C228 8096   2.533   0.579   2.177 -0.2070 -0.2024  0.3218
   15MOL   O229 8097   2.645   0.659   2.180  0.7394  0.6287 -0.0996
   15MOL   C230 8098   2.528   0.479   2.059 -0.1264 -0.0864 -0.2897
   15MOL   C231 8099   2.521   0.564   1.930 -0.9431  0.0569  0.1056
   15MOL   C232 8100   2.526   0.479   1.806 -0.0989 -0.0894  0.3153
   15MOL   O233 8101   2.504   0.560   1.698 -0.2871  0.1361  0.0480
   15MOL   C234 8102   2.420   0.369   1.810 -0.5321 -0.5752 -0.3347
   15MOL   C235 8103   2.426   0.277   1.686  0.2933 -0.3552 -0.2116
   15MOL   C236 8104   2.428   0.282   1.936  0.0695 -0.0142  0.3876
   15MOL   C237 8105   2.414   0.380   2.054 -0.6412  0.1064  0.5967
   15MOL   H238 8106   2.429   0.461   2.317  0.4451 -0.1598 -1.9626
   15MOL   H239 8107   2.600   0.424   2.318  0.9938  0.8884 -0.6713
   15MOL   H240 8108   2.446   0.643   2.158  0.8631  0.7663 -1.5647
   15MOL   H241 8109   2.670   0.664   2.271  2.4038  1.6867 -0.5909
   15MOL   H242 8110   2.618   0.418   2.065  0.7187  1.3076  2.0641
   15MOL   H243 8111   2.435   0.630   1.938  0.2774  2.0694 -2.6299
   15MOL   H244 8112   2.602   0.636   1.920 -1.1348  0.1632 -0.6667
   15MOL   H245 8113   2.620   0.426   1.792 -0.1103  0.2336 -1.0723
   15MOL   H246 8114   2.555   0.526   1.626  1.5899  0.7161  1.0708
   15MOL   H247 8115   2.319   0.410   1.805 -0.2221  0.6522  2.5498
   15MOL   H248 8116   2.408   0.320   1.588 -2.8417  0.2807  0.5748
   15MOL   H249 8117   2.524   0.231   1.680 -0.7538 -2.4728 -1.4608
   15MOL   H250 8118   2.516   0.219   1.940  1.1912  1.3375 -2.0024
   15MOL   H251 8119   2.343   0.215   1.951  0.4778 -0.7504 -0.5685
   15MOL   H252 8120   2.432   0.322   2.145 -0.0979  2.1509  1.8117
   15MOL   H253 8121   2.315   0.425   2.053  0.0778  1.7250  0.4599
   15MOL   O254 8122   2.338   0.170   1.704 -0.1865 -0.3865 -0.2398
   15MOL   C255 8123   2.336   0.084   1.584 -0.2550  0.0444 -0.1936
   15MOL   C256 8124   2.249   7.584   1.585 -0.5012  0.3766 -0.4419
   15MOL   O257 8125   2.282   7.501   1.476 -0.0121 -0.3364 -0.0580
   15MOL   C258 8126   2.257   7.515   1.727 -0.0852 -0.0606 -0.3593
   15MOL   C259 8127   2.391   7.437   1.751  0.3284  0.2088 -0.3524
   15MOL   C260 8128   2.390   7.368   1.884 -0.2001 -0.0068 -0.3834
   15MOL   O261 8129   2.512   7.292   1.889  0.4537  0.0107  0.0636
   15MOL   C262 8130   2.268   7.280   1.913 -0.6230 -0.7257  0.1220
   15MOL   C263 8131   2.279   7.214   2.049  0.3729  0.7650  0.0495
   15MOL   C264 8132   2.143   7.374   1.891  0.1768  0.3404  0.5894
   15MOL   C265 8133   2.140   7.423   1.741  0.2498  0.9238 -0.7413
   15MOL   H266 8134   2.439   0.060   1.557 -0.1021  0.2909  0.1602
   15MOL   H267 8135   2.296   0.143   1.502 -2.0436  2.9468  2.6533
   15MOL   H268 8136   2.148   7.623   1.573 -1.2017 -1.2586 -0.0067
   15MOL   H269 8137   2.375   7.483   1.479  0.1640  0.5223 -0.4469
   15MOL   H270 8138   2.261   7.586   1.809 -3.3763  0.4807 -0.5780
   15MOL   H271 8139   2.392   7.353   1.682 -0.2255  0.0851 -0.2084
   15MOL   H272 8140   2.480   7.496   1.728  0.1318  0.4986 -0.3680
   15MOL   H273 8141   2.388   7.442   1.964  0.1543  0.3203 -0.6743
   15MOL   H274 8142   2.545   7.285   1.977 -0.8245  0.9174  0.6417
   15MOL   H275 8143   2.264   7.193   1.846 -0.9820  1.1603 -2.3673
   15MOL   H276 8144   2.375   7.170   2.075  0.4343  0.2670 -1.0133
   15MOL   H277 8145   2.260   7.293   2.121  1.3423  0.8378  0.2339
   15MOL   H278 8146   2.144   7.452   1.968  1.4207  1.9054 -0.9715
   15MOL   H279 8147   2.050   7.319   1.906 -0.4368  1.2418  0.0981
   15MOL   H280 8148   2.044   7.471   1.720 -0.1118  0.0899 -1.0476
   15MOL   H281 8149   2.137   7.346   1.663  1.8928  0.6087 -0.5060
   15MOL   O282 8150   2.174   7.120   2.060  0.1294  0.8647  0.1318
   15MOL   C283 8151   2.158   7.093   2.201  0.3340 -0.2240  0.8434
   15MOL   C284 8152   2.025   7.014   2.215 -0.1434  0.0222  0.3307
   15MOL   O285 8153   1.937   7.063   2.123 -0.6193  0.2665  0.5945
   15MOL   C286 8154   2.046   6.862   2.195 -0.8406  0.2200 -0.1679
   15MOL   C287 8155   2.101   6.821   2.055  0.8768  0.3975  0.5424
   15MOL   C288 8156   2.095   6.667   2.039 -0.0612 -0.5117  0.1122
   15MOL   O289 8157   2.158   6.628   1.921  0.0032 -0.0338 -0.2144
   15MOL   C290 8158   1.948   6.617   2.040 -0.0507  0.0031  0.7976
   15MOL   C291 8159   1.924   6.466   2.001 -0.6443  0.2722  0.4430
   15MOL   C292 8160   1.885   6.643   2.176 -0.5147 -0.1229 -0.1971
   15MOL   C293 8161   1.902   6.791   2.225 -0.6904 -0.3579 -0.3522
   15MOL   H294 8162   2.140   7.189   2.251 -1.5310  1.2686 -2.4831
   15MOL   H295 8163   2.251   7.056   2.243  0.6752 -0.1118  0.2047
   15MOL   H296 8164   1.983   7.025   2.315 -3.7307 -2.9545 -0.7401
   15MOL   H297 8165   1.986   7.125   2.071  0.1294 -0.9144 -0.1292
   15MOL   H298 8166   2.123   6.825   2.263  1.2385 -0.2041 -2.6898
   15MOL   H299 8167   2.044   6.883   1.986 -1.7640  1.2098  3.3510
   15MOL   H300 8168   2.205   6.850   2.039  2.1807 -3.4121  1.4482
   15MOL   H301 8169   2.146   6.620   2.123  1.5594 -1.1621 -1.2001
   15MOL   H302 8170   2.237   6.580   1.940  0.1372 -1.4854 -3.9345
   15MOL   H303 8171   1.897   6.683   1.970  0.0348  1.5824  2.1977
   15MOL   H304 8172   1.960   6.432   1.903  0.1935  1.1512  0.4277
   15MOL   H305 8173   1.989   6.410   2.068  1.8193  1.4084 -0.9003
   15MOL   H306 8174   1.920   6.568   2.248 -0.8716 -0.9833 -0.9020
   15MOL   H307 8175   1.779   6.619   2.173 -0.3780 -0.8973  0.7626
   15MOL   H308 8176   1.889   6.781   2.333 -2.0405 -0.0359 -0.4740
   15MOL   H309 8177   1.820   6.850   2.183 -0.6500  2.2859  3.0491
   15MOL   O310 8178   1.793   6.427   2.016 -0.2316  0.0857  0.4947
   15MOL   C311 8179   1.708   6.472   1.903  0.2351  0.1015 -0.2483
   15MOL   C312 8180   1.697   6.352   1.812 -0.6640  0.1927  0.0099
   15MOL   O313 8181   1.677   6.236   1.896 -0.8275  0.2530 -0.1195
   15MOL   C314 8182   1.590   6.357   1.699 -0.0254  0.0139  0.5815
   15MOL   C315 8183   1.447   6.345   1.745  0.2489  0.9752 -0.4546
   15MOL   C316 8184   1.355   6.352   1.625  0.1901 -0.1479 -0.1196
   15MOL   O317 8185   1.226   6.348   1.677 -0.9237 -0.7028 -0.1633
   15MOL   C318 8186   1.377   6.238   1.519 -0.3559 -0.4399  0.1884
   15MOL   C319 8187   1.262   6.236   1.418  0.0989  0.4368  0.2224
   15MOL   C320 8188   1.523   6.260   1.465 -0.1603  0.6921 -0.1437
   15MOL   C321 8189   1.623   6.263   1.582 -0.2927  0.9710  0.2280
   15MOL   H322 8190   1.758   6.553   1.849  2.0880 -0.2684  0.8839
   15MOL   H323 8191   1.606   6.501   1.928 -0.2040 -0.9032 -0.8333
   15MOL   H324 8192   1.791   6.344   1.757 -0.8522  2.3809 -0.6459
   15MOL   H325 8193   1.691   6.275   1.981 -1.2309 -4.3052  2.1730
   15MOL   H326 8194   1.590   6.459   1.660 -0.3710 -0.9549 -2.0469
   15MOL   H327 8195   1.436   6.246   1.789 -0.1913  1.7863  1.3014
   15MOL   H328 8196   1.426   6.407   1.832  1.9704  0.7113  0.1717
   15MOL   H329 8197   1.355   6.454   1.588 -0.2507  0.0762  0.4922
   15MOL   H330 8198   1.209   6.428   1.723 -0.5034  0.2253 -1.6040
   15MOL   H331 8199   1.375   6.140   1.568 -0.9119  0.5330  2.1612
   15MOL   H332 8200   1.167   6.251   1.470 -0.5595  3.9554 -1.8804
   15MOL   H333 8201   1.280   6.316   1.347 -0.1515 -0.9583 -1.4551
   15MOL   H334 8202   1.531   6.353   1.408  0.5378  1.2192  0.8009
   15MOL   H335 8203   1.548   6.184   1.391  0.5331  0.7291  0.0486
   15MOL   H336 8204   1.729   6.277   1.559  0.0838 -1.1018  0.6622
   15MOL   H337 8205   1.614   6.168   1.634  0.1911  0.7738 -0.0444
   15MOL   O338 8206   1.268   6.118   1.345  0.1057 -0.2204 -0.0736
   15MOL   C339 8207   1.169   6.088   1.248 -0.0741  0.0065  0.3796
   15MOL   C340 8208   1.216   5.981   1.142 -0.3432 -0.3857 -0.8922
   15MOL   O341 8209   1.109   5.935   1.065  0.2403 -0.0735  0.0922
   15MOL   C342 8210   1.319   6.018   1.036  0.0871  0.3132 -0.2763
   15MOL   C343 8211   1.363   5.904   0.939 -0.1644 -0.2678  0.0113
   15MOL   C344 8212   1.442   5.964   0.821  0.0188  0.4674  0.1311
   15MOL   O345 8213   1.487   5.852   0.750  0.3635  0.1908  0.1000
   15MOL   C346 8214   1.565   6.060   0.876  0.0997  0.0144 -0.0037
   15MOL   C347 8215   1.640   6.138   0.762  0.3075  0.6632 -0.4485
   15MOL   C348 8216   1.513   6.171   0.973 -0.5845  0.3078 -0.6664
   15MOL   C349 8217   1.443   6.091   1.082 -0.2339  0.2022  0.0200
   15MOL   H350 8218   1.149   6.181   1.194  1.5645  1.0310  1.4720
   15MOL   H351 8219   1.077   6.061   1.298 -1.6465  0.9351 -1.9449
   15MOL   H352 8220   1.253   5.905   1.210 -1.9811  0.1022  0.5914
   15MOL   H353 8221   1.056   5.876   1.116 -0.6136  1.6715  1.2734
   15MOL   H354 8222   1.262   6.090   0.976 -1.6751 -0.8943 -0.0777
   15MOL   H355 8223   1.419   5.830   0.996  0.6896  1.0890  0.9911
   15MOL   H356 8224   1.275   5.850   0.905 -1.4286  0.2968  2.2781
   15MOL   H357 8225   1.369   6.019   0.763 -1.6720  0.5485  2.2838
   15MOL   H358 8226   1.524   5.784   0.804  0.2414 -0.1022 -0.1805
   15MOL   H359 8227   1.636   5.999   0.931 -3.2905 -3.5232  0.7251
   15MOL   H360 8228   1.682   6.066   0.692 -1.7173 -0.7036 -0.3126
   15MOL   H361 8229   1.571   6.208   0.715  0.6166  2.2694  1.4147
   15MOL   H362 8230   1.438   6.235   0.925 -1.3945 -1.5056 -1.8572
   15MOL   H363 8231   1.579   6.250   1.010  0.4252 -0.7317 -0.2225
   15MOL   H364 8232   1.408   6.155   1.163 -0.4211 -1.9733  1.6992
   15MOL   H365 8233   1.514   6.035   1.144  0.8145 -0.6759 -1.9284
   15MOL   O366 8234   1.743   6.215   0.824  0.2793  0.0286  0.3875
   15MOL   C367 8235   1.867   6.145   0.843 -0.1365 -0.2178  0.1801
   15MOL   C368 8236   1.972   6.237   0.894  0.0324 -0.5251 -0.0930
   15MOL   O369 8237   2.000   6.330   0.794 -0.0077  0.3350 -0.4505
   15MOL   C370 8238   1.930   6.307   1.031 -0.1041 -0.4392  0.0086
   15MOL   C371 8239   2.022   6.429   1.056 -0.4618  0.1060 -0.4011
   15MOL   C372 8240   1.993   6.510   1.192  0.1067  0.0641  0.4811
   15MOL   O373 8241   2.090   6.612   1.215  0.1639 -0.6326  0.4174
   15MOL   C374 8242   1.999   6.410   1.311  0.0988 -0.0497 -0.6466
   15MOL   C375 8243   1.955   6.465   1.435 -0.1549  0.3801  0.8810
   15MOL   C376 8244   1.913   6.282   1.285 -0.3664 -0.6166  0.4350
   15MOL   C377 8245   1.936   6.211   1.149  0.2568 -0.3671  0.0760
   15MOL   H378 8246   1.902   6.092   0.754 -2.0318  0.6714 -1.1345
   15MOL   H379 8247   1.863   6.072   0.924  1.4128 -1.9084 -1.2067
   15MOL   H380 8248   2.059   6.173   0.909 -1.4744 -2.7989 -0.7427
   15MOL   H381 8249   1.926   6.389   0.791 -0.1092  0.1983 -0.6685
   15MOL   H382 8250   1.829   6.346   1.029  0.5566  1.4916  2.1391
   15MOL   H383 8251   2.128   6.406   1.050 -0.6315 -0.6541 -0.5736
   15MOL   H384 8252   2.004   6.497   0.973 -2.2124  0.7717  0.4909
   15MOL   H385 8253   1.888   6.540   1.192 -0.2454 -1.0545  3.1294
   15MOL   H386 8254   2.076   6.633   1.306  1.1748  0.2401  0.3825
   15MOL   H387 8255   2.103   6.377   1.319 -0.3924 -1.3636  0.6238
   15MOL   H388 8256   1.855   6.509   1.426 -0.4339 -0.4895 -0.4142
   15MOL   H389 8257   1.950   6.379   1.502 -0.1000 -2.1300 -2.2444
   15MOL   H390 8258   1.810   6.315   1.300  0.0929  0.1490  1.9771
   15MOL   H391 8259   1.925   6.202   1.358  1.2269  0.2228  1.1044
   15MOL   H392 8260   1.866   6.129   1.137 -2.1205  1.7448 -1.0106
   15MOL   H393 8261   2.040   6.181   1.147  0.8482  1.6098 -0.3580
   15MOL   O394 8262   2.048   6.569   1.475 -0.4223  0.9525 -0.0996
   15MOL   C395 8263   2.032   6.609   1.607  0.2300 -0.3370 -0.4832
   15MOL   C396 8264   2.130   6.729   1.628  0.4457  0.4112 -0.6437
   15MOL   O397 8265   2.259   6.687   1.633 -0.5148  0.2247 -0.7220
   15MOL   C398 8266   2.124   6.846   1.525  0.0363  0.0242  0.0490
   15MOL   C399 8267   2.219   6.961   1.566 -0.1334  0.9326 -0.2554
   15MOL   C400 8268   2.225   7.062   1.450  0.6010 -0.5983  0.1351
   15MOL   O401 8269   2.335   7.147   1.448 -0.0748 -0.1543 -0.1100
   15MOL   C402 8270   2.096   7.145   1.431 -0.0411  0.0450  0.4255
   15MOL   C403 8271   2.104   7.247   1.308 -0.4129  0.8997 -0.3756
   15MOL   C404 8272   1.974   7.042   1.425  0.0937  0.4180 -0.3221
   15MOL   C405 8273   1.981   6.912   1.513 -0.4672  0.2703  0.7017
   15MOL   H406 8274   2.060   6.523   1.668  0.9321  0.4769  0.3563
   15MOL   H407 8275   1.928   6.636   1.621  0.6042  1.5235 -1.1029
   15MOL   H408 8276   2.115   6.774   1.727  0.3519  0.4406 -0.6714
   15MOL   H409 8277   2.277   6.671   1.542 -0.6604 -1.6641 -0.4348
   15MOL   H410 8278   2.155   6.808   1.428  0.0938 -2.6930  1.0683
   15MOL   H411 8279   2.191   7.000   1.664  0.7029  2.6495 -0.6641
   15MOL   H412 8280   2.321   6.923   1.579 -0.8279 -0.8511  0.0492
   15MOL   H413 8281   2.242   6.995   1.366 -0.4507 -2.3636  1.2893
   15MOL   H414 8282   2.384   7.134   1.527 -0.2526  0.7024  0.1446
   15MOL   H415 8283   2.083   7.200   1.524  1.6340 -1.5028  1.6092
   15MOL   H416 8284   2.203   7.293   1.308  0.2288 -0.1698  4.4733
   15MOL   H417 8285   2.093   7.187   1.218  2.3185 -1.1688  0.5885
   15MOL   H418 8286   1.953   7.013   1.322  0.7462 -0.5045 -0.2076
   15MOL   H419 8287   1.885   7.098   1.452  0.6479  0.9866  0.3360
   15MOL   H420 8288   1.909   6.835   1.485 -0.3598 -0.4550  2.3177
   15MOL   H421 8289   1.952   6.946   1.613 -0.0204  0.0053  0.9273
   15MOL   O422 8290   1.994   7.328   1.309 -0.3883 -0.2155  0.3119
   15MOL   C423 8291   2.020   7.442   1.229  0.1433 -0.0191 -0.2616
   15MOL   C424 8292   1.912   7.543   1.267  0.4129 -0.1559 -0.0355
   15MOL   O425 8293   1.930   7.553   1.406  0.0338  0.1575 -0.2582
   15MOL   C426 8294   1.923   0.045   1.194  0.2451  0.4364 -0.0192
   15MOL   C427 8295   1.804   0.141   1.225  0.5801 -0.6122 -0.5398
   15MOL   C428 8296   1.821   0.283   1.151 -0.7095  0.1895  0.3434
   15MOL   O429 8297   1.708   0.364   1.159 -0.3380 -0.0393 -0.5283
   15MOL   C430 8298   1.835   0.262   1.001  0.9562 -0.2115 -1.0205
   15MOL   C431 8299   1.844   0.397   0.919  0.4034  0.1664 -0.2598
   15MOL   C432 8300   1.941   0.163   0.956 -0.8560 -0.0967 -0.1020
   15MOL   C433 8301   1.939   0.030   1.038 -0.8491 -0.0806 -0.0260
   15MOL   H434 8302   2.006   7.407   1.127  1.5743 -1.3443 -0.0229
   15MOL   H435 8303   2.121   7.483   1.235  0.2120  0.1482 -2.2796
   15MOL   H436 8304   1.814   7.497   1.253 -0.1909  1.4089 -1.1598
   15MOL   H437 8305   1.972   7.474   1.435 -0.0413  0.5904  1.0359
   15MOL   H438 8306   2.010   0.097   1.235 -1.0910  2.1018  0.7632
   15MOL   H439 8307   1.709   0.096   1.196  0.4769  0.5879 -2.1281
   15MOL   H440 8308   1.797   0.162   1.332 -0.1004  0.5296 -0.7962
   15MOL   H441 8309   1.900   0.347   1.190  0.9384 -2.5708  1.6854
   15MOL   H442 8310   1.702   0.413   1.240  1.5956  0.1113 -0.4436
   15MOL   H443 8311   1.742   0.213   0.970  1.7829 -2.2640 -0.3964
   15MOL   H444 8312   1.756   0.458   0.940 -0.0592 -0.8326  0.7738
   15MOL   H445 8313   1.934   0.444   0.959 -0.3128  1.6492 -0.3678
   15MOL   H446 8314   2.038   0.202   0.987 -2.0972  3.4928 -0.4639
   15MOL   H447 8315   1.946   0.141   0.849 -0.8971  1.3331 -0.4099
   15MOL   H448 8316   2.023   7.603   0.997 -0.5903 -0.0759  0.4969
   15MOL   H449 8317   1.856   7.593   1.014  1.1270 -1.9727 -1.8256
   15MOL   O450 8318   1.852   0.369   0.776  0.3812  0.3809 -0.3717
   15MOL   C451 8319   1.826   0.474   0.680  0.1776  0.5896 -0.2562
   15MOL   C452 8320   1.889   0.419   0.548  0.3524 -0.2561 -0.8191
   15MOL   O453 8321   1.843   0.287   0.549  0.4341 -0.0035 -0.0370
   15MOL   C454 8322   1.848   0.501   0.422 -0.3066 -0.2254  0.5031
   15MOL   C455 8323   1.901   0.428   0.297 -0.2304 -0.5647  0.4001
   15MOL   C456 8324   1.884   0.506   0.167  0.3432 -1.1501  0.2195
   15MOL   O457 8325   1.943   0.426   0.070  0.2563 -0.4145  0.3644
   15MOL   C458 8326   1.944   0.645   0.169  1.2101  0.1527  0.0628
   15MOL   C459 8327   1.921   0.726   0.039 -0.2895 -0.2777 -0.3132
   15MOL   C460 8328   1.898   0.728   0.297  0.4318  0.5341  0.1284
   15MOL   C461 8329   1.915   0.641   0.425 -0.0954 -0.4660 -0.0586
   15MOL   H462 8330   1.878   0.564   0.713 -0.1294  1.5714 -2.3907
   15MOL   H463 8331   1.718   0.484   0.668  0.2889 -0.8085 -2.8532
   15MOL   H464 8332   1.998   0.429   0.549 -0.0018  5.0500  2.9151
   15MOL   H465 8333   1.839   0.256   0.639  3.5802 -0.5413 -0.0426
   15MOL   H466 8334   1.741   0.518   0.421  0.0616  2.3582  1.3669
   15MOL   H467 8335   2.002   0.390   0.315 -0.0327 -0.0472  0.4048
   15MOL   H468 8336   1.844   0.336   0.285  1.3366 -1.3931 -0.8580
   15MOL   H469 8337   1.777   0.508   0.149  0.3133  1.2800  0.4641
   15MOL   H470 8338   2.033   0.426   0.098  0.2617 -0.3805  0.3484
   15MOL   H471 8339   2.051   0.627   0.175  0.9796 -1.7771 -1.2682
   15MOL   H472 8340   1.951   0.830   0.047  1.1274 -0.8739  2.6288
   15MOL   H473 8341   1.988   0.685   7.594 -0.6474  1.6089 -1.6965
   15MOL   H474 8342   1.795   0.758   0.277 -0.3129 -2.1081 -0.1656
   15MOL   H475 8343   1.959   0.819   0.300 -0.4434  1.0780  1.9512
   15MOL   H476 8344   1.882   0.694   0.514  0.8404  1.0883 -0.6064
   15MOL   H477 8345   2.022   0.626   0.437 -0.0819 -0.5726 -0.3117
   15MOL   O478 8346   1.790   0.701   0.002 -0.7518 -0.6172 -0.3377
   15MOL   C479 8347   1.745   0.749   7.508  0.2981  0.5443 -0.4170
   15MOL   C480 8348   1.798   0.659   7.393 -0.1487 -0.6732  0.2368
   15MOL   O481 8349   1.768   0.527   7.420  0.3934 -0.2782 -0.5635
   15MOL   C482 8350   1.749   0.706   7.254 -0.6227  0.3368 -0.1003
   15MOL   C483 8351   1.598   0.683   7.219 -0.0829 -0.0690  0.4821
   15MOL   C484 8352   1.566   0.738   7.074  0.4787  0.1778 -0.4975
   15MOL   O485 8353   1.438   0.697   7.039 -0.3834  0.1609 -0.2580
   15MOL   C486 8354   1.659   0.692   6.964 -0.3085  0.3698 -0.0318
   15MOL   C487 8355   1.625   0.737   6.822  1.0948  0.0410  0.5929
   15MOL   C488 8356   1.811   0.711   6.999 -0.0003  0.1153  0.2536
   15MOL   C489 8357   1.841   0.657   7.138  0.7078 -0.4431  0.2234
   15MOL   H490 8358   1.787   0.850   7.506 -0.5367  0.8918 -0.6031
   15MOL   H491 8359   1.637   0.761   7.504  0.0977 -1.1873 -0.6265
   15MOL   H492 8360   1.906   0.677   7.395 -0.5422  2.1071 -0.6226
   15MOL   H493 8361   1.778   0.517   7.513  0.7802 -1.3526 -0.7114
   15MOL   H494 8362   1.751   0.815   7.253 -2.0247  0.3572 -2.1706
   15MOL   H495 8363   1.574   0.577   7.212  0.9829 -0.2860  0.0311
   15MOL   H496 8364   1.536   0.732   7.293 -1.2808  0.8023 -1.0662
   15MOL   H497 8365   1.563   0.847   7.075 -1.0804  0.1904 -2.5243
   15MOL   H498 8366   1.435   0.603   7.048 -1.9602  0.4913  3.4513
   15MOL   H499 8367   1.629   0.588   6.965 -2.0103  0.8573  0.6712
   15MOL   H500 8368   1.669   0.653   6.769 -0.4852  0.0004 -0.6838
   15MOL   H501 8369   1.517   0.741   6.808  1.1820  0.0538 -0.0982
   15MOL   H502 8370   1.853   0.808   6.973 -0.5435 -0.1401 -1.6223
   15MOL   H503 8371   1.861   0.649   6.925  0.7983 -1.2187  1.8695
   15MOL   H504 8372   1.943   0.693   7.157  1.0791 -1.2793 -0.1632
   15MOL   H505 8373   1.846   0.548   7.133 -0.9226 -0.6302  2.2420
   15MOL   O506 8374   1.678   0.864   6.775 -0.4413 -0.1273 -0.5330
   15MOL   C507 8375   1.649   0.978   6.845 -0.2620 -0.2275 -0.0678
   15MOL   C508 8376   1.686   1.096   6.749 -0.3553 -0.5213  0.2932
   15MOL   O509 8377   1.828   1.092   6.754 -0.5263 -0.0759 -0.1199
   15MOL   C510 8378   1.643   1.093   6.596  0.3346  0.1993 -0.7283
   15MOL   C511 8379   1.664   1.229   6.530  0.1794 -0.6291 -0.5233
   15MOL   C512 8380   1.628   1.235   6.388 -0.9424 -0.7144 -0.2158
   15MOL   O513 8381   1.645   1.367   6.351 -0.6378 -0.2988  1.2498
   15MOL   C514 8382   1.482   1.199   6.372 -0.5974 -0.2214 -0.0002
   15MOL   C515 8383   1.438   1.190   6.232 -0.3809  0.5839  0.7107
   15MOL   C516 8384   1.454   1.055   6.439 -0.6493 -0.6057  0.5716
   15MOL   C517 8385   1.493   1.058   6.582  0.2667 -0.1552 -0.5486
   15MOL   H518 8386   1.704   0.987   6.939 -0.5457  0.1493  0.0631
   15MOL   H519 8387   1.541   0.984   6.859  0.2182  0.5969  3.7101
   15MOL   H520 8388   1.649   1.185   6.799  2.2011 -0.7103  2.6674
   15MOL   H521 8389   1.863   1.009   6.725  0.6230  0.0200  0.9326
   15MOL   H522 8390   1.701   1.013   6.550  2.1655  1.1761 -0.1457
   15MOL   H523 8391   1.618   1.312   6.583  3.9952 -0.0735  2.1477
   15MOL   H524 8392   1.771   1.251   6.530  0.3645 -1.4558  0.7616
   15MOL   H525 8393   1.690   1.169   6.327  0.6830  0.7135 -0.1446
   15MOL   H526 8394   1.622   1.415   6.429 -2.0421  0.0940  0.6080
   15MOL   H527 8395   1.419   1.269   6.426 -1.9695 -0.7192 -0.9203
   15MOL   H528 8396   1.466   1.275   6.169  3.0222  0.3056  1.7671
   15MOL   H529 8397   1.501   1.110   6.194 -1.3881 -0.8977  2.0721
   15MOL   H530 8398   1.514   0.982   6.384 -1.8551 -1.1969  0.0265
   15MOL   H531 8399   1.351   1.021   6.447 -0.7701  0.0279  1.9013
   15MOL   H532 8400   1.487   0.964   6.637 -0.0307  1.2656  1.8982
   15MOL   H533 8401   1.437   1.132   6.639 -0.7077 -1.2331 -0.0930
   15MOL   O534 8402   1.307   1.137   6.217  0.3829 -0.5132  0.3370
   15MOL   C535 8403   1.224   1.229   6.148  0.1613 -0.3783  0.0283
   15MOL   C536 8404   1.097   1.147   6.115 -0.2951 -0.0046  0.5213
   15MOL   O537 8405   0.989   1.233   6.092 -0.6354 -0.3321  0.0987
   15MOL   C538 8406   1.105   1.056   5.989 -0.4122  0.4433 -1.0094
   15MOL   C539 8407   1.161   1.121   5.863  0.1820 -0.1290 -0.3105
   15MOL   C540 8408   1.169   1.018   5.748 -0.3622 -0.2951 -0.9805
   15MOL   O541 8409   1.199   1.099   5.635 -0.3313 -0.0770 -0.4554
   15MOL   C542 8410   1.035   0.944   5.725 -0.4826  1.0228 -0.2764
   15MOL   C543 8411   1.051   0.830   5.614  0.6829  0.3204  0.6091
   15MOL   C544 8412   0.987   0.878   5.855 -0.6386 -0.7305 -0.0798
   15MOL   C545 8413   0.973   0.981   5.965 -0.6989 -0.1372 -0.0917
   15MOL   H546 8414   1.265   1.294   6.071 -0.2794  1.0525  0.9825
   15MOL   H547 8415   1.211   1.305   6.224 -0.1063  0.4246 -0.8138
   15MOL   H548 8416   1.069   1.083   6.198 -0.9123  0.5447  0.7447
   15MOL   H549 8417   0.924   1.172   6.061 -1.4286  0.1456  0.7939
   15MOL   H550 8418   1.181   0.983   6.017 -3.3626 -2.5035 -0.2546
   15MOL   H551 8419   1.096   1.207   5.845  0.6119  0.2070 -0.2662
   15MOL   H552 8420   1.259   1.164   5.885 -0.1794  0.2721  0.5343
   15MOL   H553 8421   1.253   0.955   5.776  0.8898  1.6418 -0.2019
   15MOL   H554 8422   1.219   1.043   5.561  1.5118 -0.2105  0.1228
   15MOL   H555 8423   0.967   1.025   5.697 -1.1304  0.6017  0.0855
   15MOL   H556 8424   0.957   0.774   5.608  0.5485  0.8225 -2.4305
   15MOL   H557 8425   1.076   0.865   5.514 -1.1697 -0.9463 -0.3335
   15MOL   H558 8426   1.059   0.805   5.892  0.7302  1.0184  0.8325
   15MOL   H559 8427   0.889   0.835   5.836 -0.0794 -2.1236  0.1996
   15MOL   H560 8428   0.936   0.928   6.052 -1.6780 -2.0119 -1.6258
   15MOL   H561 8429   0.905   1.060   5.932  0.6238  1.5267  1.0770
   15MOL   H562 8430   1.126   0.757   5.645  1.7283  0.6602 -1.0868
   16MOL     O1 8431   0.160   3.610   2.163 -0.0652  0.5264 -0.3341
   16MOL     C2 8432   0.243   3.731   2.190  0.5988  0.6523  0.3114
   16MOL     C3 8433   0.357   3.685   2.283 -0.8539 -0.0831  0.0764
   16MOL     O4 8434   0.411   3.584   2.205 -0.6690  0.2386  0.2028
   16MOL     C5 8435   0.459   3.798   2.326 -0.2375  0.5145  0.4600
   16MOL     C6 8436   0.582   3.742   2.405 -0.2144  0.8471 -0.0803
   16MOL     C7 8437   0.691   3.843   2.432  0.4749 -0.0417  0.0663
   16MOL     O8 8438   0.783   3.766   2.509  0.3580 -0.0916  0.3393
   16MOL     C9 8439   0.635   3.952   2.520 -0.2822  0.9149  0.0822
   16MOL    C10 8440   0.722   4.059   2.572 -0.1941  0.8608  0.2616
   16MOL    C11 8441   0.503   4.011   2.452 -0.9424 -0.2297  0.5040
   16MOL    C12 8442   0.399   3.911   2.412  0.5203 -0.0975 -0.4026
   16MOL    H13 8443   0.190   3.809   2.244 -0.1305  0.2258  0.2140
   16MOL    H14 8444   0.284   3.765   2.095 -2.5735 -1.3319 -1.8549
   16MOL    H15 8445   0.313   3.629   2.365  0.8643 -1.2321  0.2247
   16MOL    H16 8446   0.334   3.546   2.165  1.0865 -3.3797  0.0289
   16MOL    H17 8447   0.497   3.839   2.232  0.6648 -1.5233 -0.0800
   16MOL    H18 8448   0.543   3.696   2.495 -0.6332 -1.3330 -1.3334
   16MOL    H19 8449   0.622   3.666   2.338 -0.9357  2.7279 -2.7302
   16MOL    H20 8450   0.734   3.881   2.339  2.1501 -3.4519 -0.6116
   16MOL    H21 8451   0.855   3.822   2.533  1.4678 -0.6045 -1.6554
   16MOL    H22 8452   0.596   3.889   2.600  1.8236  0.1096  0.5098
   16MOL    H23 8453   0.761   4.115   2.487 -1.1027  1.1508  0.0253
   16MOL    H24 8454   0.669   4.126   2.639 -3.3199 -2.8766  1.7808
   16MOL    H25 8455   0.534   4.071   2.367  0.6736  0.3160  1.4564
   16MOL    H26 8456   0.446   4.084   2.509 -2.3001 -1.3773  0.6529
   16MOL    H27 8457   0.315   3.958   2.361  0.3715  1.1260  0.9152
   16MOL    H28 8458   0.345   3.868   2.497  0.1418  0.1879 -0.5009
   16MOL    H29 8459   0.113   3.592   2.243  1.4216  1.0281  0.6787
   16MOL    O30 8460   0.831   4.005   2.649  0.6397 -0.2436  0.9966
   16MOL    C31 8461   0.915   4.095   2.715 -0.3600  0.2859 -0.5905
   16MOL    C32 8462   1.006   4.026   2.807  0.7824 -0.4233  0.0283
   16MOL    O33 8463   0.933   3.991   2.922  0.2673  0.2518 -0.8793
   16MOL    C34 8464   1.067   3.893   2.750  0.1211 -0.0777 -0.0589
   16MOL    C35 8465   1.160   3.821   2.846  0.2940 -0.3927 -0.1890
   16MOL    C36 8466   1.210   3.684   2.794  0.0438  0.6861  0.0762
   16MOL    O37 8467   1.288   3.629   2.890  0.3621 -0.0794 -0.3780
   16MOL    C38 8468   1.287   3.706   2.664  0.3121 -0.2345  0.1070
   16MOL    C39 8469   1.333   3.569   2.607  0.6540 -0.1788  0.2194
   16MOL    C40 8470   1.185   3.766   2.559 -1.1420 -0.1753 -0.6287
   16MOL    C41 8471   1.136   3.897   2.614 -0.2006  0.2567  0.5886
   16MOL    H42 8472   0.855   4.162   2.778  0.6419 -0.7784  1.5251
   16MOL    H43 8473   0.964   4.163   2.645  0.0993  2.7932  2.0579
   16MOL    H44 8474   1.077   4.101   2.842 -1.9196  2.0125  0.4608
   16MOL    H45 8475   0.845   3.975   2.891 -0.7785 -0.3706  2.2273
   16MOL    H46 8476   0.985   3.824   2.727 -0.5365  0.7103 -0.1325
   16MOL    H47 8477   1.245   3.886   2.867 -0.8796  1.6274 -1.5567
   16MOL    H48 8478   1.110   3.791   2.939 -1.3041  0.2887 -0.8201
   16MOL    H49 8479   1.128   3.612   2.787  0.0695  0.8034 -1.6139
   16MOL    H50 8480   1.335   3.701   2.930 -0.6080  0.9707 -1.0972
   16MOL    H51 8481   1.375   3.770   2.660  0.6755 -0.7531 -0.2728
   16MOL    H52 8482   1.409   3.519   2.668 -0.5618 -0.4255  1.5717
   16MOL    H53 8483   1.245   3.504   2.608  0.2620  0.3524  1.5052
   16MOL    H54 8484   1.108   3.691   2.543 -0.6936 -1.1500  1.6594
   16MOL    H55 8485   1.239   3.776   2.465  0.8219  0.4025  0.5331
   16MOL    H56 8486   1.062   3.930   2.541  0.4259 -0.8690 -0.5926
   16MOL    H57 8487   1.221   3.965   2.625  1.5004 -1.1960 -2.5923
   16MOL    O58 8488   1.381   3.582   2.474 -0.2798  0.4730 -0.4158
   16MOL    C59 8489   1.396   3.451   2.416 -0.0556  0.5635 -0.3968
   16MOL    C60 8490   1.409   3.455   2.263 -0.4126 -0.1674  0.3130
   16MOL    O61 8491   1.535   3.509   2.239  0.4565  0.0142  0.0472
   16MOL    C62 8492   1.413   3.305   2.200 -0.1176 -0.5555  0.2041
   16MOL    C63 8493   1.435   3.294   2.050 -0.6492 -0.4232  1.0480
   16MOL    C64 8494   1.437   3.159   1.989 -0.1755  0.0063 -0.0267
   16MOL    O65 8495   1.421   3.193   1.854 -0.0063 -0.0601 -0.5964
   16MOL    C66 8496   1.321   3.068   2.034  0.0400 -0.1317 -0.3928
   16MOL    C67 8497   1.341   2.924   1.974 -0.3546 -1.2516 -0.0758
   16MOL    C68 8498   1.301   3.074   2.185 -0.1012  0.0396 -0.5074
   16MOL    C69 8499   1.299   3.216   2.244  0.2802 -0.2505 -0.8983
   16MOL    H70 8500   1.302   3.401   2.438  0.9479 -1.6675 -1.0520
   16MOL    H71 8501   1.480   3.394   2.455 -1.5949 -2.5925 -1.5019
   16MOL    H72 8502   1.337   3.513   2.206 -2.0230 -0.9612  1.4916
   16MOL    H73 8503   1.554   3.562   2.315  0.8056 -1.5261  1.0520
   16MOL    H74 8504   1.499   3.252   2.242  0.6210  0.5006  0.0641
   16MOL    H75 8505   1.354   3.351   2.005 -0.4195 -1.0998 -0.2398
   16MOL    H76 8506   1.530   3.342   2.024 -0.5239 -1.9732 -1.5653
   16MOL    H77 8507   1.533   3.112   2.010  0.3041  0.0679 -2.0554
   16MOL    H78 8508   1.489   3.163   1.795  0.3777  3.9560 -2.3443
   16MOL    H79 8509   1.225   3.104   1.997  0.3737  0.6283 -0.5267
   16MOL    H80 8510   1.343   2.942   1.867  1.1035  1.0241  0.2941
   16MOL    H81 8511   1.431   2.877   2.012 -1.2263 -1.6617  1.5763
   16MOL    H82 8512   1.386   3.018   2.224  0.3806  0.4601 -0.9562
   16MOL    H83 8513   1.217   3.017   2.225 -0.1122  0.6784  0.4060
   16MOL    H84 8514   1.302   3.204   2.352  0.5340  2.5142 -0.5605
   16MOL    H85 8515   1.202   3.266   2.238  0.7377  0.7948  0.2256
   16MOL    O86 8516   1.229   2.839   2.011  0.2328  0.6430  0.2342
   16MOL    C87 8517   1.237   2.724   1.921 -0.3670  0.1402  0.0830
   16MOL    C88 8518   1.164   2.607   1.992  0.6444 -0.0936 -0.2140
   16MOL    O89 8519   1.024   2.638   1.993  0.1311  0.0522  0.0840
   16MOL    C90 8520   1.183   2.479   1.912 -0.6182  0.3322 -0.7307
   16MOL    C91 8521   1.101   2.463   1.781 -0.1012  0.1978 -0.1603
   16MOL    C92 8522   1.127   2.324   1.715  0.3450 -0.6099  0.2043
   16MOL    O93 8523   1.044   2.316   1.597  0.1230 -0.2816 -0.1637
   16MOL    C94 8524   1.081   2.214   1.808 -0.7518  0.0422 -0.5528
   16MOL    C95 8525   1.105   2.070   1.752  0.1239  0.2348  0.5909
   16MOL    C96 8526   1.163   2.223   1.941  0.6167 -0.0573 -0.2100
   16MOL    C97 8527   1.158   2.359   2.006 -0.7378 -0.8570  0.2975
   16MOL    H98 8528   1.344   2.706   1.911 -0.2771  0.7850 -0.1140
   16MOL    H99 8529   1.203   2.747   1.820  0.6842  1.4700  0.0217
   16MOL   H100 8530   1.194   2.602   2.097  0.3101  1.2638 -0.0376
   16MOL   H101 8531   1.038   2.724   2.031  2.5052 -0.3159  0.1384
   16MOL   H102 8532   1.287   2.459   1.885 -0.4017  1.1939 -0.5722
   16MOL   H103 8533   0.995   2.467   1.807 -0.1106  2.2020 -0.4079
   16MOL   H104 8534   1.122   2.545   1.712 -1.3386  0.6375 -0.0353
   16MOL   H105 8535   1.233   2.323   1.691  0.3269  1.6933 -0.0552
   16MOL   H106 8536   1.036   2.222   1.587 -2.7895  0.2148 -3.5425
   16MOL   H107 8537   0.975   2.235   1.829 -1.0181 -0.5095 -1.3541
   16MOL   H108 8538   1.212   2.046   1.752 -0.4470 -2.5381  1.9997
   16MOL   H109 8539   1.061   1.992   1.814 -0.7979 -0.9859 -1.5496
   16MOL   H110 8540   1.265   2.188   1.924 -0.0454 -1.3175 -1.7404
   16MOL   H111 8541   1.129   2.152   2.017  0.4753  1.2107  0.9294
   16MOL   H112 8542   1.220   2.363   2.095 -0.4167  0.1874  0.0365
   16MOL   H113 8543   1.061   2.376   2.052  0.9669  1.4733  3.1967
   16MOL   O114 8544   1.055   2.045   1.617  0.1521  0.3765 -0.0598
   16MOL   C115 8545   1.073   1.912   1.570 -0.0238 -0.0955 -0.1745
   16MOL   C116 8546   1.048   1.905   1.414  0.2370  0.0913  0.3193
   16MOL   O117 8547   1.119   1.786   1.378  0.1494 -0.0540 -0.0600
   16MOL   C118 8548   0.896   1.907   1.380 -0.8400  0.7257  0.7044
   16MOL   C119 8549   0.855   1.800   1.283  0.0429 -0.4178 -0.2014
   16MOL   C120 8550   0.698   1.807   1.251  0.0711 -0.4866 -0.3004
   16MOL   O121 8551   0.676   1.705   1.160  0.0828  0.0793 -0.0079
   16MOL   C122 8552   0.660   1.947   1.199 -0.2827 -0.4312 -0.7348
   16MOL   C123 8553   0.510   1.961   1.159 -0.1009 -0.5403  0.2047
   16MOL   C124 8554   0.712   2.060   1.298  0.4801 -0.0385  0.4116
   16MOL   C125 8555   0.856   2.054   1.327  0.1354 -0.0442 -0.3248
   16MOL   H126 8556   1.007   1.841   1.620  0.2866  0.0677  0.4599
   16MOL   H127 8557   1.175   1.883   1.594  0.2362 -0.7475 -1.9836
   16MOL   H128 8558   1.093   1.994   1.369 -0.6551  1.8614  2.8512
   16MOL   H129 8559   1.213   1.795   1.391 -0.2202  0.3035  2.8886
   16MOL   H130 8560   0.841   1.890   1.473 -2.2454 -1.4781 -0.4879
   16MOL   H131 8561   0.923   1.811   1.199  0.0314  0.9327 -0.0511
   16MOL   H132 8562   0.870   1.707   1.337  0.7179  0.3119  0.8816
   16MOL   H133 8563   0.641   1.776   1.339  1.5761 -1.4581  0.3633
   16MOL   H134 8564   0.732   1.719   1.085  0.0533 -1.7452 -0.3987
   16MOL   H135 8565   0.715   1.977   1.110  0.4640 -0.5378 -0.3153
   16MOL   H136 8566   0.474   1.866   1.120 -0.3992 -0.1999 -0.3639
   16MOL   H137 8567   0.457   1.985   1.251 -0.6696  2.5744 -0.8702
   16MOL   H138 8568   0.668   2.040   1.396  0.4196  0.3161  0.4584
   16MOL   H139 8569   0.682   2.159   1.264 -1.2997 -1.7025 -3.1513
   16MOL   H140 8570   0.857   2.116   1.416  0.1849 -1.4475  0.6781
   16MOL   H141 8571   0.928   2.092   1.254 -2.2084 -0.9378 -3.2235
   16MOL   O142 8572   0.491   2.062   1.057  0.0765 -0.3454  0.1116
   16MOL   C143 8573   0.356   2.102   1.038  0.6139 -0.0951  0.2447
   16MOL   C144 8574   0.356   2.170   0.899  0.5873 -0.4395  0.3797
   16MOL   O145 8575   0.425   2.295   0.898 -0.1124 -0.2918  0.8282
   16MOL   C146 8576   0.390   2.078   0.782 -0.2427 -0.3219 -0.0894
   16MOL   C147 8577   0.395   2.156   0.646 -0.1425 -0.2499  0.2268
   16MOL   C148 8578   0.417   2.073   0.521 -0.2178  0.5939  1.1966
   16MOL   O149 8579   0.405   2.156   0.401  0.0396  0.0407  0.1019
   16MOL   C150 8580   0.325   1.954   0.506 -0.1985 -0.4160  0.4021
   16MOL   C151 8581   0.363   1.846   0.394 -0.1216  0.4403  0.8692
   16MOL   C152 8582   0.336   1.880   0.640  0.2985 -0.9328  0.2193
   16MOL   C153 8583   0.284   1.967   0.757 -0.5697 -0.6086 -0.1126
   16MOL   H154 8584   0.332   2.160   1.128 -0.2055 -0.8101  0.4888
   16MOL   H155 8585   0.293   2.014   1.043 -2.1286  1.8439  0.8026
   16MOL   H156 8586   0.256   2.210   0.883  0.9612  1.2520  2.1595
   16MOL   H157 8587   0.504   2.288   0.951  0.9212 -3.5085 -0.9804
   16MOL   H158 8588   0.481   2.024   0.809  0.0302  0.0104 -0.3362
   16MOL   H159 8589   0.301   2.208   0.626 -0.2917  0.0519  1.6940
   16MOL   H160 8590   0.481   2.222   0.639  0.0465 -0.4613  0.5756
   16MOL   H161 8591   0.522   2.043   0.524  0.4950  2.7277 -0.6200
   16MOL   H162 8592   0.484   2.209   0.400  0.5205 -0.6290 -2.9815
   16MOL   H163 8593   0.220   1.983   0.500 -0.3557 -1.0559 -0.0305
   16MOL   H164 8594   0.313   1.750   0.407 -1.1164  0.9423  0.8291
   16MOL   H165 8595   0.338   1.897   0.300 -4.0464 -0.4485  1.3189
   16MOL   H166 8596   0.434   1.836   0.661  0.9837  0.2860 -0.4091
   16MOL   H167 8597   0.269   1.795   0.627 -0.2213 -0.8083  1.9280
   16MOL   H168 8598   0.259   1.902   0.841  0.1231 -1.0560 -0.2466
   16MOL   H169 8599   0.189   2.008   0.725  0.7712  1.4166 -1.6433
   16MOL   O170 8600   0.501   1.807   0.395  0.5449 -0.0748 -0.5002
   16MOL   C171 8601   0.541   1.752   0.268 -0.0760 -0.1677  0.0391
   16MOL   C172 8602   0.686   1.710   0.256  0.2450  0.9182 -0.9070
   16MOL   O173 8603   0.766   1.825   0.250  0.0384  0.0024 -0.1864
   16MOL   C174 8604   0.739   1.593   0.352  0.0087  0.5328  0.2358
   16MOL   C175 8605   0.898   1.583   0.349  0.2571 -0.8276 -0.4299
   16MOL   C176 8606   0.958   1.461   0.424 -0.4303  0.3176 -0.1379
   16MOL   O177 8607   1.097   1.462   0.414 -0.4088  0.4542  0.0727
   16MOL   C178 8608   0.893   1.333   0.378  0.0987  0.2615  0.3776
   16MOL   C179 8609   0.948   1.208   0.436  0.2909  0.3953  0.2003
   16MOL   C180 8610   0.744   1.345   0.395  0.0866  0.3701  0.6137
   16MOL   C181 8611   0.685   1.456   0.313  0.0636  0.0796  1.0440
   16MOL   H182 8612   0.523   1.828   0.192 -1.3411 -0.7880 -0.3016
   16MOL   H183 8613   0.491   1.662   0.234  0.6411 -1.2296  1.7145
   16MOL   H184 8614   0.697   1.674   0.154  0.3178 -0.4350 -0.4249
   16MOL   H185 8615   0.739   1.881   0.321  0.0604 -2.1070  1.5453
   16MOL   H186 8616   0.718   1.604   0.458 -0.4262  0.0104  0.2053
   16MOL   H187 8617   0.935   1.590   0.246 -0.6520  1.4998 -0.6061
   16MOL   H188 8618   0.928   1.674   0.401 -1.2925 -2.0282  2.6558
   16MOL   H189 8619   0.937   1.482   0.529  0.4740  0.0611  0.1023
   16MOL   H190 8620   1.123   1.405   0.344 -0.3198 -0.2506  0.6682
   16MOL   H191 8621   0.915   1.338   0.271  0.1064  2.8049  0.4845
   16MOL   H192 8622   1.057   1.210   0.429  0.2038  1.7638 -1.0510
   16MOL   H193 8623   0.912   1.212   0.538  1.2976 -1.0659  0.6311
   16MOL   H194 8624   0.717   1.360   0.500 -2.5373  0.6756 -0.0608
   16MOL   H195 8625   0.693   1.258   0.355 -0.7408  0.6459  1.0553
   16MOL   H196 8626   0.577   1.453   0.311 -0.0523  2.5624  1.5217
   16MOL   H197 8627   0.719   1.452   0.209 -1.7858 -1.9249  0.4791
   16MOL   O198 8628   0.893   1.086   0.377  0.0380 -0.4018  0.1628
   16MOL   C199 8629   0.968   0.976   0.415  0.1769 -0.5696 -0.3136
   16MOL   C200 8630   0.887   0.884   0.501  0.0632  0.3761  0.6589
   16MOL   O201 8631   0.887   0.915   0.637 -0.1596 -0.4310  0.5798
   16MOL   C202 8632   0.738   0.851   0.467  0.6158  0.1617  0.3028
   16MOL   C203 8633   0.630   0.958   0.485 -0.1439  0.3350 -0.2430
   16MOL   C204 8634   0.481   0.905   0.462 -0.3166 -0.0730  0.7059
   16MOL   O205 8635   0.384   1.010   0.477  0.4005 -0.3229 -0.3984
   16MOL   C206 8636   0.449   0.764   0.522 -0.4285 -0.1158  0.8985
   16MOL   C207 8637   0.316   0.707   0.468  0.2994  0.8699  0.7123
   16MOL   C208 8638   0.564   0.665   0.497  0.1798  0.4568 -0.2344
   16MOL   C209 8639   0.702   0.721   0.542 -0.0553 -0.2330  0.3036
   16MOL   H210 8640   1.058   1.002   0.470  0.5937  2.8317 -2.3966
   16MOL   H211 8641   1.005   0.932   0.322  0.2872 -1.1821  0.0188
   16MOL   H212 8642   0.947   0.794   0.494  0.2466  0.6652 -1.9244
   16MOL   H213 8643   0.835   0.992   0.657  0.3520  0.0982 -0.1260
   16MOL   H214 8644   0.733   0.827   0.361 -0.8066 -1.0509  0.6240
   16MOL   H215 8645   0.628   0.996   0.588 -3.0181  2.2724 -0.9489
   16MOL   H216 8646   0.646   1.045   0.421  0.6344 -0.0650 -0.5919
   16MOL   H217 8647   0.474   0.884   0.356 -2.2048 -1.6855  1.1236
   16MOL   H218 8648   0.360   1.006   0.568  1.5910  2.5405  0.0736
   16MOL   H219 8649   0.437   0.764   0.631 -0.2329 -2.2002  0.9299
   16MOL   H220 8650   0.300   0.624   0.538 -0.8751 -0.1105 -0.6936
   16MOL   H221 8651   0.233   0.777   0.480  0.2827  1.3598 -2.1014
   16MOL   H222 8652   0.569   0.636   0.392 -0.9989  0.0830 -0.2031
   16MOL   H223 8653   0.540   0.569   0.542  0.7952  0.7794  0.8034
   16MOL   H224 8654   0.775   0.641   0.529 -0.0034 -0.0826 -0.3138
   16MOL   H225 8655   0.693   0.736   0.650 -0.1612  0.3008  0.2180
   16MOL   O226 8656   0.343   0.672   0.325  0.1309  0.1341 -0.6352
   16MOL   C227 8657   0.239   0.608   0.261  0.0456  0.2977  0.3894
   16MOL   C228 8658   0.269   0.583   0.113  0.4911  0.0328  0.8030
   16MOL   O229 8659   0.295   0.709   0.061  0.3608  0.2198  0.1802
   16MOL   C230 8660   0.379   0.480   0.080  0.2504  0.8191  0.3088
   16MOL   C231 8661   0.396   0.473   7.558 -0.7700  0.2757 -0.3716
   16MOL   C232 8662   0.489   0.366   7.500 -0.2698 -0.0931 -0.0682
   16MOL   O233 8663   0.477   0.366   7.363  0.3280  0.6801 -0.7230
   16MOL   C234 8664   0.447   0.227   7.557 -0.3121  0.7764  0.4163
   16MOL   C235 8665   0.541   0.111   7.515 -0.3390 -0.2609  0.1378
   16MOL   C236 8666   0.438   0.229   0.083  0.2611 -0.0490 -0.4288
   16MOL   C237 8667   0.352   0.341   0.140  0.1920 -0.6762 -0.7294
   16MOL   H238 8668   0.147   0.667   0.259  0.6061  1.1670 -0.9382
   16MOL   H239 8669   0.218   0.513   0.311 -1.9195  0.0605 -0.8048
   16MOL   H240 8670   0.172   0.545   0.079  0.8278  0.1776 -0.3449
   16MOL   H241 8671   0.367   0.738   0.114 -0.3493  3.0779 -0.3631
   16MOL   H242 8672   0.477   0.506   0.121 -0.4612  0.4475  2.3359
   16MOL   H243 8673   0.298   0.457   7.513 -1.7488  0.8791  1.4809
   16MOL   H244 8674   0.446   0.565   7.526  0.3640 -0.1604  0.1429
   16MOL   H245 8675   0.592   0.393   7.525 -0.6192  0.7228  0.4924
   16MOL   H246 8676   0.387   0.372   7.336 -0.1587 -1.3245  0.3400
   16MOL   H247 8677   0.350   0.209   7.510  0.1714 -1.5953  0.2934
   16MOL   H248 8678   0.566   0.128   7.411  0.3708  2.2464  0.6916
   16MOL   H249 8679   0.639   0.127   7.561 -0.9064 -1.5128  1.8365
   16MOL   H250 8680   0.540   0.251   0.113  0.3939 -2.1758  0.7803
   16MOL   H251 8681   0.409   0.132   0.122  0.8433 -0.0452  0.0141
   16MOL   H252 8682   0.365   0.345   0.248  0.8445 -2.5773 -0.7175
   16MOL   H253 8683   0.248   0.315   0.121 -1.0669  0.1646  4.2104
   16MOL   O254 8684   0.478   7.619   7.547 -0.0740 -0.2926  0.3373
   16MOL   C255 8685   0.554   7.501   7.555  0.0330  0.0876  1.4068
   16MOL   C256 8686   0.463   7.391   7.616  0.9717 -0.2325  0.1808
   16MOL   O257 8687   0.535   7.271   7.620  0.4846 -0.2152 -0.4656
   16MOL   C258 8688   0.401   7.429   0.119 -0.1991 -0.4076  0.1024
   16MOL   C259 8689   0.504   7.458   0.230 -0.3446  0.2847 -1.2294
   16MOL   C260 8690   0.432   7.525   0.349  0.1065  0.3966 -0.7382
   16MOL   O261 8691   0.518   7.539   0.457  0.9022 -0.2542 -0.5009
   16MOL   C262 8692   0.301   7.461   0.398 -0.3474 -0.1127  1.0365
   16MOL   C263 8693   0.228   7.557   0.487  0.5262 -0.6652 -0.1911
   16MOL   C264 8694   0.207   7.408   0.286 -0.2892 -0.5850  0.3139
   16MOL   C265 8695   0.287   7.339   0.169 -0.9093  0.0206  0.2499
   16MOL   H266 8696   0.650   7.524   7.602 -1.0214  1.6107  2.8601
   16MOL   H267 8697   0.560   7.479   7.449 -0.7588 -1.8746  1.7545
   16MOL   H268 8698   0.391   7.361   7.540 -0.0575 -0.3433  1.1995
   16MOL   H269 8699   0.512   7.235   0.075 -1.6659  3.9790  0.9054
   16MOL   H270 8700   0.340   7.518   0.106  0.5335  0.1564  0.5266
   16MOL   H271 8701   0.550   7.362   0.255 -0.8902  0.5059  0.6512
   16MOL   H272 8702   0.579   7.523   0.184 -0.2138  1.7875  1.0366
   16MOL   H273 8703   0.407   7.627   0.320 -1.6465  1.2220  3.3075
   16MOL   H274 8704   0.492   7.624   0.489 -1.1917 -1.0504  0.0099
   16MOL   H275 8705   0.324   7.371   0.455 -0.7929 -1.8797 -1.5220
   16MOL   H276 8706   0.286   7.604   0.566  1.7518 -1.5986 -0.5234
   16MOL   H277 8707   0.177   0.003   0.427  0.7265 -0.2381  0.1791
   16MOL   H278 8708   0.148   7.493   0.251  1.2700  0.6483  0.6129
   16MOL   H279 8709   0.143   7.337   0.338 -1.6705 -0.8185 -1.6624
   16MOL   H280 8710   0.217   7.333   0.086 -0.4373 -1.2989 -0.0671
   16MOL   H281 8711   0.317   7.236   0.190  0.3338  0.3345  0.0553
   16MOL   O282 8712   0.123   7.471   0.559 -0.2536 -0.3600 -0.6278
   16MOL   C283 8713   0.177   7.416   0.683  0.8033 -0.2453 -0.1748
   16MOL   C284 8714   0.133   7.516   0.797 -0.1065  0.5301  0.7872
   16MOL   O285 8715   7.627   7.505   0.819 -0.4071 -0.2638 -0.3863
   16MOL   C286 8716   0.196   7.500   0.936 -0.2103  0.2345  0.0469
   16MOL   C287 8717   0.357   7.498   0.929 -0.2636 -0.6086 -0.0358
   16MOL   C288 8718   0.417   7.515   1.073  0.3089  0.2750  0.1977
   16MOL   O289 8719   0.559   7.531   1.061  0.3267 -0.7680  0.3823
   16MOL   C290 8720   0.387   7.385   1.162  0.5876 -0.3512  0.3374
   16MOL   C291 8721   0.443   7.377   1.300 -0.5701  0.1616  0.2852
   16MOL   C292 8722   0.232   7.369   1.156  0.0385 -0.7612 -0.2982
   16MOL   C293 8723   0.166   7.373   1.018  1.1182  0.2901 -0.4268
   16MOL   H294 8724   0.285   7.411   0.681  0.8260  0.5396 -1.1932
   16MOL   H295 8725   0.129   7.318   0.690 -1.7560  0.9251 -0.7863
   16MOL   H296 8726   0.157   7.609   0.745 -0.5393 -0.2004 -0.7152
   16MOL   H297 8727   7.595   7.503   0.730  1.4643  2.4492 -1.1793
   16MOL   H298 8728   0.164   7.584   0.999 -0.1667  0.3556 -0.0920
   16MOL   H299 8729   0.388   7.398   0.896 -0.5678 -0.5882 -0.3820
   16MOL   H300 8730   0.407   7.574   0.869 -2.2830 -0.9833 -2.2752
   16MOL   H301 8731   0.379   7.605   1.121 -1.2645 -0.8808  1.1560
   16MOL   H302 8732   0.595   7.450   1.027  1.1784 -1.6946  3.3123
   16MOL   H303 8733   0.426   7.301   1.104  2.1404  0.3858  0.3028
   16MOL   H304 8734   0.550   7.395   1.310 -0.4746 -0.3852  0.2914
   16MOL   H305 8735   0.394   7.449   1.364  1.3893  0.6334  1.2958
   16MOL   H306 8736   0.187   7.440   1.225 -2.6089 -0.8986 -1.8390
   16MOL   H307 8737   0.206   7.276   1.207 -1.3385 -0.1990  0.0305
   16MOL   H308 8738   0.059   7.361   1.039  1.7225 -1.9264  1.5368
   16MOL   H309 8739   0.207   7.297   0.951 -1.2269 -0.4100 -1.1401
   16MOL   O310 8740   0.408   7.248   1.352 -0.2313  0.5381 -0.4655
   16MOL   C311 8741   0.438   7.220   1.489  0.0596 -0.7257  0.3958
   16MOL   C312 8742   0.315   7.241   1.571 -0.1607 -0.1914 -0.3528
   16MOL   O313 8743   0.292   7.378   1.573  0.2171 -0.9444  0.2036
   16MOL   C314 8744   0.199   7.158   1.516  0.1511 -0.4252 -0.1584
   16MOL   C315 8745   0.057   7.191   1.583 -0.5250  0.1082  0.1057
   16MOL   C316 8746   7.576   7.103   1.525  0.7286  0.9415  0.0704
   16MOL   O317 8747   7.458   7.128   1.600  0.0140 -0.0456  0.1522
   16MOL   C318 8748   7.608   6.953   1.542  0.6232  0.9078  0.2601
   16MOL   C319 8749   7.499   6.860   1.473  0.2771 -0.1012 -0.2783
   16MOL   C320 8750   0.117   6.917   1.478  0.3691  0.0538 -0.7225
   16MOL   C321 8751   0.231   7.002   1.541 -0.4643  0.1842 -0.1342
   16MOL   H322 8752   0.529   7.272   1.521 -1.2488  2.2011 -0.4486
   16MOL   H323 8753   0.471   7.116   1.485 -1.5900 -1.2219 -1.4220
   16MOL   H324 8754   0.335   7.222   1.676  2.7647  0.5114 -0.7359
   16MOL   H325 8755   0.274   7.395   1.482  1.4538 -2.0451 -0.2696
   16MOL   H326 8756   0.180   7.165   1.409  1.3129  0.8937 -0.2914
   16MOL   H327 8757   0.060   7.176   1.691 -2.6748  0.7615  0.2765
   16MOL   H328 8758   0.032   7.297   1.575 -0.4032 -0.0032 -2.1708
   16MOL   H329 8759   7.568   7.122   1.418 -1.1600 -0.1867 -0.0224
   16MOL   H330 8760   7.490   7.161   1.682 -0.4588  2.9293 -0.8047
   16MOL   H331 8761   7.617   6.933   1.649  0.0485  0.1643  0.1762
   16MOL   H332 8762   7.405   6.912   1.489 -1.2457 -2.6032 -0.9053
   16MOL   H333 8763   7.522   6.856   1.367 -0.3858  0.5152 -0.4448
   16MOL   H334 8764   0.111   6.940   1.371  1.1191  1.6272 -0.4367
   16MOL   H335 8765   0.144   6.815   1.504 -2.9765 -0.8695 -0.7274
   16MOL   H336 8766   0.323   6.968   1.493 -0.3785  1.1259 -0.6482
   16MOL   H337 8767   0.235   6.976   1.647 -1.6666  0.7325  0.0596
   16MOL   O338 8768   7.461   6.734   1.536  0.1403  0.2970 -0.0110
   16MOL   C339 8769   7.563   6.630   1.513  0.2718 -0.4518  0.3413
   16MOL   C340 8770   7.503   6.488   1.522 -0.5074 -0.2072 -0.0672
   16MOL   O341 8771   7.429   6.466   1.403 -0.1313 -0.2527  0.3614
   16MOL   C342 8772   7.594   6.365   1.553  0.1728  0.1395 -0.3402
   16MOL   C343 8773   0.072   6.340   1.448 -0.5409 -0.7918 -1.5374
   16MOL   C344 8774   0.156   6.205   1.473 -0.6546 -0.1548  0.7545
   16MOL   O345 8775   0.253   6.205   1.366 -0.2931  0.9275  0.3749
   16MOL   C346 8776   0.062   6.083   1.481 -0.3360 -0.4396  0.4741
   16MOL   C347 8777   0.141   5.953   1.514  0.1240  0.7344 -0.1058
   16MOL   C348 8778   7.585   6.112   1.587 -0.1132  0.3234  0.9088
   16MOL   C349 8779   7.507   6.240   1.578 -0.1266  0.0622  0.3024
   16MOL   H350 8780   0.003   6.641   1.596  0.2722 -0.9603  0.4098
   16MOL   H351 8781   7.618   6.643   1.420 -0.9249  0.6932 -0.2384
   16MOL   H352 8782   7.433   6.495   1.605  1.9585 -0.9895  2.1138
   16MOL   H353 8783   7.431   6.545   1.351  0.2041 -0.8032 -0.4718
   16MOL   H354 8784   0.012   6.395   1.647  0.5709  1.3094 -0.9024
   16MOL   H355 8785   0.032   6.344   1.347 -0.3510  0.5286 -1.5737
   16MOL   H356 8786   0.129   6.433   1.450  0.2691 -1.2410  3.2393
   16MOL   H357 8787   0.213   6.208   1.566  2.0911  0.1031 -0.8886
   16MOL   H358 8788   0.290   6.118   1.369 -1.2041  0.5793  1.9951
   16MOL   H359 8789   0.019   6.075   1.381  0.6281 -0.0649  0.0214
   16MOL   H360 8790   0.199   5.966   1.606  0.8318 -0.3699 -0.3844
   16MOL   H361 8791   0.078   5.865   1.527  1.8464 -0.4203  0.7123
   16MOL   H362 8792   7.629   6.118   1.687 -1.2289  0.1999  1.4178
   16MOL   H363 8793   7.524   6.025   1.608  1.6639 -0.8066  1.4922
   16MOL   H364 8794   7.457   6.249   1.675  0.3727  1.1169  0.4585
   16MOL   H365 8795   7.430   6.235   1.500 -0.4576  1.0140  0.5640
   16MOL   O366 8796   0.244   5.922   1.421  0.8812  0.1470 -0.0404
   16MOL   C367 8797   0.192   5.883   1.292 -0.0813  0.4194 -0.0896
   16MOL   C368 8798   0.317   5.813   1.231  0.7252 -0.0692  0.6498
   16MOL   O369 8799   0.351   5.705   1.314 -0.0165  0.0235 -0.1430
   16MOL   C370 8800   0.287   5.764   1.085 -0.3209 -0.1732 -0.3755
   16MOL   C371 8801   0.166   5.674   1.073 -0.4022  0.4829 -0.0988
   16MOL   C372 8802   0.147   5.629   0.931  0.6374  0.0507  0.1400
   16MOL   O373 8803   0.040   5.528   0.927 -0.2468 -0.3066 -0.2622
   16MOL   C374 8804   0.276   5.569   0.866 -0.6594 -0.0610  0.2040
   16MOL   C375 8805   0.250   5.549   0.722 -0.0342  0.3687  0.2866
   16MOL   C376 8806   0.394   5.672   0.881  0.3729  0.6370  0.0077
   16MOL   C377 8807   0.418   5.701   1.032  0.2749  0.0160 -0.6253
   16MOL   H378 8808   0.149   5.969   1.239  0.3479  0.7341  0.0760
   16MOL   H379 8809   0.116   5.806   1.309  1.6423 -1.4868 -0.8318
   16MOL   H380 8810   0.404   5.877   1.229  1.2219 -0.7172  1.1495
   16MOL   H381 8811   0.326   5.727   1.402 -1.6556  1.8865 -1.0243
   16MOL   H382 8812   0.262   5.851   1.025  1.9825  0.7584 -0.0237
   16MOL   H383 8813   0.175   5.581   1.129 -0.9543 -0.8531 -2.1548
   16MOL   H384 8814   0.072   5.712   1.114 -0.8632 -0.1056 -0.6035
   16MOL   H385 8815   0.097   5.713   0.883  0.5331 -0.3763 -0.5152
   16MOL   H386 8816   7.629   5.527   0.842 -1.0002 -0.9454  0.0993
   16MOL   H387 8817   0.295   5.473   0.915  1.0281 -0.2385 -0.7369
   16MOL   H388 8818   0.167   5.478   0.712  0.1479  0.4776 -2.3673
   16MOL   H389 8819   0.213   5.639   0.673  2.7543  1.0309 -0.7176
   16MOL   H390 8820   0.366   5.761   0.825  0.4789 -1.1050 -2.9577
   16MOL   H391 8821   0.486   5.638   0.834  0.1134 -0.0140 -0.0445
   16MOL   H392 8822   0.511   5.756   1.046  0.8982 -1.1024 -0.2911
   16MOL   H393 8823   0.422   5.610   1.092  0.3986 -0.1732 -0.9185
   16MOL   O394 8824   0.370   5.508   0.664  0.0331  0.3831 -0.4105
   16MOL   C395 8825   0.351   5.497   0.523  0.2340 -0.0496 -0.1553
   16MOL   C396 8826   0.442   5.384   0.474  0.3179  0.1434  0.4601
   16MOL   O397 8827   0.557   5.402   0.546  0.8421 -0.1469  0.1464
   16MOL   C398 8828   0.398   5.237   0.495 -0.4495  0.1207  0.0363
   16MOL   C399 8829   0.375   5.206   0.640 -0.4842 -0.2048 -0.4412
   16MOL   C400 8830   0.346   5.055   0.664 -1.0072  0.2560  0.6471
   16MOL   O401 8831   0.325   5.050   0.806  0.0418 -0.6610  0.1936
   16MOL   C402 8832   0.449   4.955   0.604 -0.3887 -0.9731  0.6597
   16MOL   C403 8833   0.407   4.811   0.636 -0.3963  0.3056  0.3758
   16MOL   C404 8834   0.485   4.990   0.458  0.0771  0.5201 -0.1594
   16MOL   C405 8835   0.514   5.142   0.439 -0.7741 -0.8669  0.0051
   16MOL   H406 8836   0.365   5.594   0.475  0.6240 -0.0580 -0.0663
   16MOL   H407 8837   0.251   5.463   0.498  0.2083 -0.5776  0.6452
   16MOL   H408 8838   0.472   5.397   0.370  0.6562  1.6926  0.7410
   16MOL   H409 8839   0.527   5.422   0.633 -4.4505 -0.8333 -1.3811
   16MOL   H410 8840   0.311   5.214   0.434  1.1161 -3.7814 -0.9105
   16MOL   H411 8841   0.458   5.247   0.698 -1.4201 -1.4662  1.8660
   16MOL   H412 8842   0.293   5.269   0.674 -0.9082  0.9581 -3.4287
   16MOL   H413 8843   0.250   5.036   0.617 -1.0630 -0.9491  1.2304
   16MOL   H414 8844   0.381   5.114   0.846 -0.4612  1.6141 -2.6363
   16MOL   H415 8845   0.529   4.969   0.677 -1.7494  0.5986  1.8908
   16MOL   H416 8846   0.410   4.805   0.745 -1.8744  2.4436  0.5638
   16MOL   H417 8847   0.304   4.799   0.604 -0.6300  1.9926  0.4278
   16MOL   H418 8848   0.408   4.959   0.388 -0.7895  2.6092 -0.1794
   16MOL   H419 8849   0.571   4.930   0.428 -0.5574 -1.3821  1.7009
   16MOL   H420 8850   0.535   5.172   0.336  0.1200 -0.0931  0.4074
   16MOL   H421 8851   0.597   5.169   0.504  0.1715 -2.1152 -0.6673
   16MOL   O422 8852   0.504   4.725   0.579  0.9103  0.1207  0.1730
   16MOL   C423 8853   0.445   4.590   0.565 -0.0452 -0.1214  0.1865
   16MOL   C424 8854   0.539   4.483   0.608 -0.0489 -0.0891 -0.1907
   16MOL   O425 8855   0.652   4.491   0.520 -0.1860  0.2809 -0.3629
   16MOL   C426 8856   0.603   4.499   0.743 -0.0252 -0.8692 -0.8021
   16MOL   C427 8857   0.682   4.375   0.776  0.8793 -0.2905  0.2095
   16MOL   C428 8858   0.757   4.388   0.911 -0.8637  0.1505 -0.1258
   16MOL   O429 8859   0.807   4.260   0.927 -0.4392  0.6695  0.4656
   16MOL   C430 8860   0.668   4.432   1.031 -0.2935  0.2691  0.6680
   16MOL   C431 8861   0.752   4.453   1.162 -0.0382  0.0495 -0.3196
   16MOL   C432 8862   0.582   4.547   0.989  0.2104 -0.3141  0.3633
   16MOL   C433 8863   0.499   4.528   0.859 -0.5627 -0.2823  0.2355
   16MOL   H434 8864   0.423   4.568   0.461  1.9535  0.5822 -0.4079
   16MOL   H435 8865   0.347   4.583   0.612  0.1734 -3.6811  0.1917
   16MOL   H436 8866   0.490   4.385   0.612  0.0325 -0.2335 -2.1277
   16MOL   H437 8867   0.679   4.581   0.511  2.4600 -0.7454 -3.6581
   16MOL   H438 8868   0.669   4.586   0.732 -0.5640 -0.4323 -0.6233
   16MOL   H439 8869   0.617   4.288   0.784  0.9222 -0.4499 -1.0586
   16MOL   H440 8870   0.760   4.358   0.702 -0.8129  0.2405 -1.7208
   16MOL   H441 8871   0.847   4.449   0.908  0.2548 -1.5537 -2.7456
   16MOL   H442 8872   0.886   4.266   0.876  0.2859 -0.8177  1.3829
   16MOL   H443 8873   0.590   4.356   1.044  1.2719 -1.8403 -1.8668
   16MOL   H444 8874   0.841   4.391   1.158 -0.7612 -1.0307  0.0888
   16MOL   H445 8875   0.794   4.553   1.173  0.2505 -0.0847 -0.2048
   16MOL   H446 8876   0.641   4.637   0.969 -0.0837  0.7889  3.9856
   16MOL   H447 8877   0.524   4.580   1.075 -0.1820  2.0763 -0.7667
   16MOL   H448 8878   0.448   4.621   0.837 -0.2045 -0.5965 -2.0889
   16MOL   H449 8879   0.420   4.454   0.868 -0.5800 -0.7782 -3.3685
   16MOL   O450 8880   0.678   4.425   1.281  0.1787 -0.3661 -0.3208
   16MOL   C451 8881   0.668   4.295   1.321 -0.6299 -0.4018  0.5044
   16MOL   C452 8882   0.560   4.291   1.433 -0.0943 -0.2294  0.5792
   16MOL   O453 8883   0.432   4.320   1.381  0.0609 -0.0838 -0.2119
   16MOL   C454 8884   0.552   4.162   1.522 -0.2659 -0.4458  0.0643
   16MOL   C455 8885   0.518   4.028   1.445  0.2919  0.0035 -0.2177
   16MOL   C456 8886   0.490   3.910   1.545  0.6358 -0.8570  0.3469
   16MOL   O457 8887   0.457   3.803   1.470 -0.2793  0.1323 -1.0652
   16MOL   C458 8888   0.387   3.947   1.657 -0.2090 -0.1229  0.9388
   16MOL   C459 8889   0.379   3.822   1.753  0.0270 -0.2058  0.3976
   16MOL   C460 8890   0.439   4.072   1.723  0.3554  0.2938 -0.7796
   16MOL   C461 8891   0.444   4.190   1.630 -0.3699 -0.4787  0.3337
   16MOL   H462 8892   0.762   4.259   1.363 -0.8757 -1.7188 -0.0370
   16MOL   H463 8893   0.643   4.234   1.235  2.1033  1.2761 -1.5371
   16MOL   H464 8894   0.593   4.372   1.498 -0.7120  1.5661 -1.2588
   16MOL   H465 8895   0.441   4.411   1.356 -3.8482 -0.0371 -1.7472
   16MOL   H466 8896   0.649   4.150   1.570 -0.6412  0.2726  1.0281
   16MOL   H467 8897   0.429   4.031   1.382  0.5548  0.9496 -0.5462
   16MOL   H468 8898   0.605   4.004   1.385 -0.2256  0.1318 -1.0267
   16MOL   H469 8899   0.580   3.886   1.602  1.1447  0.6523  0.1959
   16MOL   H470 8900   0.421   3.751   1.540  2.3081  0.0005  0.2241
   16MOL   H471 8901   0.290   3.973   1.613 -0.8663  1.9158  3.3902
   16MOL   H472 8902   0.475   3.810   1.802 -0.7499 -1.5374  1.6446
   16MOL   H473 8903   0.313   3.854   1.834  0.4022  0.4179  0.4627
   16MOL   H474 8904   0.532   4.053   1.778  0.7687  0.8259 -1.2887
   16MOL   H475 8905   0.368   4.098   1.801  1.1436 -0.5288  0.2354
   16MOL   H476 8906   0.473   4.273   1.695 -2.8440  1.7961 -1.3009
   16MOL   H477 8907   0.345   4.226   1.600 -0.6902  0.4435  2.4244
   16MOL   O478 8908   0.339   3.702   1.686  0.4933  0.2986  0.0792
   16MOL   C479 8909   0.315   3.592   1.779 -0.5686 -0.5974 -0.8108
   16MOL   C480 8910   0.248   3.472   1.702 -0.4590 -0.5933 -0.3240
   16MOL   O481 8911   0.121   3.521   1.665  0.3390  0.1412 -0.2903
   16MOL   C482 8912   0.329   3.433   1.574 -0.8999 -0.4274  0.0722
   16MOL   C483 8913   0.248   3.354   1.471  0.2527 -0.5469  0.2925
   16MOL   C484 8914   0.329   3.316   1.348 -0.8765 -0.3316  0.0804
   16MOL   O485 8915   0.242   3.257   1.253 -0.4200 -0.0406  0.1976
   16MOL   C486 8916   0.441   3.221   1.393  0.3495 -0.5072 -0.0778
   16MOL   C487 8917   0.522   3.159   1.282  0.4239 -0.0791 -0.2726
   16MOL   C488 8918   0.529   3.302   1.493  0.3452 -0.0360  0.3150
   16MOL   C489 8919   0.456   3.348   1.620  0.5767 -0.0400  0.2154
   16MOL   H490 8920   0.257   3.612   1.869  1.3393 -1.6696  0.6965
   16MOL   H491 8921   0.413   3.560   1.815 -0.8627 -0.1886  0.3708
   16MOL   H492 8922   0.227   3.383   1.761  2.3861 -1.2751 -0.2944
   16MOL   H493 8923   0.123   3.616   1.664  0.2004  0.1583  0.4458
   16MOL   H494 8924   0.376   3.521   1.531 -1.2961  1.3689  3.1652
   16MOL   H495 8925   0.226   3.263   1.527 -3.5407 -0.3446 -0.7794
   16MOL   H496 8926   0.148   3.392   1.449  1.2736  2.1429  0.0472
   16MOL   H497 8927   0.371   3.403   1.297 -0.9785  0.2677  1.0067
   16MOL   H498 8928   0.186   3.322   1.212 -1.4300 -0.5355  0.7696
   16MOL   H499 8929   0.405   3.135   1.450 -0.1585 -0.4605 -0.3228
   16MOL   H500 8930   0.457   3.125   1.202  0.9295 -0.6578 -0.4457
   16MOL   H501 8931   0.582   3.246   1.256 -0.4336  0.7015  0.3107
   16MOL   H502 8932   0.574   3.388   1.444  0.7959  0.1646  1.0747
   16MOL   H503 8933   0.618   3.241   1.513  0.8926  1.0819  1.3494
   16MOL   H504 8934   0.521   3.396   1.693  1.2000 -0.2582 -0.1898
   16MOL   H505 8935   0.419   3.261   1.674  0.2491  0.2931  0.5237
   16MOL   O506 8936   0.600   3.057   1.341  0.6755 -0.0456 -0.3593
   16MOL   C507 8937   0.592   2.924   1.282  0.3510 -0.3469 -0.0612
   16MOL   C508 8938   0.668   2.900   1.147  0.2822  0.1653  0.3239
   16MOL   O509 8939   0.587   2.908   1.029  0.1448 -0.2315 -0.1211
   16MOL   C510 8940   0.805   2.979   1.132  0.2285  0.0982 -0.0552
   16MOL   C511 8941   0.866   2.967   0.994 -0.3785 -0.2509  0.2308
   16MOL   C512 8942   0.993   3.054   0.989  0.0850  0.2163 -0.2309
   16MOL   O513 8943   1.057   3.040   0.866 -0.5469  0.1851 -0.2183
   16MOL   C514 8944   1.104   3.002   1.097 -0.0861 -0.7123 -0.1037
   16MOL   C515 8945   1.248   3.063   1.095  0.2140 -0.3224  0.8339
   16MOL   C516 8946   1.038   3.004   1.234  0.1382 -0.2144  0.3650
   16MOL   C517 8947   0.909   2.924   1.234 -0.1517  0.5955  0.5798
   16MOL   H518 8948   0.489   2.895   1.262 -0.4065  0.6370  2.3209
   16MOL   H519 8949   0.627   2.847   1.350  1.6081 -0.5599 -0.9288
   16MOL   H520 8950   0.689   2.793   1.151  1.5498  0.3891 -0.2065
   16MOL   H521 8951   0.505   2.863   1.042  0.8504 -0.9086  2.3136
   16MOL   H522 8952   0.786   3.084   1.154 -0.1832 -0.5020  2.6276
   16MOL   H523 8953   0.882   2.861   0.979  1.1145  0.4200 -3.2484
   16MOL   H524 8954   0.796   3.000   0.918  0.9589 -0.1530 -0.9787
   16MOL   H525 8955   0.966   3.159   0.999 -1.0304 -0.2661  2.3748
   16MOL   H526 8956   1.111   2.963   0.877 -2.8947 -1.2936  1.6933
   16MOL   H527 8957   1.115   2.896   1.073 -0.2353 -0.4491 -1.3566
   16MOL   H528 8958   1.236   3.165   1.057 -0.8614 -0.7430  0.0417
   16MOL   H529 8959   1.296   3.067   1.193  2.8962  1.9682 -0.5070
   16MOL   H530 8960   1.015   3.109   1.247 -1.8674 -0.1208 -3.2835
   16MOL   H531 8961   1.104   2.976   1.316 -0.9881 -0.6406  1.1376
   16MOL   H532 8962   0.862   2.927   1.332  2.7735  0.2811  2.0407
   16MOL   H533 8963   0.928   2.818   1.216  0.2482  0.6562  0.6440
   16MOL   O534 8964   1.332   2.978   1.014 -0.5223 -0.4906 -0.3088
   16MOL   C535 8965   1.448   3.034   0.956  0.5530  0.2784  0.1636
   16MOL   C536 8966   1.571   2.991   1.037 -0.1530 -0.1927 -0.5336
   16MOL   O537 8967   1.640   2.899   0.951  0.3112 -0.0118  1.2089
   16MOL   C538 8968   1.674   3.092   1.078  0.4625  0.0110  0.1142
   16MOL   C539 8969   1.788   3.025   1.150 -0.1164 -0.6360  0.4375
   16MOL   C540 8970   1.880   3.127   1.215  0.1813 -0.0234  0.2422
   16MOL   O541 8971   1.971   3.041   1.285 -0.4945  0.7032 -0.9699
   16MOL   C542 8972   1.804   3.223   1.313  0.1855 -0.2276  0.8114
   16MOL   C543 8973   1.895   3.330   1.373  0.4507  0.2545 -0.0938
   16MOL   C544 8974   1.693   3.289   1.232  0.2601  0.4218 -0.4979
   16MOL   C545 8975   1.600   3.179   1.184 -0.2614 -0.3375  0.0068
   16MOL   H546 8976   1.435   3.142   0.958  1.8092  0.4654 -1.3572
   16MOL   H547 8977   1.440   3.006   0.851 -2.9303 -0.6394  0.6122
   16MOL   H548 8978   1.545   2.934   1.126  0.9723 -1.3826 -0.9488
   16MOL   H549 8979   1.684   2.840   1.010  0.8337 -0.0419  0.7916
   16MOL   H550 8980   1.715   3.137   0.988  2.6652 -2.4773 -0.1969
   16MOL   H551 8981   1.739   2.973   1.233  0.7665 -0.4745  1.0723
   16MOL   H552 8982   1.849   2.969   1.079 -0.9899 -0.9925 -0.0402
   16MOL   H553 8983   1.939   3.176   1.137  1.1357 -0.3662  0.7338
   16MOL   H554 8984   1.971   2.969   1.225 -1.1262  0.2677 -0.4461
   16MOL   H555 8985   1.745   3.181   1.395  0.2050  0.0976  0.9957
   16MOL   H556 8986   1.967   3.379   1.306 -1.9276  3.4769 -0.4089
   16MOL   H557 8987   1.831   3.412   1.404  1.0509  1.0783 -0.9681
   16MOL   H558 8988   1.740   3.328   1.141 -1.1340 -1.7346 -2.1821
   16MOL   H559 8989   1.643   3.374   1.279  1.1412  0.5363  0.2626
   16MOL   H560 8990   1.517   3.228   1.132  1.0590  1.4349 -0.4730
   16MOL   H561 8991   1.565   3.116   1.266 -0.7181  0.5920  0.5312
   16MOL   H562 8992   1.945   3.273   1.451  0.8343  0.4029 -0.2292
   17MOL     O1 8993   4.071   6.106   1.545  0.1093  0.8168  0.4666
   17MOL     C2 8994   4.064   6.051   1.414 -0.0064  0.2378 -0.1731
   17MOL     C3 8995   3.967   5.930   1.422  0.1574 -0.8045 -0.4000
   17MOL     O4 8996   3.856   5.979   1.502 -0.6037  0.0102 -0.0648
   17MOL     C5 8997   3.926   5.906   1.275  0.5207  0.3080  0.2151
   17MOL     C6 8998   3.810   5.799   1.267 -0.0443 -0.1556  0.0478
   17MOL     C7 8999   3.773   5.763   1.122  0.3417 -0.1701  0.5246
   17MOL     O8 9000   3.670   5.659   1.115 -0.3215 -0.5498 -0.1614
   17MOL     C9 9001   3.905   5.717   1.051  0.0095  0.0178 -0.0528
   17MOL    C10 9002   3.875   5.665   0.912 -0.4141  0.9694 -0.7676
   17MOL    C11 9003   4.011   5.834   1.048 -0.2567  0.3263 -0.2327
   17MOL    C12 9004   4.052   5.876   1.189  0.2524 -0.1359 -0.0327
   17MOL    H13 9005   4.163   6.012   1.390  0.6285  0.9080  1.3077
   17MOL    H14 9006   4.033   6.133   1.349 -1.2463  0.5005  0.7334
   17MOL    H15 9007   4.018   5.855   1.481  1.1046 -0.2117 -0.4589
   17MOL    H16 9008   3.887   6.033   1.573 -0.8503 -0.4973  0.4329
   17MOL    H17 9009   3.878   5.993   1.230  0.0134 -0.7047 -1.1987
   17MOL    H18 9010   3.843   5.709   1.319  1.5832 -0.1379 -0.9322
   17MOL    H19 9011   3.717   5.834   1.313  1.2750  3.0282  0.4943
   17MOL    H20 9012   3.730   5.849   1.070  0.9214 -0.4614 -0.4357
   17MOL    H21 9013   3.678   5.609   1.195  1.3356  1.4212  0.9606
   17MOL    H22 9014   3.954   5.631   1.098 -0.2282  0.2502  0.6267
   17MOL    H23 9015   3.808   5.579   0.920  1.9855 -0.7832  1.1440
   17MOL    H24 9016   3.819   5.745   0.862 -4.0063  0.6099  2.4293
   17MOL    H25 9017   3.967   5.925   1.007  0.1258 -0.0717 -1.5526
   17MOL    H26 9018   4.095   5.819   0.980 -0.5747 -0.8408 -0.3859
   17MOL    H27 9019   4.123   5.958   1.182 -0.4236  0.6668  2.0369
   17MOL    H28 9020   4.116   5.801   1.234  0.2203 -2.2299 -3.2986
   17MOL    H29 9021   4.159   6.133   1.566  0.7850  1.0658 -2.4954
   17MOL    O30 9022   3.998   5.631   0.845  0.0501 -0.2083  0.6059
   17MOL    C31 9023   3.964   5.548   0.735 -0.6544  0.1903 -0.1010
   17MOL    C32 9024   4.088   5.505   0.662 -0.4719 -0.3602  0.0114
   17MOL    O33 9025   4.138   5.406   0.753  0.5546 -0.7012 -0.5447
   17MOL    C34 9026   4.069   5.437   0.525 -0.3957 -0.1147 -1.0260
   17MOL    C35 9027   4.186   5.331   0.498 -0.2965 -0.3790 -0.0795
   17MOL    C36 9028   4.160   5.267   0.354  0.4478  0.1531 -1.2080
   17MOL    O37 9029   4.278   5.191   0.326 -0.4171 -0.1849  0.5723
   17MOL    C38 9030   4.136   5.379   0.232 -0.6580  0.3547  0.2063
   17MOL    C39 9031   4.124   5.314   0.099 -0.1763 -0.3336  0.2319
   17MOL    C40 9032   4.018   5.470   0.269  0.6744 -0.7354  0.2114
   17MOL    C41 9033   4.053   5.539   0.405 -0.0054  0.0728 -0.1683
   17MOL    H42 9034   3.896   5.603   0.670 -0.9008  0.8821  0.7316
   17MOL    H43 9035   3.908   5.462   0.772  0.3019  0.9080  3.1558
   17MOL    H44 9036   4.164   5.582   0.678 -0.4491 -0.6611  1.4735
   17MOL    H45 9037   4.066   5.364   0.797  0.6138  1.1136  1.3604
   17MOL    H46 9038   3.976   5.382   0.536 -0.2159 -0.0662  0.9182
   17MOL    H47 9039   4.284   5.377   0.506 -1.4156  1.9339  0.6494
   17MOL    H48 9040   4.187   5.243   0.563 -1.1979 -0.8861 -0.7439
   17MOL    H49 9041   4.080   5.193   0.365  2.2157 -2.0167 -2.7041
   17MOL    H50 9042   4.358   5.234   0.350 -0.6566  0.0094  1.0301
   17MOL    H51 9043   4.227   5.440   0.236 -0.3532 -0.1716  2.1926
   17MOL    H52 9044   4.208   5.252   0.068  1.0166  1.6093 -0.4390
   17MOL    H53 9045   4.034   5.252   0.094 -0.7937  0.4981  0.7552
   17MOL    H54 9046   3.928   5.408   0.271  0.1835 -0.0006  2.1874
   17MOL    H55 9047   4.010   5.549   0.195  0.3945  2.0841  3.1351
   17MOL    H56 9048   3.978   5.614   0.427 -1.1513 -0.9280 -0.6123
   17MOL    H57 9049   4.137   5.606   0.387 -0.5340  0.4146 -1.3782
   17MOL    O58 9050   4.114   5.416   0.004  0.0098  0.5679 -0.2861
   17MOL    C59 9051   4.103   5.362   7.498 -0.0563 -0.3768 -0.0190
   17MOL    C60 9052   4.118   5.487   7.403  1.1363 -0.1136  0.0276
   17MOL    O61 9053   4.251   5.507   7.353 -0.0460  0.2675  0.1960
   17MOL    C62 9054   4.018   5.477   7.281  0.7788  0.0601  0.2948
   17MOL    C63 9055   4.046   5.358   7.181  0.4259 -0.0248  0.2859
   17MOL    C64 9056   3.957   5.378   7.059 -0.3844 -0.3758  0.4814
   17MOL    O65 9057   3.971   5.262   6.974 -0.0415  0.3259  0.5703
   17MOL    C66 9058   3.978   5.518   6.981  0.0024 -0.7765  0.0360
   17MOL    C67 9059   3.909   5.528   6.847 -0.2330  0.3279  0.2182
   17MOL    C68 9060   3.931   5.616   7.090  0.1967  0.0860  0.5118
   17MOL    C69 9061   4.016   5.618   7.211 -0.3397 -0.7755 -0.3606
   17MOL    H70 9062   4.004   5.322   7.477  0.2018 -0.7505 -0.5268
   17MOL    H71 9063   4.174   5.282   7.477  1.7674  1.0069  0.6999
   17MOL    H72 9064   4.095   5.577   7.460  0.0845 -0.8590  0.7926
   17MOL    H73 9065   4.308   5.524   7.426 -0.1390 -0.5303  0.4589
   17MOL    H74 9066   3.921   5.468   7.329  0.6304  4.9648  1.2479
   17MOL    H75 9067   4.153   5.349   7.160  0.8219  0.9410  1.7530
   17MOL    H76 9068   4.024   5.266   7.236 -0.8995  0.1375  0.0277
   17MOL    H77 9069   3.855   5.382   7.095 -0.1403 -0.4208  1.1756
   17MOL    H78 9070   3.884   5.234   6.953  0.5729 -2.1267  1.1245
   17MOL    H79 9071   4.083   5.545   6.968  0.3746 -1.6054  1.1834
   17MOL    H80 9072   3.961   5.475   6.768 -1.8764  0.2763 -0.8579
   17MOL    H81 9073   3.809   5.485   6.853  0.4535 -1.1822  0.9685
   17MOL    H82 9074   3.826   5.596   7.114  0.5993 -0.3057  2.0443
   17MOL    H83 9075   3.943   5.717   7.052 -1.8387  0.2496  0.1998
   17MOL    H84 9076   3.982   5.690   7.285  0.4215  0.6432 -1.3888
   17MOL    H85 9077   4.117   5.654   7.196 -0.5655  0.3510  0.7330
   17MOL    O86 9078   3.910   5.661   6.803  0.5198 -0.0944 -0.3316
   17MOL    C87 9079   3.834   5.689   6.685 -0.3919  0.4405  0.2013
   17MOL    C88 9080   3.885   5.823   6.626  0.7553 -0.4177  0.0835
   17MOL    O89 9081   3.832   5.929   6.696  0.2464 -0.5531 -0.0304
   17MOL    C90 9082   4.042   5.826   6.621  0.9038  0.6009  0.1995
   17MOL    C91 9083   4.085   5.957   6.573 -0.3908 -0.2072 -0.7421
   17MOL    C92 9084   4.245   5.970   6.577 -0.3230  0.6307 -0.6399
   17MOL    O93 9085   4.279   6.094   6.515  0.2752 -0.2385 -0.2442
   17MOL    C94 9086   4.314   5.854   6.490  0.7969  0.0348  0.4289
   17MOL    C95 9087   4.464   5.864   6.507  0.1108 -0.5310 -0.2400
   17MOL    C96 9088   4.257   5.716   6.543 -0.3435  0.5283 -1.3818
   17MOL    C97 9089   4.102   5.719   6.534 -0.3725 -0.6145  0.5433
   17MOL    H98 9090   3.729   5.689   6.715  0.5320  0.6608  3.7252
   17MOL    H99 9091   3.847   5.610   6.611  0.6605  0.2286  0.6098
   17MOL   H100 9092   3.844   5.839   6.527  0.3788  1.7626  0.5786
   17MOL   H101 9093   3.877   5.915   6.779 -0.1067  1.1607  0.4624
   17MOL   H102 9094   4.088   5.823   6.720  0.8938  0.1229  0.1909
   17MOL   H103 9095   4.053   5.983   6.472 -1.4647  0.2523 -0.2962
   17MOL   H104 9096   4.044   6.031   6.642 -0.2037 -0.8406  0.0554
   17MOL   H105 9097   4.284   5.969   6.678 -0.5613  2.4620 -0.5044
   17MOL   H106 9098   4.224   6.109   6.440  0.8019 -0.8574 -0.7507
   17MOL   H107 9099   4.294   5.844   6.383 -0.2270 -2.8379  0.8443
   17MOL   H108 9100   4.511   5.952   6.464 -0.5068 -0.2353 -0.3270
   17MOL   H109 9101   4.488   5.850   6.612  0.8837  0.1747 -0.3238
   17MOL   H110 9102   4.286   5.710   6.647  1.1607  0.5247 -1.7933
   17MOL   H111 9103   4.300   5.639   6.479 -2.5721  0.2621 -2.6164
   17MOL   H112 9104   4.063   5.621   6.562 -1.2313 -0.3549  0.2521
   17MOL   H113 9105   4.069   5.729   6.431  0.4645 -0.5495  0.2760
   17MOL   O114 9106   4.521   5.751   6.437 -0.0803 -0.1800  0.0447
   17MOL   C115 9107   4.643   5.701   6.499  0.6347  0.1711  0.3699
   17MOL   C116 9108   4.682   5.567   6.427 -0.5122 -0.6395  0.5690
   17MOL   O117 9109   4.560   5.497   6.419  0.3188  0.7443 -0.1877
   17MOL   C118 9110   4.762   5.589   6.296 -0.0643 -0.0803 -0.3932
   17MOL   C119 9111   4.879   5.686   6.296 -0.1624 -0.4521 -0.3039
   17MOL   C120 9112   4.952   5.689   6.162 -0.3392 -0.0992  0.2227
   17MOL   O121 9113   5.042   5.794   6.175 -0.2238 -0.8501  0.8766
   17MOL   C122 9114   4.862   5.716   6.036 -0.1943 -0.0074 -1.2951
   17MOL   C123 9115   4.948   5.696   5.909  0.2785  0.0582 -0.0237
   17MOL   C124 9116   4.738   5.628   6.037  0.3361 -0.4336  0.6381
   17MOL   C125 9117   4.666   5.624   6.174  0.2933  0.5787  0.2042
   17MOL   H126 9118   4.627   5.675   6.603 -1.7616 -1.7472 -0.4238
   17MOL   H127 9119   4.726   5.770   6.485  1.1984 -1.1504 -3.4268
   17MOL   H128 9120   4.743   5.506   6.493  1.4378 -1.9288 -2.3300
   17MOL   H129 9121   4.496   5.565   6.404 -1.2292 -0.7814 -0.7193
   17MOL   H130 9122   4.801   5.490   6.270  1.9516  0.3940  0.6873
   17MOL   H131 9123   4.843   5.789   6.304  0.8999 -0.2063  1.3958
   17MOL   H132 9124   4.947   5.671   6.379 -0.4529 -0.1235 -0.0047
   17MOL   H133 9125   5.005   5.595   6.148  1.0530  0.6679  0.2159
   17MOL   H134 9126   4.999   5.877   6.165 -0.5493 -1.0484  0.6218
   17MOL   H135 9127   4.828   5.819   6.043  0.6136  0.3591 -2.5228
   17MOL   H136 9128   5.034   5.764   5.911 -0.9472  1.6987 -1.4506
   17MOL   H137 9129   4.977   5.594   5.888  0.5060 -0.5470  3.0269
   17MOL   H138 9130   4.766   5.525   6.020 -2.5091 -1.3091  0.9547
   17MOL   H139 9131   4.661   5.640   5.961  0.4887 -0.2531  0.5106
   17MOL   H140 9132   4.578   5.561   6.178  0.0954  0.7556 -1.1538
   17MOL   H141 9133   4.630   5.726   6.186 -1.0231  0.1200  0.2063
   17MOL   O142 9134   4.864   5.740   5.803  0.1652 -0.5191  0.3015
   17MOL   C143 9135   4.918   5.723   5.669 -0.9994 -0.2521  0.0538
   17MOL   C144 9136   4.804   5.764   5.568 -0.5467 -0.5848 -0.2712
   17MOL   O145 9137   4.853   5.798   5.430  0.2139  0.5531 -0.3139
   17MOL   C146 9138   4.679   5.672   5.558  0.4987  0.4300 -0.5799
   17MOL   C147 9139   4.711   5.535   5.492  0.2950 -0.5158  0.7232
   17MOL   C148 9140   4.589   5.441   5.487 -0.1097  0.4897 -0.1910
   17MOL   O149 9141   4.623   5.330   5.408  0.1727 -0.0532 -0.2334
   17MOL   C150 9142   4.467   5.511   5.425  0.5144  0.4640 -0.0713
   17MOL   C151 9143   4.348   5.409   5.440 -0.6527  0.3972  0.2396
   17MOL   C152 9144   4.433   5.653   5.494 -1.4211  0.8829  0.1909
   17MOL   C153 9145   4.563   5.743   5.484 -0.2689 -0.3968  0.4557
   17MOL   H154 9146   4.939   5.617   5.652 -0.7093 -0.5251  2.0747
   17MOL   H155 9147   5.014   5.773   5.661 -0.4304 -1.4117 -0.5672
   17MOL   H156 9148   4.777   5.864   5.602  1.0605 -0.1658 -0.1915
   17MOL   H157 9149   4.912   5.872   5.433 -0.0758  0.7562  0.7418
   17MOL   H158 9150   4.643   5.656   5.660 -1.1971  2.0165 -0.9100
   17MOL   H159 9151   4.743   5.556   5.390 -1.2268 -0.4650  0.2446
   17MOL   H160 9152   4.787   5.481   5.549 -1.3356 -1.0148  2.4909
   17MOL   H161 9153   4.556   5.405   5.585  2.5275  0.8569  0.8728
   17MOL   H162 9154   4.566   5.259   5.431  0.7594 -0.7081 -0.7967
   17MOL   H163 9155   4.486   5.522   5.318 -0.8650 -0.2495 -0.4009
   17MOL   H164 9156   4.382   5.317   5.394  0.5191 -0.2535  2.3765
   17MOL   H165 9157   4.333   5.395   5.547  0.0877 -1.0625  0.1545
   17MOL   H166 9158   4.395   5.643   5.595 -1.0228  1.5250  0.4125
   17MOL   H167 9159   4.362   5.699   5.425 -2.7713  1.1852  1.7780
   17MOL   H168 9160   4.539   5.841   5.525  1.8506  0.4036 -0.1460
   17MOL   H169 9161   4.585   5.761   5.378 -0.1700 -0.0486  0.5349
   17MOL   O170 9162   4.230   5.461   5.378 -0.0223  0.4350  0.2114
   17MOL   C171 9163   4.123   5.468   5.466 -0.1410  0.1481  0.0482
   17MOL   C172 9164   3.992   5.473   5.391 -0.2684 -0.5143 -0.0188
   17MOL   O173 9165   4.011   5.592   5.311 -0.0138 -0.3296  0.8807
   17MOL   C174 9166   3.953   5.337   5.299 -0.2580 -0.0080 -0.4154
   17MOL   C175 9167   4.054   5.315   5.190 -0.4143  0.6432 -0.0778
   17MOL   C176 9168   4.014   5.205   5.097  0.3720 -0.3396 -0.2831
   17MOL   O177 9169   4.113   5.195   5.005 -0.2576 -0.0599  0.2279
   17MOL   C178 9170   3.873   5.226   5.039 -0.0763  0.0955 -0.3435
   17MOL   C179 9171   3.824   5.119   4.944 -0.2839  0.1798  0.4182
   17MOL   C180 9172   3.766   5.236   5.150 -0.3717 -0.1859 -0.6634
   17MOL   C181 9173   3.807   5.346   5.255 -0.2549 -0.1360 -0.2687
   17MOL   H182 9174   4.129   5.560   5.524 -0.4007  0.0026  0.3110
   17MOL   H183 9175   4.116   5.382   5.532  1.0641  1.2842  1.6962
   17MOL   H184 9176   3.916   5.494   5.466  0.1345  0.2865  0.1646
   17MOL   H185 9177   4.104   5.588   5.296 -0.4866 -0.6051 -2.2509
   17MOL   H186 9178   3.963   5.246   5.358  0.5860 -0.6635 -1.5517
   17MOL   H187 9179   4.070   5.411   5.140  0.2548  0.6165  0.0843
   17MOL   H188 9180   4.153   5.295   5.230  0.1758  2.1560 -0.7476
   17MOL   H189 9181   4.016   5.120   5.165  3.5032  1.2414  1.7020
   17MOL   H190 9182   4.105   5.260   4.937  0.5012 -0.1248  0.0676
   17MOL   H191 9183   3.865   5.321   4.985  0.6806  1.1536  1.3463
   17MOL   H192 9184   3.821   5.027   5.002 -1.8957 -0.6873 -0.9992
   17MOL   H193 9185   3.719   5.119   4.913 -0.1493  0.6324 -0.0380
   17MOL   H194 9186   3.776   5.134   5.186 -0.2908  0.0610  0.0059
   17MOL   H195 9187   3.664   5.252   5.112  0.2392 -0.5435 -2.5160
   17MOL   H196 9188   3.740   5.344   5.341 -1.6659  0.3064 -1.3416
   17MOL   H197 9189   3.775   5.441   5.213  0.4100  0.4136  0.4370
   17MOL   O198 9190   3.909   5.134   4.829  0.1182 -0.1741 -0.2573
   17MOL   C199 9191   3.879   5.036   4.739  0.2201 -0.0260 -0.4732
   17MOL   C200 9192   3.959   4.901   4.749  0.1250 -0.1478  0.3181
   17MOL   O201 9193   3.866   4.797   4.750  0.4288  0.0917 -0.2436
   17MOL   C202 9194   4.052   4.891   4.625 -0.1104 -0.3140  0.5848
   17MOL   C203 9195   4.112   4.748   4.611  0.3675  1.1382 -0.8698
   17MOL   C204 9196   4.207   4.724   4.490 -0.2238 -1.1268  0.0967
   17MOL   O205 9197   4.274   4.606   4.511  0.8948  0.4056 -0.2640
   17MOL   C206 9198   4.317   4.833   4.483 -0.9818 -0.2258 -0.3120
   17MOL   C207 9199   4.392   4.834   4.350  0.5702 -0.1125 -0.2452
   17MOL   C208 9200   4.260   4.978   4.506  0.3052 -0.1072  0.0263
   17MOL   C209 9201   4.172   5.000   4.631  0.0397  0.1006 -0.4714
   17MOL   H210 9202   3.897   5.087   4.644  1.3527 -0.0595 -0.2785
   17MOL   H211 9203   3.771   5.026   4.726  0.0718  0.3829  0.4611
   17MOL   H212 9204   4.022   4.904   4.838  1.4922  0.9712 -0.6661
   17MOL   H213 9205   3.809   4.808   4.676  0.4522 -0.9739 -0.4309
   17MOL   H214 9206   3.991   4.907   4.536  0.6754  1.4981  0.3446
   17MOL   H215 9207   4.164   4.717   4.701  1.3614  1.6426 -1.2630
   17MOL   H216 9208   4.032   4.678   4.584 -0.9281  1.2413  2.4850
   17MOL   H217 9209   4.139   4.720   4.405  0.4197  0.7352 -0.5248
   17MOL   H218 9210   4.212   4.536   4.496  1.0529 -0.0825  1.3269
   17MOL   H219 9211   4.393   4.814   4.558  0.9302 -1.3969 -2.5043
   17MOL   H220 9212   4.419   4.735   4.312  0.9608  0.2804 -1.0005
   17MOL   H221 9213   4.332   4.871   4.267  1.1916 -0.8702 -1.0455
   17MOL   H222 9214   4.201   5.005   4.418 -0.9416  1.5128  1.3110
   17MOL   H223 9215   4.341   5.051   4.502 -0.3984  0.5921 -3.1861
   17MOL   H224 9216   4.134   5.102   4.638  2.8561  1.2661 -1.4744
   17MOL   H225 9217   4.234   4.977   4.718  1.4577 -1.4303 -1.8587
   17MOL   O226 9218   4.509   4.911   4.351 -0.3527  0.4990 -0.2530
   17MOL   C227 9219   4.572   4.919   4.222  0.1572  0.9361  0.5845
   17MOL   C228 9220   4.718   4.963   4.243 -0.1599 -0.3880 -0.1753
   17MOL   O229 9221   4.719   5.072   4.331  0.4753 -0.1823  0.5254
   17MOL   C230 9222   4.819   4.860   4.300  0.3910  0.7413 -0.0073
   17MOL   C231 9223   4.794   4.824   4.450 -0.1727  0.4545 -0.4769
   17MOL   C232 9224   4.908   4.734   4.515  0.0681  0.0244 -0.2702
   17MOL   O233 9225   4.877   4.726   4.652  0.9123  0.0187  0.1247
   17MOL   C234 9226   5.046   4.797   4.495 -0.5994 -0.1321  0.4396
   17MOL   C235 9227   5.161   4.713   4.550 -0.0268 -0.6171 -0.1395
   17MOL   C236 9228   5.073   4.827   4.347  0.1424  0.4964 -0.6416
   17MOL   C237 9229   4.968   4.912   4.281 -1.4134  0.4548  0.1049
   17MOL   H238 9230   4.528   5.003   4.168 -1.4782 -0.0015  0.4135
   17MOL   H239 9231   4.565   4.828   4.163  0.7909  1.3327 -0.0993
   17MOL   H240 9232   4.757   4.993   4.146 -0.9028  0.5386 -0.1842
   17MOL   H241 9233   4.641   5.050   4.380 -0.1176 -2.1228 -1.2316
   17MOL   H242 9234   4.817   4.773   4.235 -0.9743  0.1243  0.8452
   17MOL   H243 9235   4.771   4.910   4.512 -0.2231  1.3788 -1.7519
   17MOL   H244 9236   4.704   4.762   4.452 -0.0692  0.1859 -2.5220
   17MOL   H245 9237   4.922   4.639   4.462  1.5162  0.3325 -0.4839
   17MOL   H246 9238   4.832   4.644   4.669  0.2885 -0.5347 -3.5942
   17MOL   H247 9239   5.048   4.889   4.555  0.7666 -1.1728  2.0223
   17MOL   H248 9240   5.258   4.739   4.509 -0.2242 -1.2961 -1.0520
   17MOL   H249 9241   5.154   4.726   4.658 -2.5791 -0.4179 -0.2813
   17MOL   H250 9242   5.077   4.728   4.303 -0.1289  0.9303 -1.6411
   17MOL   H251 9243   5.168   4.880   4.338  0.7189 -0.8048 -2.4516
   17MOL   H252 9244   5.001   4.931   4.179  2.1719 -1.1906  0.8886
   17MOL   H253 9245   4.968   5.009   4.330  1.6036  0.1842  0.6917
   17MOL   O254 9246   5.141   4.571   4.532  0.2875 -0.4211  0.2079
   17MOL   C255 9247   5.246   4.523   4.444  0.2657 -0.3899 -0.0665
   17MOL   C256 9248   5.251   4.371   4.426 -0.1157  0.6450 -0.4628
   17MOL   O257 9249   5.167   4.310   4.327 -0.1176  0.1108  0.7397
   17MOL   C258 9250   5.395   4.316   4.409 -0.4959 -0.4612  0.4097
   17MOL   C259 9251   5.459   4.362   4.279 -0.2443  0.6043 -0.0235
   17MOL   C260 9252   5.607   4.323   4.279  0.2599 -0.0025 -0.3970
   17MOL   O261 9253   5.641   4.362   4.156 -0.3358  0.0449 -0.2505
   17MOL   C262 9254   5.622   4.166   4.299 -0.3481 -0.6515  0.7789
   17MOL   C263 9255   5.775   4.128   4.302  0.2968  0.1958  0.8142
   17MOL   C264 9256   5.541   4.109   4.414  0.1989 -0.5999  0.2622
   17MOL   C265 9257   5.402   4.164   4.414  0.7922 -0.1986  0.1880
   17MOL   H266 9258   5.338   4.553   4.494 -0.4320 -0.6163  1.4015
   17MOL   H267 9259   5.236   4.570   4.346 -0.6384  1.3558  0.8235
   17MOL   H268 9260   5.216   4.328   4.520  1.6507  1.6878  0.7084
   17MOL   H269 9261   5.214   4.236   4.292  1.7594  1.5718  0.0495
   17MOL   H270 9262   5.451   4.358   4.493  1.1680  0.2719 -1.0215
   17MOL   H271 9263   5.411   4.321   4.191 -1.0927  0.8196  0.3330
   17MOL   H272 9264   5.451   4.471   4.282  0.6052  0.7019 -1.1150
   17MOL   H273 9265   5.667   4.377   4.352  1.4599  0.4889 -1.7332
   17MOL   H274 9266   5.733   4.386   4.158 -0.5532  1.1961 -2.5037
   17MOL   H275 9267   5.585   4.116   4.210  0.9813  0.4412 -0.4138
   17MOL   H276 9268   5.802   4.161   4.202 -0.2876 -0.8889  0.2861
   17MOL   H277 9269   5.834   4.181   4.377  1.2335  1.7339 -0.9815
   17MOL   H278 9270   5.592   4.132   4.507 -2.2164 -1.2776  1.7728
   17MOL   H279 9271   5.546   4.000   4.409  1.4472 -0.4902 -1.3743
   17MOL   H280 9272   5.354   4.126   4.504 -2.4155 -0.4458 -1.5494
   17MOL   H281 9273   5.351   4.123   4.326  1.2150 -1.2012  0.4026
   17MOL   O282 9274   5.783   3.984   4.294  0.9154 -0.1565 -0.1626
   17MOL   C283 9275   5.911   3.918   4.309 -0.0683 -0.0448  0.3798
   17MOL   C284 9276   5.998   3.934   4.187  0.7892 -1.0758 -0.4228
   17MOL   O285 9277   6.060   4.067   4.202 -0.5029 -0.9096 -0.0265
   17MOL   C286 9278   6.107   3.830   4.177 -0.3143 -0.0485 -0.3645
   17MOL   C287 9279   6.049   3.704   4.106 -0.3372 -0.1643  0.0342
   17MOL   C288 9280   6.164   3.600   4.076  0.5179 -0.6024 -0.4333
   17MOL   O289 9281   6.104   3.497   4.010 -0.9823 -0.7551  0.2860
   17MOL   C290 9282   6.218   3.557   4.209  0.7674 -0.3149 -0.1645
   17MOL   C291 9283   6.323   3.439   4.193  0.0065 -0.8240 -0.4761
   17MOL   C292 9284   6.271   3.677   4.289 -0.3175 -0.0295 -0.5878
   17MOL   C293 9285   6.168   3.785   4.308  0.0424  0.2559 -0.2254
   17MOL   H294 9286   5.879   3.815   4.323 -0.7681 -0.2187 -2.2049
   17MOL   H295 9287   5.959   3.952   4.401  0.1339 -2.8597  1.3457
   17MOL   H296 9288   5.937   3.942   4.097  0.5089 -2.6813 -0.3867
   17MOL   H297 9289   6.105   4.095   4.124  0.4861 -2.1431  0.0922
   17MOL   H298 9290   6.196   3.860   4.121  0.9311 -0.3032  1.4249
   17MOL   H299 9291   5.972   3.657   4.168 -1.5691  1.7632  0.0221
   17MOL   H300 9292   6.006   3.733   4.010  4.6415 -1.5672 -2.7816
   17MOL   H301 9293   6.249   3.639   4.019  1.4167 -2.1520 -0.1571
   17MOL   H302 9294   6.165   3.434   3.977 -1.4226 -0.6542 -0.7212
   17MOL   H303 9295   6.145   3.507   4.272  1.3350 -1.5518 -0.4656
   17MOL   H304 9296   6.282   3.353   4.140 -0.8710 -0.4765 -0.3676
   17MOL   H305 9297   6.409   3.471   4.134 -1.7008  1.4576 -1.7964
   17MOL   H306 9298   6.360   3.719   4.243 -1.4995  1.4707 -1.5717
   17MOL   H307 9299   6.315   3.644   4.383  0.7831  0.7542 -0.8132
   17MOL   H308 9300   6.221   3.868   4.353  1.4277 -1.3997  1.2874
   17MOL   H309 9301   6.097   3.747   4.382  1.3982 -0.6190  0.6347
   17MOL   O310 9302   6.373   3.406   4.326  0.2020 -0.0740 -0.3491
   17MOL   C311 9303   6.429   3.279   4.326  0.1307  0.3682 -0.3175
   17MOL   C312 9304   6.479   3.242   4.470 -0.4527 -0.3727  0.3031
   17MOL   O313 9305   6.367   3.192   4.543  0.4858 -0.1070  0.1501
   17MOL   C314 9306   6.595   3.137   4.466 -0.0746 -0.3533  0.6480
   17MOL   C315 9307   6.725   3.193   4.418 -0.0251 -0.7286 -0.0758
   17MOL   C316 9308   6.840   3.084   4.417 -0.2268  0.4325  0.0052
   17MOL   O317 9309   6.963   3.141   4.363  0.2211  0.3443 -1.0218
   17MOL   C318 9310   6.797   2.952   4.351 -0.0610 -0.5014 -0.0330
   17MOL   C319 9311   6.900   2.838   4.374  0.1758  0.8864 -0.4219
   17MOL   C320 9312   6.653   2.908   4.404 -0.3552 -0.0226  0.3731
   17MOL   C321 9313   6.552   3.012   4.387 -0.2026  0.1324 -0.0235
   17MOL   H322 9314   6.508   3.273   4.251  1.3495  0.3229  0.9470
   17MOL   H323 9315   6.356   3.205   4.294  0.3323 -0.2152  0.5534
   17MOL   H324 9316   6.514   3.324   4.532 -0.6711 -0.1645  0.1547
   17MOL   H325 9317   6.314   3.264   4.573  3.8701  2.7984 -0.5076
   17MOL   H326 9318   6.623   3.101   4.565  0.3837  1.7387  1.3120
   17MOL   H327 9319   6.722   3.242   4.321  0.1118  0.3291  0.4421
   17MOL   H328 9320   6.756   3.267   4.492  0.2408 -0.6040 -0.3106
   17MOL   H329 9321   6.857   3.065   4.523 -1.6587  3.1404  0.7864
   17MOL   H330 9322   7.028   3.116   4.427 -0.6913  2.4036  0.7684
   17MOL   H331 9323   6.802   2.972   4.244 -1.3287 -0.3124 -0.0635
   17MOL   H332 9324   7.001   2.862   4.343 -0.1026  0.9252 -1.2988
   17MOL   H333 9325   6.907   2.831   4.483 -0.4541  0.0186 -0.4328
   17MOL   H334 9326   6.659   2.874   4.507  0.2783  0.2606  0.4280
   17MOL   H335 9327   6.625   2.816   4.352 -1.2334  0.3363  0.2098
   17MOL   H336 9328   6.465   2.974   4.441  1.0899 -1.1674  1.1694
   17MOL   H337 9329   6.521   3.035   4.285  1.6440  0.7276 -0.4588
   17MOL   O338 9330   6.846   2.728   4.302  0.7410  0.4686  0.2561
   17MOL   C339 9331   6.943   2.629   4.268  0.7618 -0.6519  0.5999
   17MOL   C340 9332   7.017   2.559   4.388  0.5527  0.6540 -0.6999
   17MOL   O341 9333   6.918   2.476   4.444 -0.2251  0.3443 -0.4885
   17MOL   C342 9334   7.136   2.476   4.343 -0.8263  0.7867 -0.7216
   17MOL   C343 9335   7.114   2.363   4.242 -0.5029 -0.9621  0.2949
   17MOL   C344 9336   7.235   2.277   4.208 -0.3541  0.2686 -0.2118
   17MOL   O345 9337   7.188   2.162   4.132 -0.0551  0.7347 -0.1964
   17MOL   C346 9338   7.296   2.226   4.334 -0.1062  0.0025  0.1509
   17MOL   C347 9339   7.408   2.125   4.312 -0.3320  0.5058 -0.1310
   17MOL   C348 9340   7.338   2.347   4.423 -0.0945 -0.1868  0.3367
   17MOL   C349 9341   7.215   2.426   4.463 -0.2606  0.1249 -0.1831
   17MOL   H350 9342   7.000   2.689   4.197  0.0404  0.1670  0.6939
   17MOL   H351 9343   6.897   2.555   4.203 -0.9793  0.3345  0.6893
   17MOL   H352 9344   7.041   2.637   4.461  1.1917 -0.6922  0.5553
   17MOL   H353 9345   6.836   2.520   4.423 -0.2901  0.0009 -0.9822
   17MOL   H354 9346   7.207   2.546   4.298 -1.8563  3.0234  0.9934
   17MOL   H355 9347   7.031   2.301   4.277 -0.7835 -1.1720 -0.7217
   17MOL   H356 9348   7.082   2.407   4.148 -0.5487 -3.2727 -0.8064
   17MOL   H357 9349   7.314   2.327   4.152 -1.5662  0.7504 -1.5292
   17MOL   H358 9350   7.123   2.111   4.178  2.9826 -1.9750  1.3902
   17MOL   H359 9351   7.220   2.163   4.380 -0.6957  0.6261  0.0330
   17MOL   H360 9352   7.361   2.033   4.277  1.2870  0.1803 -1.5463
   17MOL   H361 9353   7.474   2.147   4.228 -2.8556 -1.2015 -2.6623
   17MOL   H362 9354   7.398   2.414   4.362  0.1954 -0.9998 -0.2669
   17MOL   H363 9355   7.388   2.324   4.517  2.5160  0.2100 -0.9353
   17MOL   H364 9356   7.253   2.516   4.511 -1.3352  1.1338 -1.2173
   17MOL   H365 9357   7.150   2.364   4.526  1.2412 -0.2877  0.9958
   17MOL   O366 9358   7.470   2.097   4.434 -0.5173  0.2563  0.1274
   17MOL   C367 9359   7.613   2.111   4.443  0.0593 -0.1605  0.1397
   17MOL   C368 9360   0.042   2.119   4.584  0.5662 -0.1140 -0.3484
   17MOL   O369 9361   0.182   2.142   4.572  0.3489 -0.1386 -0.0221
   17MOL   C370 9362   7.623   2.246   4.662 -0.1481 -0.3392 -0.1991
   17MOL   C371 9363   0.050   2.385   4.614  0.8182  0.0625 -0.3617
   17MOL   C372 9364   7.605   2.497   4.695 -0.1594  0.2665 -0.1664
   17MOL   O373 9365   0.032   2.619   4.642  0.5782 -0.0719 -1.0400
   17MOL   C374 9366   0.013   2.478   4.838 -0.0951 -0.4282 -0.6596
   17MOL   C375 9367   7.581   2.589   4.929  0.1718 -0.5614  0.5616
   17MOL   C376 9368   7.590   2.342   4.899  0.6952 -0.5566  0.3950
   17MOL   C377 9369   0.024   2.228   4.809  0.2579 -0.3590  0.2360
   17MOL   H378 9370   0.000   2.204   4.389  1.5631 -1.4599 -1.6860
   17MOL   H379 9371   0.030   2.037   4.378  1.2465  0.2015  0.5533
   17MOL   H380 9372   0.030   2.036   4.654  2.1211 -1.0700 -1.1904
   17MOL   H381 9373   0.200   2.223   4.528  0.9381  1.5726  3.1706
   17MOL   H382 9374   7.515   2.231   4.662 -0.4168  1.5136 -0.6190
   17MOL   H383 9375   0.157   2.394   4.632  0.4864  1.5781  0.9863
   17MOL   H384 9376   0.018   2.398   4.510  1.1689 -1.3712 -0.6607
   17MOL   H385 9377   7.497   2.501   4.682 -0.3962 -1.9781  0.8321
   17MOL   H386 9378   0.119   2.598   4.611  1.0719 -0.3769  0.5498
   17MOL   H387 9379   0.121   2.485   4.850 -0.5098  0.9804  3.0564
   17MOL   H388 9380   0.025   2.607   5.008 -0.7331  0.1590  1.2493
   17MOL   H389 9381   7.561   2.679   4.871  1.3177 -0.9849 -0.5196
   17MOL   H390 9382   7.481   2.337   4.903  0.6350 -0.3190 -0.6783
   17MOL   H391 9383   0.002   2.335   4.999 -0.5429 -0.2529  0.9430
   17MOL   H392 9384   7.606   2.134   4.837 -1.3381  0.5206  0.5715
   17MOL   H393 9385   0.129   2.235   4.836  0.5455  0.8049 -1.1404
   17MOL   O394 9386   7.447   2.561   4.982 -0.2398 -0.4395  0.4851
   17MOL   C395 9387   7.426   2.601   5.113  0.2373  0.7126 -0.1179
   17MOL   C396 9388   7.283   2.555   5.151  1.4096  0.1928 -0.2095
   17MOL   O397 9389   7.275   2.419   5.127  0.2769  0.3505 -0.1310
   17MOL   C398 9390   7.245   2.583   5.294 -0.2625 -0.2184 -0.3329
   17MOL   C399 9391   7.096   2.552   5.320 -0.6502 -0.8673  0.1159
   17MOL   C400 9392   7.057   2.568   5.469  0.4641 -0.3612 -0.6955
   17MOL   O401 9393   6.920   2.561   5.481 -0.2557 -0.3912  0.0600
   17MOL   C402 9394   7.107   2.704   5.526 -0.3124  0.1277 -1.1032
   17MOL   C403 9395   7.082   2.715   5.676 -0.0703  0.2247 -0.4067
   17MOL   C404 9396   7.257   2.739   5.490  0.3818  0.7075 -0.2067
   17MOL   C405 9397   7.287   2.723   5.343  0.5236 -0.2594 -0.1423
   17MOL   H406 9398   7.432   2.710   5.116  2.8996  0.6226 -0.4623
   17MOL   H407 9399   7.509   2.562   5.173 -0.2704  0.7122  0.5917
   17MOL   H408 9400   7.213   2.608   5.086 -0.2133 -1.0207  0.5125
   17MOL   H409 9401   7.240   2.411   5.040 -0.8650  0.2161  0.3316
   17MOL   H410 9402   7.305   2.514   5.354  1.1783  1.1210 -0.1955
   17MOL   H411 9403   7.039   2.620   5.257  0.1471  1.1495  1.4828
   17MOL   H412 9404   7.083   2.445   5.304 -0.5547 -0.3232 -4.0097
   17MOL   H413 9405   7.095   2.481   5.522  0.2098  0.5575  1.0187
   17MOL   H414 9406   6.893   2.480   5.439 -0.3475 -0.0048 -0.6298
   17MOL   H415 9407   7.053   2.783   5.473 -0.8966 -0.9722 -2.1751
   17MOL   H416 9408   6.978   2.699   5.707  0.3550  0.2126  1.0394
   17MOL   H417 9409   7.145   2.643   5.728 -0.5265  0.2757  0.2281
   17MOL   H418 9410   7.322   2.683   5.557 -2.1354 -2.0528  0.0234
   17MOL   H419 9411   7.277   2.839   5.529  0.4975  0.5679  0.0903
   17MOL   H420 9412   7.395   2.730   5.330  0.4144  1.4445 -0.2452
   17MOL   H421 9413   7.257   2.805   5.278  1.4248  1.0216  1.0217
   17MOL   O422 9414   7.138   2.832   5.735  0.2102  0.2951 -0.0920
   17MOL   C423 9415   7.046   2.935   5.731  0.0123  0.1486 -1.0380
   17MOL   C424 9416   7.135   3.066   5.747 -0.1038  0.2704 -0.2172
   17MOL   O425 9417   7.175   3.101   5.612  0.4083 -0.3795  0.0277
   17MOL   C426 9418   7.056   3.185   5.808 -0.5870 -0.3282 -0.9906
   17MOL   C427 9419   7.049   3.172   5.956 -0.4221 -0.6504  0.1929
   17MOL   C428 9420   6.998   3.303   6.016  0.3397  0.3321 -0.1744
   17MOL   O429 9421   6.996   3.305   6.158 -0.3101  0.0470 -0.3190
   17MOL   C430 9422   6.857   3.341   5.965 -0.6268  0.0591  0.2330
   17MOL   C431 9423   6.805   3.478   6.019  0.0404 -0.3230 -0.1071
   17MOL   C432 9424   6.862   3.346   5.811 -0.6951 -0.1482  0.4894
   17MOL   C433 9425   6.922   3.225   5.745 -0.0487 -0.0606  0.8037
   17MOL   H434 9426   6.980   2.935   5.817 -1.4338 -2.4740 -2.0894
   17MOL   H435 9427   6.982   2.932   5.643 -1.7083 -1.1626  0.2474
   17MOL   H436 9428   7.217   3.047   5.815 -0.8147 -0.4343  0.4511
   17MOL   H437 9429   7.201   3.022   5.567  1.1529 -0.5762  0.7847
   17MOL   H438 9430   7.128   3.267   5.804  0.2676 -1.0580 -0.9737
   17MOL   H439 9431   6.979   3.093   5.981 -0.8358 -0.1364  0.6803
   17MOL   H440 9432   7.144   3.158   6.008  0.4475  0.0739 -1.1860
   17MOL   H441 9433   7.064   3.383   5.985  0.5931 -0.0999 -0.7480
   17MOL   H442 9434   6.920   3.353   6.185 -0.6006  0.5971 -2.0242
   17MOL   H443 9435   6.788   3.258   5.984 -0.8587  0.1231 -0.3276
   17MOL   H444 9436   6.866   3.556   5.974  0.2453  1.0844  2.5080
   17MOL   H445 9437   6.705   3.486   5.977 -1.0303  0.5282  2.4429
   17MOL   H446 9438   6.920   3.430   5.775  0.1642 -1.0187 -0.1561
   17MOL   H447 9439   6.760   3.356   5.773 -0.0273 -1.5448 -1.7340
   17MOL   H448 9440   6.951   3.242   5.641  0.4043  0.5499  1.0231
   17MOL   H449 9441   6.846   3.148   5.737 -0.8112  0.7710 -0.2444
   17MOL   O450 9442   6.797   3.472   6.162 -0.1067 -0.0972 -0.0318
   17MOL   C451 9443   6.804   3.599   6.218 -0.3513  0.4113 -0.4715
   17MOL   C452 9444   6.825   3.574   6.369 -0.2963 -0.4369  0.9970
   17MOL   O453 9445   6.966   3.571   6.390  1.0877 -0.0619  0.1190
   17MOL   C454 9446   6.759   3.684   6.447  0.5628 -0.1357  0.5284
   17MOL   C455 9447   6.817   3.825   6.407  0.1225 -0.8137  0.4061
   17MOL   C456 9448   6.751   3.948   6.484 -1.1117 -0.0026  0.7530
   17MOL   O457 9449   6.813   4.071   6.444 -0.3797  0.1076 -0.0954
   17MOL   C458 9450   6.740   3.926   6.639  0.1240  0.4555  0.4122
   17MOL   C459 9451   6.646   4.035   6.691 -0.0276  0.5242 -0.2440
   17MOL   C460 9452   6.690   3.783   6.668 -0.6859  0.0162 -0.1951
   17MOL   C461 9453   6.778   3.677   6.602 -0.7718 -0.4238 -0.8579
   17MOL   H462 9454   6.706   3.648   6.214  0.0360  1.2631  0.1969
   17MOL   H463 9455   6.872   3.670   6.172  0.7752  0.2613  0.9325
   17MOL   H464 9456   6.781   3.477   6.393  0.7969 -1.0868  0.4363
   17MOL   H465 9457   6.986   3.491   6.437  3.1528 -0.8840 -2.1036
   17MOL   H466 9458   6.652   3.684   6.426 -0.4228 -2.5574  4.7694
   17MOL   H467 9459   6.923   3.829   6.432  0.7518  1.7848 -2.2145
   17MOL   H468 9460   6.811   3.838   6.298 -0.2101  3.0465  0.8094
   17MOL   H469 9461   6.650   3.947   6.443 -0.6719 -1.0301 -0.3312
   17MOL   H470 9462   6.905   4.056   6.455 -0.6613 -1.4194  0.4191
   17MOL   H471 9463   6.842   3.944   6.673  0.2478  0.1806  0.1817
   17MOL   H472 9464   6.626   4.023   6.798 -2.2061  1.9801 -0.4470
   17MOL   H473 9465   6.694   4.128   6.661 -0.1861  0.2608 -1.3552
   17MOL   H474 9466   6.585   3.773   6.638 -1.0877  1.9627  0.4967
   17MOL   H475 9467   6.682   3.772   6.776  0.6316 -0.8222 -0.1792
   17MOL   H476 9468   6.747   3.581   6.643 -0.4663 -0.2880 -0.3015
   17MOL   H477 9469   6.882   3.681   6.636 -0.5983 -0.6188 -1.3730
   17MOL   O478 9470   6.514   4.028   6.635  0.1115 -0.1368  0.4916
   17MOL   C479 9471   6.454   4.161   6.635 -0.1948  0.8315  0.0216
   17MOL   C480 9472   6.334   4.162   6.535 -0.6177  0.0454  0.2096
   17MOL   O481 9473   6.238   4.073   6.581 -0.1582  0.2994 -0.1579
   17MOL   C482 9474   6.280   4.298   6.503  1.2255 -0.5181 -0.6727
   17MOL   C483 9475   6.200   4.366   6.616  0.2551  0.0316 -0.1930
   17MOL   C484 9476   6.135   4.505   6.585 -0.2870  0.1346  0.7864
   17MOL   O485 9477   6.069   4.552   6.706 -0.3764  0.3758 -0.6881
   17MOL   C486 9478   6.057   4.505   6.446 -0.5065  0.0860 -0.1928
   17MOL   C487 9479   6.002   4.642   6.405  0.1856  0.2195  0.5462
   17MOL   C488 9480   6.130   4.420   6.337 -0.3507  0.6120 -0.1052
   17MOL   C489 9481   6.180   4.283   6.381  0.7717  0.0630  0.3119
   17MOL   H490 9482   6.516   4.240   6.592 -2.9720  1.7145 -2.5254
   17MOL   H491 9483   6.434   4.195   6.737  0.2768 -0.5682  0.5997
   17MOL   H492 9484   6.375   4.134   6.439 -2.2198 -0.7815 -0.2508
   17MOL   H493 9485   6.284   4.025   6.648  0.0402 -0.2113 -0.6627
   17MOL   H494 9486   6.360   4.361   6.466  0.3851 -0.9045 -3.2689
   17MOL   H495 9487   6.125   4.289   6.637  0.7540 -0.7412 -1.2072
   17MOL   H496 9488   6.267   4.374   6.701  1.0005 -1.5876 -0.6019
   17MOL   H497 9489   6.223   4.566   6.565  0.8712 -1.6982  0.0805
   17MOL   H498 9490   6.011   4.619   6.672 -2.4664 -0.8449  0.3394
   17MOL   H499 9491   5.964   4.449   6.462 -0.3554  0.3580  1.7616
   17MOL   H500 9492   6.082   4.706   6.368  0.0034  0.7902  1.1369
   17MOL   H501 9493   5.939   4.635   6.317 -1.2387 -1.9348  1.6662
   17MOL   H502 9494   6.209   4.475   6.287 -0.4587 -0.4437 -1.4673
   17MOL   H503 9495   6.065   4.403   6.251 -1.5696 -1.2591  1.1508
   17MOL   H504 9496   6.234   4.247   6.294 -0.5926  1.5837 -1.1997
   17MOL   H505 9497   6.095   4.215   6.388 -0.0364  0.8742 -1.3025
   17MOL   O506 9498   5.931   4.709   6.513  0.6696  0.0254  0.3088
   17MOL   C507 9499   5.861   4.827   6.478  0.2384  0.5121  0.1433
   17MOL   C508 9500   5.723   4.787   6.418  0.5503  0.5687  0.0282
   17MOL   O509 9501   5.671   4.675   6.490  0.8578 -0.1449  0.2779
   17MOL   C510 9502   5.615   4.888   6.412  0.3640 -0.7119 -0.1916
   17MOL   C511 9503   5.659   5.019   6.340 -0.1048  0.2454 -0.6431
   17MOL   C512 9504   5.543   5.116   6.330 -0.4738 -0.0408 -0.1579
   17MOL   O513 9505   5.601   5.240   6.276 -0.3418 -0.1514  0.3967
   17MOL   C514 9506   5.475   5.145   6.466  0.0030  0.8227 -0.0537
   17MOL   C515 9507   5.354   5.252   6.463  0.1667 -0.4700  0.4530
   17MOL   C516 9508   5.429   5.021   6.538 -0.0253  0.6080 -0.6224
   17MOL   C517 9509   5.544   4.919   6.554 -0.1430  0.4251 -0.5106
   17MOL   H518 9510   5.912   4.882   6.400  1.3788  0.7394  1.0358
   17MOL   H519 9511   5.846   4.884   6.570  2.0831 -1.4453  1.7303
   17MOL   H520 9512   5.752   4.754   6.319  0.9644 -0.1177  0.3726
   17MOL   H521 9513   5.732   4.624   6.540 -0.3447 -1.9092 -0.0012
   17MOL   H522 9514   5.539   4.840   6.349 -0.8303  0.2406  0.5084
   17MOL   H523 9515   5.733   5.068   6.403 -1.4154  0.2056  0.9470
   17MOL   H524 9516   5.713   5.014   6.245 -0.9304  1.9612 -1.2258
   17MOL   H525 9517   5.471   5.069   6.263  0.3062 -0.9597 -0.3596
   17MOL   H526 9518   5.542   5.300   6.234 -2.0024 -0.0195  2.8359
   17MOL   H527 9519   5.554   5.189   6.526  0.4658 -0.5487  0.3572
   17MOL   H528 9520   5.370   5.346   6.411  1.9645 -1.5628 -1.0244
   17MOL   H529 9521   5.271   5.202   6.413  0.7060  0.9706 -1.9533
   17MOL   H530 9522   5.347   4.977   6.480  1.5078 -2.1884 -0.7626
   17MOL   H531 9523   5.382   5.043   6.633 -0.2081  0.8554 -0.7709
   17MOL   H532 9524   5.497   4.833   6.602  0.2298  0.5463  0.0852
   17MOL   H533 9525   5.613   4.960   6.628 -1.4199  0.9379  0.4398
   17MOL   O534 9526   5.320   5.289   6.599 -0.1894  0.0386 -0.4313
   17MOL   C535 9527   5.196   5.353   6.615 -0.4465  0.3154  0.0537
   17MOL   C536 9528   5.195   5.499   6.576  0.2886 -0.1678  0.3666
   17MOL   O537 9529   5.138   5.510   6.452  0.0626 -0.3268 -0.7110
   17MOL   C538 9530   5.123   5.583   6.679 -0.2274 -0.3631 -0.9390
   17MOL   C539 9531   4.972   5.557   6.687  0.0013 -0.4253  0.4364
   17MOL   C540 9532   4.905   5.631   6.809 -0.3572  0.1476  0.6637
   17MOL   O541 9533   4.772   5.589   6.796  0.0071 -0.1729  0.0269
   17MOL   C542 9534   4.930   5.783   6.796  0.0243  0.5863 -0.2361
   17MOL   C543 9535   4.887   5.864   6.919  0.3281 -0.7820  0.3452
   17MOL   C544 9536   5.082   5.815   6.775 -0.5210  0.2417  0.9484
   17MOL   C545 9537   5.152   5.734   6.667  0.6087 -0.5699 -0.3041
   17MOL   H546 9538   5.155   5.344   6.716 -1.6171  1.1829 -0.3317
   17MOL   H547 9539   5.123   5.307   6.549  1.4749  0.7579 -2.4692
   17MOL   H548 9540   5.299   5.529   6.574  0.5361 -1.0087  0.3358
   17MOL   H549 9541   5.206   5.511   6.386  0.0925 -0.5277 -0.6830
   17MOL   H550 9542   5.168   5.548   6.772 -0.4204 -1.9372 -1.4248
   17MOL   H551 9543   4.925   5.604   6.600 -0.3305  1.0181  1.3808
   17MOL   H552 9544   4.947   5.451   6.691  0.2082 -0.5184 -0.5587
   17MOL   H553 9545   4.946   5.604   6.906 -1.1079  1.1771  1.2702
   17MOL   H554 9546   4.773   5.496   6.813 -2.3140 -0.0342  1.0551
   17MOL   H555 9547   4.862   5.817   6.718 -0.1183 -1.1258 -0.8869
   17MOL   H556 9548   4.954   5.868   7.004  1.7917  0.0659 -0.8296
   17MOL   H557 9549   4.888   5.971   6.899  2.2729 -1.0853 -1.3780
   17MOL   H558 9550   5.142   5.804   6.866  3.0350  1.3223 -1.1485
   17MOL   H559 9551   5.099   5.917   6.739  0.8691 -0.5400 -0.6902
   17MOL   H560 9552   5.260   5.736   6.681  0.5744 -1.2005  0.0545
   17MOL   H561 9553   5.119   5.770   6.570 -1.0401  0.1544  0.5069
   17MOL   H562 9554   4.790   5.827   6.951  0.1749 -1.1794 -0.5568
   18MOL     O1 9555   0.146   1.695   2.914 -0.0909 -0.3464  0.1709
   18MOL     C2 9556   0.145   1.584   2.834  0.1845  0.1119  0.5776
   18MOL     C3 9557   0.286   1.512   2.859  0.4796  0.6326  0.7721
   18MOL     O4 9558   0.298   1.511   2.999 -0.1671 -0.0251  0.1582
   18MOL     C5 9559   0.286   1.371   2.785 -0.1381 -0.1633 -1.3291
   18MOL     C6 9560   0.406   1.269   2.815 -0.7466 -0.0816 -0.4773
   18MOL     C7 9561   0.377   1.132   2.754 -0.3632  0.5051 -0.4274
   18MOL     O8 9562   0.488   1.052   2.782  0.0599 -0.0106 -0.1168
   18MOL     C9 9563   0.364   1.136   2.598  1.1194 -0.7706  1.2344
   18MOL    C10 9564   0.307   1.005   2.535  0.2458 -0.2268 -0.2248
   18MOL    C11 9565   0.255   1.246   2.564  0.0855 -0.6176  0.5123
   18MOL    C12 9566   0.275   1.382   2.634  0.0631 -0.1725  0.1865
   18MOL    H13 9567   0.145   1.602   2.727  0.9925 -0.8906  0.3959
   18MOL    H14 9568   0.064   1.514   2.855  2.2339 -3.0618 -1.6770
   18MOL    H15 9569   0.369   1.577   2.831  1.8373  0.0643  3.2766
   18MOL    H16 9570   0.385   1.479   3.021  1.3182  1.3220 -3.3200
   18MOL    H17 9571   0.196   1.322   2.820 -0.0428 -0.4988 -1.5437
   18MOL    H18 9572   0.500   1.304   2.773  0.8213 -2.9516  0.4491
   18MOL    H19 9573   0.423   1.274   2.923 -1.0075  0.0388 -0.4425
   18MOL    H20 9574   0.288   1.081   2.789 -1.5256  0.5457 -3.1710
   18MOL    H21 9575   0.470   0.960   2.774 -0.1579 -0.0557  0.8584
   18MOL    H22 9576   0.456   1.163   2.548  0.1679  0.1031 -0.0736
   18MOL    H23 9577   0.355   0.917   2.578  0.1594 -0.0470  0.2379
   18MOL    H24 9578   0.203   0.979   2.557  0.4943  1.1172  2.7030
   18MOL    H25 9579   0.161   1.203   2.599  1.0445 -1.2921  2.3668
   18MOL    H26 9580   0.242   1.261   2.457  1.5423 -1.9168  0.1253
   18MOL    H27 9581   0.197   1.449   2.599  2.3655  2.5286  0.0813
   18MOL    H28 9582   0.372   1.424   2.607  0.3717  0.0965  1.6710
   18MOL    H29 9583   0.208   1.673   2.983 -0.9967  1.5755  1.6349
   18MOL    O30 9584   0.333   1.031   2.401  0.1217 -0.1016 -0.0677
   18MOL    C31 9585   0.345   0.916   2.322 -0.0151  0.1713  0.2335
   18MOL    C32 9586   0.391   0.958   2.180 -0.3514  0.5898 -0.1165
   18MOL    O33 9587   0.280   1.006   2.103 -0.8594  0.4181 -0.3864
   18MOL    C34 9588   0.509   1.061   2.170  0.4473 -0.0414 -0.3999
   18MOL    C35 9589   0.522   1.118   2.021 -0.0115  0.0733 -0.4696
   18MOL    C36 9590   0.647   1.205   1.997 -0.2368  0.5634 -0.2847
   18MOL    O37 9591   0.655   1.224   1.861  0.5285  0.0080 -0.6894
   18MOL    C38 9592   0.785   1.154   2.045 -0.0297 -0.5563 -0.4385
   18MOL    C39 9593   0.903   1.251   2.047 -0.1809  0.5801  0.1157
   18MOL    C40 9594   0.764   1.115   2.195 -0.5265 -0.0140  0.6344
   18MOL    C41 9595   0.648   1.011   2.217 -0.1155 -0.5127  0.6288
   18MOL    H42 9596   0.241   0.881   2.322 -0.2107  0.7503  0.2044
   18MOL    H43 9597   0.403   0.835   2.365 -1.3711 -0.9662 -0.0329
   18MOL    H44 9598   0.409   0.869   2.119 -1.3113  1.7260 -2.1227
   18MOL    H45 9599   0.256   1.094   2.126  1.5028  0.9939  0.0847
   18MOL    H46 9600   0.482   1.143   2.236 -2.5968 -0.1840 -1.4191
   18MOL    H47 9601   0.528   1.032   1.955 -0.6950 -0.1685 -0.2251
   18MOL    H48 9602   0.428   1.168   1.995  0.3274  2.3382  2.4684
   18MOL    H49 9603   0.645   1.304   2.043  0.2988  0.2908  0.3297
   18MOL    H50 9604   0.662   1.146   1.810  0.1363  0.5515 -1.5860
   18MOL    H51 9605   0.801   1.061   1.989 -0.9312 -0.6255 -0.5866
   18MOL    H52 9606   0.924   1.311   1.958 -1.0382 -0.7440 -1.0054
   18MOL    H53 9607   0.890   1.329   2.122  1.6231  1.6397 -0.6453
   18MOL    H54 9608   0.745   1.209   2.247 -3.0332  0.3379 -0.8339
   18MOL    H55 9609   0.855   1.080   2.243  0.3422  0.7279 -0.4378
   18MOL    H56 9610   0.648   0.964   2.315  2.0065 -0.7969  0.5263
   18MOL    H57 9611   0.683   0.937   2.145  1.0705 -0.3252  1.0025
   18MOL    O58 9612   1.030   1.196   2.080  0.1251 -0.3140 -0.4567
   18MOL    C59 9613   1.097   1.132   1.975  0.0608  0.0186 -0.0889
   18MOL    C60 9614   1.226   1.085   2.032  0.4979 -0.3349  0.0490
   18MOL    O61 9615   1.303   1.197   2.064 -0.2535 -0.1610 -0.4501
   18MOL    C62 9616   1.218   0.997   2.163 -0.0385 -0.7899 -1.4176
   18MOL    C63 9617   1.124   0.879   2.140  0.4625 -0.0560 -0.2670
   18MOL    C64 9618   1.134   0.776   2.254 -0.1269 -0.0273  0.0941
   18MOL    O65 9619   1.040   0.676   2.221  0.0222 -0.0246 -0.2247
   18MOL    C66 9620   1.119   0.836   2.397  0.5292 -0.5547  1.3885
   18MOL    C67 9621   1.149   0.724   2.498 -0.5200  0.5301 -0.6129
   18MOL    C68 9622   1.220   0.949   2.407 -0.2867 -0.5719  0.1214
   18MOL    C69 9623   1.192   1.056   2.303 -0.5954  0.2490 -0.0917
   18MOL    H70 9624   1.110   1.203   1.893 -1.0129  1.6269  1.1010
   18MOL    H71 9625   1.042   1.051   1.926  2.4600 -0.6092 -1.8714
   18MOL    H72 9626   1.279   1.032   1.952  2.4237  1.4492  0.0941
   18MOL    H73 9627   1.240   1.260   2.095 -0.6801 -0.4067 -0.8251
   18MOL    H74 9628   1.318   0.955   2.169 -0.3163 -1.3015 -0.1287
   18MOL    H75 9629   1.022   0.914   2.133  1.2313  2.4958  0.5769
   18MOL    H76 9630   1.151   0.824   2.050  1.2707 -3.3328  1.8535
   18MOL    H77 9631   1.230   0.724   2.248  0.1555  0.5184 -0.1742
   18MOL    H78 9632   1.067   0.626   2.146  3.7154  3.2711 -1.2352
   18MOL    H79 9633   1.020   0.880   2.414  0.2418  0.5433 -2.6698
   18MOL    H80 9634   1.074   0.645   2.500 -0.3922  0.3713 -1.8210
   18MOL    H81 9635   1.240   0.668   2.477 -1.6987 -1.5263 -0.2716
   18MOL    H82 9636   1.323   0.913   2.400  0.7248  1.9951  1.1002
   18MOL    H83 9637   1.205   0.995   2.505  0.2328  0.5632 -0.3295
   18MOL    H84 9638   1.240   1.154   2.302  0.7629 -0.4035 -0.1945
   18MOL    H85 9639   1.089   1.088   2.315 -1.1055 -2.0535  2.1484
   18MOL    O86 9640   1.154   0.798   2.617  0.4411 -0.1377  0.1684
   18MOL    C87 9641   1.190   0.717   2.726 -0.6257 -1.1776  0.1819
   18MOL    C88 9642   1.182   0.817   2.847 -0.9744  0.1291  0.9704
   18MOL    O89 9643   1.180   0.751   2.971 -0.5286  0.0336 -0.1336
   18MOL    C90 9644   1.285   0.934   2.848  0.9343  0.2892  0.6518
   18MOL    C91 9645   1.428   0.885   2.865  0.4543 -0.1698  0.2717
   18MOL    C92 9646   1.523   1.001   2.842 -0.9868 -0.4858 -0.4066
   18MOL    O93 9647   1.646   0.952   2.879 -0.5503  0.3795 -0.1298
   18MOL    C94 9648   1.496   1.126   2.933 -0.0227 -0.1445 -0.5780
   18MOL    C95 9649   1.597   1.240   2.895  0.0344  0.2070 -0.3441
   18MOL    C96 9650   1.354   1.169   2.916 -0.4593 -0.6443  0.2424
   18MOL    C97 9651   1.252   1.059   2.939 -0.3530  0.6074  0.3368
   18MOL    H98 9652   1.285   0.664   2.715 -0.1223 -0.2109 -0.2056
   18MOL    H99 9653   1.112   0.641   2.737 -1.2569 -0.6793 -0.8024
   18MOL   H100 9654   1.085   0.867   2.839 -0.1483  1.4503 -0.9571
   18MOL   H101 9655   1.090   0.733   2.992 -0.4637 -0.2699 -0.1190
   18MOL   H102 9656   1.279   0.989   2.754  3.3403 -1.4997 -0.6049
   18MOL   H103 9657   1.434   0.846   2.967  0.6480 -0.4792  0.1406
   18MOL   H104 9658   1.446   0.809   2.789  0.8190 -0.1328  0.3205
   18MOL   H105 9659   1.525   1.039   2.740 -0.3535 -0.4631 -0.3901
   18MOL   H106 9660   1.720   1.001   2.846 -0.0455 -0.5982 -0.4904
   18MOL   H107 9661   1.518   1.103   3.037 -1.7019  1.2615  0.1179
   18MOL   H108 9662   1.593   1.328   2.960 -1.8289 -2.2801  3.1077
   18MOL   H109 9663   1.702   1.217   2.911 -0.0121 -0.9301 -1.6119
   18MOL   H110 9664   1.351   1.214   2.817 -0.2575 -2.1559 -0.4595
   18MOL   H111 9665   1.343   1.245   2.994  0.4509  0.9379 -1.1496
   18MOL   H112 9666   1.151   1.093   2.919 -0.6687 -0.0591  0.7851
   18MOL   H113 9667   1.259   1.022   3.042  2.8763  1.4777  0.4809
   18MOL   O114 9668   1.580   1.270   2.764  1.0500 -0.0468 -0.5642
   18MOL   C115 9669   1.660   1.376   2.707 -0.1997  0.0100 -0.4510
   18MOL   C116 9670   1.613   1.386   2.562 -0.4844 -0.2537 -0.1217
   18MOL   O117 9671   1.649   1.509   2.509  0.3974 -0.1017 -0.1577
   18MOL   C118 9672   1.655   1.272   2.461 -0.7174  0.1763  0.4428
   18MOL   C119 9673   1.603   1.290   2.312 -0.6691  0.2913 -0.7293
   18MOL   C120 9674   1.631   1.174   2.220 -0.4569 -0.7294  0.7575
   18MOL   O121 9675   1.582   1.203   2.091 -0.1129 -0.5857 -0.2683
   18MOL   C122 9676   1.587   1.036   2.277  0.2546 -0.3194 -0.7875
   18MOL   C123 9677   1.606   0.915   2.179  0.0994  0.2030  0.0955
   18MOL   C124 9678   1.649   1.016   2.419  0.1271 -0.7332 -1.0682
   18MOL   C125 9679   1.619   1.135   2.511 -0.3501  0.2239 -0.3901
   18MOL   H126 9680   1.766   1.355   2.719  0.2581  1.9734 -0.7837
   18MOL   H127 9681   1.632   1.467   2.760 -0.1588  0.1023 -0.5873
   18MOL   H128 9682   1.504   1.392   2.563 -0.4836 -0.3506  0.7134
   18MOL   H129 9683   1.741   1.501   2.488  0.6268 -2.8490  1.7195
   18MOL   H130 9684   1.764   1.270   2.460 -0.7037  0.8674  0.1195
   18MOL   H131 9685   1.499   1.321   2.315 -0.9553 -0.5203 -2.0956
   18MOL   H132 9686   1.651   1.380   2.274  0.5562 -0.4069 -0.8673
   18MOL   H133 9687   1.738   1.178   2.199 -0.5907  3.3521  0.4186
   18MOL   H134 9688   1.492   1.173   2.094  0.6180 -2.7459  2.3539
   18MOL   H135 9689   1.482   1.051   2.303  0.5876  0.5092  0.1327
   18MOL   H136 9690   1.562   0.940   2.083 -0.2802  3.2528  0.9923
   18MOL   H137 9691   1.713   0.912   2.157  0.5357  0.0565  2.1222
   18MOL   H138 9692   1.757   1.015   2.407  0.3829  0.8268  0.7066
   18MOL   H139 9693   1.633   0.916   2.460 -0.4250 -0.9716 -1.8591
   18MOL   H140 9694   1.670   1.114   2.605 -1.7800  0.4839  0.4547
   18MOL   H141 9695   1.516   1.126   2.544 -0.4302 -1.2141 -1.0080
   18MOL   O142 9696   1.563   0.797   2.238 -0.7990  0.1199 -0.8851
   18MOL   C143 9697   1.645   0.679   2.197  0.6430 -0.0518  0.1211
   18MOL   C144 9698   1.568   0.545   2.216 -0.0106  0.5800  0.6172
   18MOL   O145 9699   1.654   0.441   2.165 -0.6109 -0.6040  0.5614
   18MOL   C146 9700   1.534   0.509   2.363 -0.2736  0.5029 -0.2605
   18MOL   C147 9701   1.657   0.501   2.454  0.3427  0.0095 -1.3818
   18MOL   C148 9702   1.605   0.481   2.593 -0.5608  0.1356 -0.4933
   18MOL   O149 9703   1.717   0.473   2.685  0.5253 -0.2448 -0.0017
   18MOL   C150 9704   1.501   0.367   2.619 -0.0259 -0.2867  0.0324
   18MOL   C151 9705   1.439   0.390   2.760  0.0805 -0.4903  1.2614
   18MOL   C152 9706   1.390   0.366   2.511 -0.1421 -0.5057  0.1802
   18MOL   C153 9707   1.443   0.385   2.367 -0.5008  0.0365 -0.5678
   18MOL   H154 9708   1.739   0.680   2.251  0.2538  3.7365  0.9025
   18MOL   H155 9709   1.678   0.685   2.093  0.2824 -1.9811 -0.1149
   18MOL   H156 9710   1.475   0.554   2.161 -0.6260  1.9984  1.8843
   18MOL   H157 9711   1.732   0.437   2.219 -0.3913 -0.5904  0.2510
   18MOL   H158 9712   1.467   0.590   2.393  0.2349  0.5003  0.9006
   18MOL   H159 9713   1.710   0.412   2.420  0.5440  0.2187 -1.6233
   18MOL   H160 9714   1.729   0.583   2.453  0.5495 -0.0213  3.0178
   18MOL   H161 9715   1.546   0.570   2.614 -2.3815 -1.4272  1.3607
   18MOL   H162 9716   1.689   0.520   2.763 -0.3458 -1.2209  0.2773
   18MOL   H163 9717   1.546   0.268   2.627  1.7548  0.2867 -2.4145
   18MOL   H164 9718   1.515   0.424   2.829  1.2329  0.8302 -0.5970
   18MOL   H165 9719   1.359   0.464   2.761  0.9545  0.4621  1.6948
   18MOL   H166 9720   1.317   0.445   2.525  1.1092  1.4001 -3.4758
   18MOL   H167 9721   1.334   0.273   2.522  0.3499 -0.6300  1.7675
   18MOL   H168 9722   1.362   0.386   2.294  0.7363  0.0809 -1.9655
   18MOL   H169 9723   1.511   0.303   2.342 -1.0828 -0.1022 -1.7155
   18MOL   O170 9724   1.374   0.270   2.803 -0.1833  0.2255 -0.0621
   18MOL   C171 9725   1.326   0.289   2.938 -0.8216 -0.3581 -0.0096
   18MOL   C172 9726   1.230   0.189   2.997  0.0018 -0.3555  0.1893
   18MOL   O173 9727   1.204   0.224   3.129  0.0053  0.2967 -0.2734
   18MOL   C174 9728   1.089   0.192   2.938  0.6662  0.0603  0.0817
   18MOL   C175 9729   0.999   0.076   2.977 -0.2001  0.5031  0.0560
   18MOL   C176 9730   0.859   0.091   2.921 -0.5346 -0.2239 -0.2090
   18MOL   O177 9731   0.789   7.609   2.960  0.1567 -0.0233 -0.3359
   18MOL   C178 9732   0.867   0.094   2.768 -0.0958  0.3763 -0.2192
   18MOL   C179 9733   0.727   0.108   2.698  0.5338  0.1329  0.4644
   18MOL   C180 9734   0.960   0.203   2.724 -0.1313 -0.4392  0.5364
   18MOL   C181 9735   1.099   0.187   2.780 -0.9961  0.1054  0.6179
   18MOL   H182 9736   1.268   0.381   2.950 -2.0011 -0.8991 -1.3430
   18MOL   H183 9737   1.418   0.294   2.995  0.0743  0.0933 -1.4775
   18MOL   H184 9738   1.279   0.091   2.999  0.8276  0.0866  2.1743
   18MOL   H185 9739   1.126   0.278   3.126 -2.7224 -3.2042  2.5220
   18MOL   H186 9740   1.038   0.286   2.957 -1.2661 -0.7886 -0.7184
   18MOL   H187 9741   1.045   7.614   2.938 -1.2352 -0.2673  0.6153
   18MOL   H188 9742   1.002   0.064   3.085 -1.2579 -1.0801 -0.0630
   18MOL   H189 9743   0.812   0.182   2.960 -1.3180  0.0613 -1.7732
   18MOL   H190 9744   0.849   7.549   3.001  1.6530  0.7977 -1.2569
   18MOL   H191 9745   0.905   7.625   2.740 -1.4136  0.3778 -2.1163
   18MOL   H192 9746   0.754   0.096   2.594  0.0605 -0.1166  0.3705
   18MOL   H193 9747   0.657   0.027   2.718 -0.6028  0.8073 -0.7554
   18MOL   H194 9748   0.912   0.293   2.762  0.9021 -0.0664  0.9570
   18MOL   H195 9749   0.956   0.208   2.616 -3.6146 -0.1321  0.6001
   18MOL   H196 9750   1.164   0.264   2.738 -0.3340 -0.3440  0.8004
   18MOL   H197 9751   1.123   0.083   2.758 -0.4101  0.4064 -0.2259
   18MOL   O198 9752   0.669   0.240   2.730 -0.2751  0.3672  0.5046
   18MOL   C199 9753   0.558   0.262   2.655  0.9927  0.1717  0.0601
   18MOL   C200 9754   0.581   0.367   2.542  0.4023 -0.7505 -0.2644
   18MOL   O201 9755   0.458   0.405   2.479  0.1424  0.6515 -0.0191
   18MOL   C202 9756   0.644   0.495   2.594 -0.9039 -0.4572  0.8364
   18MOL   C203 9757   0.546   0.580   2.683  0.2704  0.4757  0.2007
   18MOL   C204 9758   0.626   0.693   2.753  0.3534 -0.1647 -0.4907
   18MOL   O205 9759   0.524   0.756   2.831 -0.3001  0.3503  0.1451
   18MOL   C206 9760   0.688   0.781   2.645 -0.2936 -0.5681 -0.2377
   18MOL   C207 9761   0.775   0.894   2.706 -0.6219  0.1113 -0.4594
   18MOL   C208 9762   0.779   0.706   2.548 -0.4040  0.1143 -0.3902
   18MOL   C209 9763   0.708   0.585   2.487  0.7104  0.0216 -0.4375
   18MOL   H210 9764   0.490   0.291   2.735  0.6079  0.9914 -0.5508
   18MOL   H211 9765   0.508   0.169   2.626  0.3275  0.6878 -0.4959
   18MOL   H212 9766   0.644   0.325   2.464 -0.6397  1.4290 -2.3696
   18MOL   H213 9767   0.425   0.328   2.436 -0.1250 -0.3394  1.9185
   18MOL   H214 9768   0.730   0.467   2.655  0.1033  2.8897  1.0983
   18MOL   H215 9769   0.466   0.607   2.614 -1.3790  3.3699  3.1342
   18MOL   H216 9770   0.503   0.509   2.754  0.6886  1.0652  1.0452
   18MOL   H217 9771   0.703   0.654   2.818  0.8848  1.9596  0.1965
   18MOL   H218 9772   0.484   0.686   2.879  0.7279 -0.3099  0.0452
   18MOL   H219 9773   0.605   0.822   2.588  0.5184 -0.7672 -1.5651
   18MOL   H220 9774   0.730   0.931   2.798  0.4713 -0.9127  0.4943
   18MOL   H221 9775   0.863   0.845   2.746 -0.7738 -1.0549 -1.5169
   18MOL   H222 9776   0.861   0.663   2.605 -1.9747 -2.3520  0.0849
   18MOL   H223 9777   0.818   0.774   2.472 -2.2154  2.5657  0.8247
   18MOL   H224 9778   0.779   0.533   2.423 -0.1818  1.0872 -2.3115
   18MOL   H225 9779   0.630   0.609   2.416  1.2720  0.3674 -0.9390
   18MOL   O226 9780   0.816   0.981   2.608  0.4147  0.0817 -0.6303
   18MOL   C227 9781   0.918   1.071   2.645  0.7222  0.6487  0.2492
   18MOL   C228 9782   0.889   1.195   2.551  0.0536  0.4472  0.6801
   18MOL   O229 9783   0.772   1.257   2.606  0.2714 -0.3609  0.2870
   18MOL   C230 9784   1.001   1.300   2.545 -0.3808 -0.0445 -0.1474
   18MOL   C231 9785   1.024   1.399   2.659 -0.8567 -0.1763  0.3181
   18MOL   C232 9786   1.130   1.494   2.626  0.0459 -0.7043  0.6493
   18MOL   O233 9787   1.130   1.593   2.726 -0.5272  0.6226 -0.9757
   18MOL   C234 9788   1.110   1.567   2.490  0.0921 -0.5068 -0.3419
   18MOL   C235 9789   1.216   1.677   2.464  0.4661  0.2081  0.4094
   18MOL   C236 9790   1.112   1.456   2.388 -0.2819  1.1641  0.5821
   18MOL   C237 9791   0.992   1.366   2.412  0.3051  0.2260  0.0966
   18MOL   H238 9792   1.011   1.020   2.623 -0.4571 -1.2686 -0.3568
   18MOL   H239 9793   0.900   1.104   2.747 -1.7854  1.7202 -0.4695
   18MOL   H240 9794   0.867   1.154   2.453 -1.8052  0.2376  1.1768
   18MOL   H241 9795   0.708   1.189   2.623 -0.9106  0.3811 -1.0974
   18MOL   H242 9796   1.087   1.233   2.546  1.0518  1.7716  0.6532
   18MOL   H243 9797   0.929   1.448   2.680  0.1081  2.8451 -2.1328
   18MOL   H244 9798   1.042   1.348   2.754  1.3308 -1.1248 -0.5556
   18MOL   H245 9799   1.225   1.440   2.619 -0.1217 -0.7134 -2.2368
   18MOL   H246 9800   1.222   1.617   2.731  0.8711 -4.3688 -0.3679
   18MOL   H247 9801   1.006   1.600   2.489  0.3979  0.5348  0.7817
   18MOL   H248 9802   1.225   1.759   2.536  2.0486 -1.2383  1.9112
   18MOL   H249 9803   1.313   1.630   2.478  0.3375 -0.4445 -0.7974
   18MOL   H250 9804   1.204   1.399   2.380 -1.1684  0.0503 -2.3862
   18MOL   H251 9805   1.102   1.507   2.292 -1.3447  1.0741  0.6321
   18MOL   H252 9806   0.989   1.283   2.341  0.7394  0.2036  0.1049
   18MOL   H253 9807   0.897   1.417   2.395 -1.6395 -4.1262 -3.1434
   18MOL   O254 9808   1.188   1.737   2.333  0.0762 -0.1770 -0.5938
   18MOL   C255 9809   1.284   1.840   2.313  0.0057  0.1022  0.0586
   18MOL   C256 9810   1.280   1.873   2.158 -0.5740  0.5032 -0.1506
   18MOL   O257 9811   1.391   1.967   2.147  0.4689 -0.0011  0.0171
   18MOL   C258 9812   1.316   1.755   2.070  0.4209 -0.1524  0.0074
   18MOL   C259 9813   1.459   1.699   2.097 -0.2040 -0.0716  0.4405
   18MOL   C260 9814   1.479   1.573   2.004 -0.0916  0.1372 -0.8097
   18MOL   O261 9815   1.606   1.524   2.032  0.0015  0.1104  0.4183
   18MOL   C262 9816   1.456   1.575   1.853  1.3169 -0.3191  0.3505
   18MOL   C263 9817   1.450   1.442   1.775  0.0182  0.1319  0.6032
   18MOL   C264 9818   1.322   1.645   1.845  0.5285 -0.2168 -0.2974
   18MOL   C265 9819   1.298   1.773   1.918  0.5035 -0.4454 -0.0868
   18MOL   H266 9820   1.385   1.822   2.349  0.2078 -0.2918 -0.6920
   18MOL   H267 9821   1.226   1.914   2.368 -1.7892  0.3401 -2.0895
   18MOL   H268 9822   1.181   1.917   2.145 -0.1166  0.9946 -2.1059
   18MOL   H269 9823   1.471   1.918   2.134  0.5228 -0.0667  0.5895
   18MOL   H270 9824   1.238   1.687   2.102  0.0966 -0.6628 -1.7965
   18MOL   H271 9825   1.547   1.762   2.080  0.5361 -1.2290 -0.0538
   18MOL   H272 9826   1.456   1.666   2.201 -0.6655 -0.1725  0.3950
   18MOL   H273 9827   1.412   1.507   2.059  0.1101  1.7785  1.5333
   18MOL   H274 9828   1.604   1.430   2.031 -2.6156  0.1348  0.0372
   18MOL   H275 9829   1.534   1.640   1.813  2.3314 -0.5151  1.9764
   18MOL   H276 9830   1.552   1.405   1.764  0.1738  0.1588  1.8631
   18MOL   H277 9831   1.390   1.379   1.841 -1.0658  1.0915  0.5484
   18MOL   H278 9832   1.256   1.565   1.879  0.1857  0.1337 -0.1339
   18MOL   H279 9833   1.289   1.656   1.742 -0.0205  0.2357 -0.0723
   18MOL   H280 9834   1.197   1.800   1.888  1.0591  0.1561 -1.4557
   18MOL   H281 9835   1.364   1.855   1.889 -0.4042 -0.5224 -2.4819
   18MOL   O282 9836   1.389   1.460   1.645 -0.1948 -0.1111 -0.3245
   18MOL   C283 9837   1.398   1.344   1.564 -0.0432 -0.7153 -0.7341
   18MOL   C284 9838   1.319   1.347   1.431  0.4262  0.6012  0.5489
   18MOL   O285 9839   1.340   1.220   1.366 -0.0458  0.2877 -0.1623
   18MOL   C286 9840   1.165   1.366   1.444 -0.2146  0.8549 -1.6314
   18MOL   C287 9841   1.103   1.260   1.533  0.0829 -0.0917  0.5974
   18MOL   C288 9842   0.959   1.301   1.563 -0.1818 -0.1761 -0.5550
   18MOL   O289 9843   0.902   1.231   1.670 -0.2347 -0.1723  0.0073
   18MOL   C290 9844   0.867   1.314   1.438  0.0069  0.3154 -0.9443
   18MOL   C291 9845   0.731   1.367   1.482  0.1324 -0.5508 -0.2939
   18MOL   C292 9846   0.932   1.412   1.340 -1.0331 -0.3907 -0.0746
   18MOL   C293 9847   1.080   1.374   1.312 -0.2383 -0.9657 -0.5542
   18MOL   H294 9848   1.363   1.257   1.620 -0.4538 -0.1272 -0.0671
   18MOL   H295 9849   1.502   1.313   1.557  0.2105 -0.5889  1.8669
   18MOL   H296 9850   1.353   1.423   1.361 -0.3208 -0.0153 -0.5032
   18MOL   H297 9851   1.311   1.229   1.276  0.1920 -0.5524 -0.3257
   18MOL   H298 9852   1.163   1.463   1.492  1.0844  0.5325 -0.8973
   18MOL   H299 9853   1.106   1.160   1.487 -0.5553 -0.0372  0.4382
   18MOL   H300 9854   1.148   1.251   1.632 -2.2269 -1.6962  1.5359
   18MOL   H301 9855   0.961   1.401   1.608 -0.5353 -0.7424  0.7438
   18MOL   H302 9856   0.809   1.248   1.668  0.0136  1.1033 -0.8585
   18MOL   H303 9857   0.859   1.214   1.394  1.1052 -0.3265  0.2536
   18MOL   H304 9858   0.683   1.300   1.554  2.6500 -2.3395 -0.1810
   18MOL   H305 9859   0.744   1.458   1.540 -0.7013 -1.2574  1.0384
   18MOL   H306 9860   0.932   1.513   1.383 -1.3009 -0.5514  0.3141
   18MOL   H307 9861   0.879   1.406   1.245 -1.3925 -0.2767  0.1154
   18MOL   H308 9862   1.120   1.454   1.251 -2.4676 -0.7777 -1.8485
   18MOL   H309 9863   1.078   1.281   1.255  0.9456 -0.8933 -0.7128
   18MOL   O310 9864   0.641   1.397   1.380  0.5464 -0.0786  0.0687
   18MOL   C311 9865   0.524   1.467   1.416  0.3139 -0.0417  0.0576
   18MOL   C312 9866   0.448   1.479   1.283  0.7621 -1.0421  0.0312
   18MOL   O313 9867   0.410   1.350   1.238 -0.5940 -0.0173  0.1659
   18MOL   C314 9868   0.337   1.584   1.284 -0.8483  0.2264  0.2101
   18MOL   C315 9869   0.212   1.565   1.373  0.6166  0.7381 -0.2860
   18MOL   C316 9870   0.109   1.675   1.361 -0.5011 -0.0469 -0.1606
   18MOL   O317 9871   7.627   1.631   1.435  0.3752  0.0801 -0.1209
   18MOL   C318 9872   0.070   1.698   1.213  0.0687 -0.0203 -0.0244
   18MOL   C319 9873   7.583   1.799   1.198  0.3042  0.3059  0.3882
   18MOL   C320 9874   0.202   1.730   1.136 -0.0810  0.4124 -0.0507
   18MOL   C321 9875   0.293   1.604   1.144 -0.6144 -0.0918  0.5959
   18MOL   H322 9876   0.556   1.564   1.452  0.2417 -0.9994  2.8232
   18MOL   H323 9877   0.468   1.421   1.498 -0.2579  1.8038  0.7138
   18MOL   H324 9878   0.523   1.522   1.216  1.8266 -1.1819  1.1220
   18MOL   H325 9879   0.484   1.291   1.229 -0.7141 -0.1556  0.0844
   18MOL   H326 9880   0.382   1.678   1.317  1.0703 -0.1222 -1.3365
   18MOL   H327 9881   0.166   1.468   1.353 -0.7751  1.3410 -0.0585
   18MOL   H328 9882   0.245   1.566   1.476  1.8121 -0.9137 -0.6327
   18MOL   H329 9883   0.162   1.758   1.408  0.7357  1.1424 -3.5251
   18MOL   H330 9884   7.559   1.695   1.420 -0.1347 -0.5093 -0.3301
   18MOL   H331 9885   0.028   1.601   1.187  0.2032 -0.1261  0.1518
   18MOL   H332 9886   7.523   1.823   1.286  0.9208  3.4639  0.0146
   18MOL   H333 9887   7.629   1.896   1.179 -0.1957  0.6979  1.1233
   18MOL   H334 9888   0.250   1.817   1.179  0.5710 -1.1356  2.4522
   18MOL   H335 9889   0.196   1.752   1.029  2.9343  2.6066  0.1805
   18MOL   H336 9890   0.376   1.612   1.074  0.5484 -2.8521  1.5799
   18MOL   H337 9891   0.238   1.515   1.113 -1.6917  0.7789 -0.0290
   18MOL   O338 9892   7.485   1.754   1.105  0.0494 -0.3015  0.3112
   18MOL   C339 9893   7.531   1.720   0.971 -0.1716 -0.2562  0.5119
   18MOL   C340 9894   7.510   1.844   0.880 -0.3940 -0.1755  0.5984
   18MOL   O341 9895   7.624   1.926   0.893 -0.1840  0.2079 -0.2000
   18MOL   C342 9896   7.491   1.817   0.727 -0.1392  0.5021  0.0692
   18MOL   C343 9897   7.615   1.760   0.656  0.4843  0.2253  0.2842
   18MOL   C344 9898   7.576   1.735   0.510 -0.2679 -0.3171 -0.3054
   18MOL   O345 9899   0.066   1.692   0.439  0.1432 -0.0670 -0.1325
   18MOL   C346 9900   7.533   1.866   0.439  0.1382 -0.0355 -0.1415
   18MOL   C347 9901   7.481   1.835   0.296 -0.5157  0.1042  0.1430
   18MOL   C348 9902   7.412   1.929   0.516  0.3908  0.1282 -1.0200
   18MOL   C349 9903   7.438   1.945   0.665  0.3575 -0.1766  0.0067
   18MOL   H350 9904   7.462   1.638   0.953  2.1162 -2.2175  0.4260
   18MOL   H351 9905   7.625   1.666   0.976 -1.3254 -2.2325  1.5013
   18MOL   H352 9906   7.419   1.898   0.908 -0.8897 -0.6898 -0.0146
   18MOL   H353 9907   7.623   1.970   0.976 -2.4684 -1.5693  0.7675
   18MOL   H354 9908   7.414   1.740   0.720 -0.7003  0.8841  1.8789
   18MOL   H355 9909   0.057   1.842   0.656  0.3644  0.3389 -0.9284
   18MOL   H356 9910   0.016   1.664   0.699 -0.1707 -1.2257 -2.3804
   18MOL   H357 9911   7.504   1.653   0.508 -1.6459  0.7727  1.9057
   18MOL   H358 9912   0.112   1.631   0.494  1.6172 -0.2775 -1.5705
   18MOL   H359 9913   7.611   1.940   0.424 -1.2347  0.7404 -3.7978
   18MOL   H360 9914   7.563   1.809   0.229 -0.9793 -2.0587  0.3908
   18MOL   H361 9915   7.429   1.742   0.320 -0.2869 -0.1721 -0.4288
   18MOL   H362 9916   7.326   1.862   0.507  1.3454 -1.5899  2.0154
   18MOL   H363 9917   7.373   2.022   0.474  0.0665  0.3495 -0.2255
   18MOL   H364 9918   7.334   1.961   0.694  0.7008  3.6115 -0.5007
   18MOL   H365 9919   7.493   2.038   0.681  1.0016 -0.2706 -1.5693
   18MOL   O366 9920   7.402   1.938   0.234  0.2049 -0.0339  0.3802
   18MOL   C367 9921   7.464   2.061   0.202 -0.1577  0.0714 -0.1655
   18MOL   C368 9922   7.355   2.170   0.161  0.1118  0.2943  0.3731
   18MOL   O369 9923   7.313   2.129   0.029  0.3026  0.3987  0.4065
   18MOL   C370 9924   7.236   2.198   0.254 -0.5459  0.2339  0.0123
   18MOL   C371 9925   7.114   2.275   0.192  0.4258 -0.0447  0.6007
   18MOL   C372 9926   7.150   2.418   0.145  0.2266  0.2868  0.4232
   18MOL   O373 9927   7.238   2.413   0.031  0.0319  0.9165  0.8687
   18MOL   C374 9928   7.214   2.497   0.257 -0.0353  0.5386  0.1140
   18MOL   C375 9929   7.109   2.550   0.345  0.5366  0.1230 -0.5573
   18MOL   C376 9930   7.320   2.426   0.343  0.3927 -0.8227  0.4742
   18MOL   C377 9931   7.285   2.275   0.371 -0.1191  0.1335 -0.2709
   18MOL   H378 9932   7.543   2.063   0.127  1.1116  1.3104  1.1647
   18MOL   H379 9933   7.499   2.087   0.302 -0.7838  3.8170 -0.8715
   18MOL   H380 9934   7.421   2.254   0.143  0.3791 -0.1452 -0.7474
   18MOL   H381 9935   7.288   2.038   0.039 -1.2118  0.9593  1.9188
   18MOL   H382 9936   7.205   2.104   0.299  0.0010  1.4204  2.9577
   18MOL   H383 9937   7.062   2.214   0.118  1.0205 -0.6563  0.6786
   18MOL   H384 9938   7.046   2.273   0.277  1.1034  0.3897  1.1659
   18MOL   H385 9939   7.059   2.467   0.110  0.9702  1.2298 -0.2029
   18MOL   H386 9940   7.278   2.327   0.029  2.3788  1.9977 -1.3567
   18MOL   H387 9941   7.252   2.588   0.210  3.0014 -0.9649 -0.4261
   18MOL   H388 9942   7.040   2.602   0.280  1.8050 -0.6159 -2.5285
   18MOL   H389 9943   7.046   2.476   0.394 -0.4914 -0.1310 -2.2350
   18MOL   H390 9944   7.351   2.484   0.429  3.3179  0.5187 -1.4135
   18MOL   H391 9945   7.409   2.421   0.280 -0.5642  1.2827 -1.0978
   18MOL   H392 9946   7.208   2.274   0.447  0.5902  0.4877  0.4610
   18MOL   H393 9947   7.364   2.222   0.425 -0.9856 -0.1875  0.6783
   18MOL   O394 9948   7.161   2.651   0.440  0.1637  0.1549 -0.1210
   18MOL   C395 9949   7.061   2.710   0.518  0.6195 -0.2788  0.6416
   18MOL   C396 9950   7.130   2.789   0.628 -0.7902 -0.9322  0.4507
   18MOL   O397 9951   7.162   2.921   0.593 -0.2913  0.2954 -0.2707
   18MOL   C398 9952   7.040   2.795   0.751  0.4685  0.9186  0.0313
   18MOL   C399 9953   7.015   2.659   0.823 -0.0120 -0.2231 -0.5064
   18MOL   C400 9954   6.926   2.673   0.949 -0.2763  0.4894 -0.3358
   18MOL   O401 9955   6.902   2.550   1.000  0.0315  0.3573 -0.0938
   18MOL   C402 9956   6.798   2.753   0.934  0.0309  0.2458 -0.2722
   18MOL   C403 9957   6.716   2.776   1.070  0.2610  0.9776  0.2988
   18MOL   C404 9958   6.827   2.886   0.863 -0.2548  0.6864  0.5400
   18MOL   C405 9959   6.898   2.863   0.727 -0.3717  0.3617 -0.7071
   18MOL   H406 9960   6.993   2.636   0.560 -0.3627  0.3942  0.2489
   18MOL   H407 9961   6.991   2.765   0.454 -0.8552 -2.4767  0.3085
   18MOL   H408 9962   7.229   2.751   0.655  0.2142  1.8017  0.7815
   18MOL   H409 9963   7.096   2.958   0.537  0.9185  0.0660 -1.8902
   18MOL   H410 9964   7.092   2.866   0.815 -0.0676  1.3247  0.0167
   18MOL   H411 9965   6.964   2.581   0.767 -1.5212  0.1952  0.2653
   18MOL   H412 9966   7.109   2.610   0.850  0.2144  1.9733  2.8941
   18MOL   H413 9967   6.993   2.722   1.019  0.3255 -0.8364  0.0286
   18MOL   H414 9968   6.968   2.524   1.062 -0.0405 -0.2269 -0.2493
   18MOL   H415 9969   6.742   2.708   0.853  3.3578 -1.3506 -1.8015
   18MOL   H416 9970   6.707   2.690   1.136  2.3444 -0.9358 -1.8112
   18MOL   H417 9971   6.773   2.849   1.126 -0.2287  0.9449  0.8557
   18MOL   H418 9972   6.899   2.942   0.921 -1.5332  0.9548  1.8801
   18MOL   H419 9973   6.729   2.932   0.849 -0.4648  0.6129  1.7414
   18MOL   H420 9974   6.919   2.954   0.672  0.5505  0.7217  0.2164
   18MOL   H421 9975   6.832   2.795   0.672 -1.7954  0.2463  1.1095
   18MOL   O422 9976   6.583   2.827   1.053 -0.2641 -0.1227 -0.3731
   18MOL   C423 9977   6.486   2.727   1.036 -0.6219 -0.0149  0.4020
   18MOL   C424 9978   6.360   2.788   0.996  0.4956 -0.5921  0.7552
   18MOL   O425 9979   6.318   2.863   1.106  0.0705 -0.7231 -0.8154
   18MOL   C426 9980   6.365   2.874   0.863  0.4445  0.0987 -0.5826
   18MOL   C427 9981   6.223   2.891   0.809  0.3368 -0.2630  0.5358
   18MOL   C428 9982   6.217   2.998   0.697 -0.2319  0.8791  0.1858
   18MOL   O429 9983   6.084   2.996   0.651  0.0961 -0.2642 -0.1862
   18MOL   C430 9984   6.313   2.949   0.583  0.1155 -0.1546  0.2051
   18MOL   C431 9985   6.314   3.040   0.456  0.0623 -0.3006 -0.3545
   18MOL   C432 9986   6.453   2.910   0.628  0.7376 -0.8921  0.2091
   18MOL   C433 9987   6.454   2.821   0.751 -0.0892 -0.5425 -0.2255
   18MOL   H434 9988   6.455   2.666   1.121 -0.5761  0.2114  0.5821
   18MOL   H435 9989   6.527   2.661   0.960 -0.6178  0.9919 -0.4811
   18MOL   H436 9990   6.294   2.704   0.975  0.0291  0.2996 -1.4590
   18MOL   H437 9991   6.396   2.911   1.131 -0.3525 -0.5593  0.1932
   18MOL   H438 9992   6.404   2.972   0.888  0.4034 -0.1501  0.4695
   18MOL   H439 9993   6.165   2.803   0.782 -1.0412  1.6889 -3.1193
   18MOL   H440 9994   6.170   2.923   0.899  0.3833  1.7518 -0.1232
   18MOL   H441 9995   6.242   3.099   0.729 -1.8189  1.5972 -0.8076
   18MOL   H442 9996   6.030   3.017   0.726  1.0960  0.1991  0.4180
   18MOL   H443 9997   6.271   2.857   0.544 -0.9426 -0.3403  1.7166
   18MOL   H444 9998   6.394   3.013   0.387  1.7568 -1.8858  2.1218
   18MOL   H445 9999   6.216   3.033   0.410 -0.6723  1.9802  0.7831
   18MOL   H44610000   6.522   2.992   0.645 -0.4038  0.1085  0.0167
   18MOL   H44710001   6.500   2.866   0.540  1.2379  0.6711 -0.3219
   18MOL   H44810002   6.555   2.816   0.791 -1.0235 -1.7645  2.0548
   18MOL   H44910003   6.421   2.722   0.721  0.1083 -0.1081 -1.9089
   18MOL   O45010004   6.339   3.169   0.503 -0.3631  0.2608 -0.4340
   18MOL   C45110005   6.295   3.269   0.422 -0.6394  0.5077  0.2876
   18MOL   C45210006   6.295   3.383   0.513 -0.0636  0.0318  0.0635
   18MOL   O45310007   6.430   3.396   0.563 -0.2015  0.2936 -0.6486
   18MOL   C45410008   6.249   3.512   0.442  0.1370  0.7095  0.3983
   18MOL   C45510009   6.344   3.560   0.328 -0.4484  0.2141  0.0410
   18MOL   C45610010   6.293   3.685   0.263 -0.1625  0.3075  0.3756
   18MOL   O45710011   6.406   3.720   0.189 -0.1777  0.4499  0.3205
   18MOL   C45810012   6.267   3.804   0.359  0.1559 -0.5858 -0.2375
   18MOL   C45910013   6.204   3.926   0.294  0.2867 -0.2505 -0.3586
   18MOL   C46010014   6.174   3.751   0.477  0.3177  0.2021 -0.2165
   18MOL   C46110015   6.230   3.625   0.540 -0.2159 -0.0598  0.0698
   18MOL   H46210016   6.195   3.244   0.387  0.1570  0.0558 -1.6767
   18MOL   H46310017   6.360   3.264   0.335 -0.7353  1.9445  0.1124
   18MOL   H46410018   6.225   3.366   0.595  0.2481  0.0144  0.3268
   18MOL   H46510019   6.449   3.317   0.611 -1.6363 -0.9913 -2.1474
   18MOL   H46610020   6.154   3.488   0.394 -1.1428  1.8431  2.2987
   18MOL   H46710021   6.442   3.577   0.374  0.9711 -3.0085 -1.6533
   18MOL   H46810022   6.364   3.484   0.253  0.4146 -1.0695  1.5359
   18MOL   H46910023   6.213   3.672   0.190  1.5700  0.4546 -1.5895
   18MOL   H47010024   6.467   3.747   0.255 -0.3878  0.3616  0.5518
   18MOL   H47110025   6.362   3.841   0.398 -0.7795  1.6991 -0.0695
   18MOL   H47210026   6.286   3.968   0.236 -0.2309 -0.5883 -1.3455
   18MOL   H47310027   6.141   3.895   0.211  0.0451  2.1397 -1.0899
   18MOL   H47410028   6.071   3.746   0.442  0.1261  1.3456  0.1537
   18MOL   H47510029   6.176   3.820   0.561 -0.3102 -1.0729  0.8590
   18MOL   H47610030   6.160   3.599   0.619 -0.7181 -0.2655 -0.4419
   18MOL   H47710031   6.329   3.646   0.579  0.2457 -0.7943 -0.6821
   18MOL   O47810032   6.137   4.009   0.382  0.7988  0.3133  0.3326
   18MOL   C47910033   6.101   4.129   0.315  0.1773  0.0360 -0.5082
   18MOL   C48010034   6.092   4.248   0.415  0.1444  0.5498  0.4541
   18MOL   O48110035   6.217   4.243   0.478  0.7120  0.3871 -0.1965
   18MOL   C48210036   6.071   4.388   0.358  0.4792  0.3048 -0.0012
   18MOL   C48310037   6.088   4.500   0.460  0.0944 -0.1369 -0.6243
   18MOL   C48410038   6.052   4.644   0.390 -0.2868  1.1837 -0.0070
   18MOL   O48510039   6.063   4.726   0.505 -0.0224  0.3938 -0.7278
   18MOL   C48610040   5.909   4.637   0.336  0.1110 -0.8675  0.3394
   18MOL   C48710041   5.866   4.780   0.286 -0.0290 -0.5730  0.2018
   18MOL   C48810042   5.909   4.535   0.234  0.7316  0.3169 -0.0761
   18MOL   C48910043   5.934   4.399   0.291 -0.6225  0.4050  0.0682
   18MOL   H49010044   6.005   4.110   0.268  0.1871  2.9100 -1.7544
   18MOL   H49110045   6.180   4.165   0.249 -0.1969 -0.3825 -1.1918
   18MOL   H49210046   6.019   4.224   0.493 -1.1416  0.2589 -0.8103
   18MOL   H49310047   6.273   4.204   0.413  0.7083  1.7599 -1.0408
   18MOL   H49410048   6.146   4.408   0.282 -1.2819 -1.9989 -2.4487
   18MOL   H49510049   6.021   4.481   0.543 -1.0594  0.4238 -1.4075
   18MOL   H49610050   6.185   4.495   0.509  0.0251 -0.5902 -0.5258
   18MOL   H49710051   6.128   4.665   0.315 -0.0450  1.4614  0.3124
   18MOL   H49810052   6.126   4.791   0.480  1.5305 -1.0888 -0.7522
   18MOL   H49910053   5.846   4.607   0.419 -0.1271 -0.7909  0.1863
   18MOL   H50010054   5.888   4.860   0.356  1.2089  0.1197 -0.9659
   18MOL   H50110055   5.923   4.803   0.196 -3.5248 -1.5198 -2.3882
   18MOL   H50210056   5.965   4.569   0.147  0.1917  2.6981  0.4459
   18MOL   H50310057   5.809   4.525   0.192  0.4372 -0.0826  0.7151
   18MOL   H50410058   5.934   4.327   0.209  1.6242  0.0134  0.3754
   18MOL   H50510059   5.860   4.362   0.362  0.0368  0.1526  0.6323
   18MOL   O50610060   5.735   4.803   0.243 -0.2348 -0.1509 -0.2048
   18MOL   C50710061   5.641   4.829   0.349  0.5328  0.0487 -0.1175
   18MOL   C50810062   5.494   4.808   0.308  0.6566 -0.2821 -1.0601
   18MOL   O50910063   5.439   4.910   0.220  0.0042 -0.2624  0.1801
   18MOL   C51010064   5.466   4.674   0.240 -0.5234 -0.1504 -0.5356
   18MOL   C51110065   5.308   4.650   0.242 -0.4493  0.4127  0.6973
   18MOL   C51210066   5.270   4.509   0.199  0.1214 -0.8415 -0.4022
   18MOL   O51310067   5.132   4.484   0.229  0.2157 -0.2035  0.3034
   18MOL   C51410068   5.351   4.402   0.272  0.4649  0.8830  0.1042
   18MOL   C51510069   5.311   4.258   0.228 -0.4612  0.0626  0.8890
   18MOL   C51610070   5.502   4.422   0.269 -0.1254 -0.2242  0.0048
   18MOL   C51710071   5.539   4.562   0.320 -0.0986  0.1663 -0.0490
   18MOL   H51810072   5.644   4.933   0.381  0.5016  0.1125 -0.3202
   18MOL   H51910073   5.664   4.763   0.433 -0.9047 -3.0334 -2.0494
   18MOL   H52010074   5.448   4.827   0.405  4.9929  0.2342  1.0333
   18MOL   H52110075   5.452   4.994   0.260  0.1446 -0.7655  1.2176
   18MOL   H52210076   5.507   4.682   0.139  2.0927  1.6821  0.6168
   18MOL   H52310077   5.256   4.662   0.337  0.0355 -2.5302  1.3762
   18MOL   H52410078   5.264   4.724   0.174 -3.1987 -2.0816 -0.3230
   18MOL   H52510079   5.297   4.510   0.094  2.1503 -0.9458  0.1145
   18MOL   H52610080   5.086   4.502   0.148 -3.6475 -2.8043  1.8041
   18MOL   H52710081   5.327   4.400   0.378 -0.4234 -1.7195 -0.0972
   18MOL   H52810082   5.205   4.233   0.234 -0.4595 -0.6066 -1.2408
   18MOL   H52910083   5.329   4.243   0.122  1.6584 -2.8708  1.6093
   18MOL   H53010084   5.544   4.413   0.169  1.2049 -0.5371  0.5850
   18MOL   H53110085   5.548   4.345   0.332  0.6264  0.0517 -0.2038
   18MOL   H53210086   5.647   4.570   0.310 -0.2495  1.3483 -0.9203
   18MOL   H53310087   5.504   4.587   0.420 -0.3919  1.9063 -0.5640
   18MOL   O53410088   5.387   4.174   0.317 -0.2159 -0.4898  0.5077
   18MOL   C53510089   5.425   4.051   0.265 -0.0349  0.4885 -0.4458
   18MOL   C53610090   5.465   3.960   0.380 -0.1382 -0.5662 -0.0522
   18MOL   O53710091   5.347   3.884   0.418  0.1003 -0.2431 -0.1850
   18MOL   C53810092   5.568   3.850   0.338  0.3054 -0.1423 -0.2293
   18MOL   C53910093   5.580   3.724   0.431 -0.4447  0.0561 -0.6751
   18MOL   C54010094   5.674   3.619   0.372 -0.1367  0.7333  0.1892
   18MOL   O54110095   5.683   3.497   0.442 -0.1445 -0.3200  0.6413
   18MOL   C54210096   5.810   3.679   0.345  0.2098  0.4543 -0.1075
   18MOL   C54310097   5.905   3.577   0.278 -0.4184 -0.2912 -0.1112
   18MOL   C54410098   5.799   3.800   0.257  0.1654  0.1029 -1.1963
   18MOL   C54510099   5.710   3.902   0.321 -0.1609 -0.6385  0.4672
   18MOL   H54610100   5.505   4.063   0.192 -0.3031 -1.1583 -1.0132
   18MOL   H54710101   5.355   4.004   0.197  0.0567  2.0730 -1.6581
   18MOL   H54810102   5.492   4.015   0.470  0.3639 -2.1663  0.7970
   18MOL   H54910103   5.282   3.945   0.449  1.6312  1.2188  0.1973
   18MOL   H55010104   5.544   3.809   0.240  1.8991  0.5161 -0.9043
   18MOL   H55110105   5.618   3.745   0.532  1.7619  0.7438 -1.6083
   18MOL   H55210106   5.484   3.674   0.439  0.3927 -1.6058 -0.8576
   18MOL   H55310107   5.643   3.594   0.270 -2.5430  1.1668  0.7813
   18MOL   H55410108   5.741   3.436   0.399  1.2818 -0.0515  2.1388
   18MOL   H55510109   5.858   3.711   0.438  1.0453 -0.8333 -0.0831
   18MOL   H55610110   5.866   3.529   0.188  0.5176  0.4628 -0.9334
   18MOL   H55710111   5.992   3.628   0.238 -1.1783  2.0810  1.1504
   18MOL   H55810112   5.758   3.773   0.160 -0.8517 -1.1741 -0.4186
   18MOL   H55910113   5.896   3.849   0.252  0.3584  0.0252  1.1232
   18MOL   H56010114   5.715   3.997   0.267  2.3379 -1.2057 -0.3327
   18MOL   H56110115   5.753   3.924   0.419 -2.5412  1.9942  1.0017
   18MOL   H56210116   5.937   3.497   0.344 -0.8427 -0.2608  0.1353
   19MOL     O110117   4.135   5.309   6.584  0.1458 -0.9008 -0.0069
   19MOL     C210118   4.082   5.183   6.614 -0.4437 -0.2028 -0.2364
   19MOL     C310119   3.960   5.159   6.532  0.4734 -0.8000  0.0748
   19MOL     O410120   3.881   5.272   6.537  0.0990  0.0646 -1.0684
   19MOL     C510121   3.987   5.127   6.382 -0.3323  0.0250 -0.2892
   19MOL     C610122   3.859   5.083   6.304 -0.1561  0.4081 -0.8035
   19MOL     C710123   3.875   5.084   6.151 -0.7480  0.6663  0.4835
   19MOL     O810124   3.752   5.045   6.084 -0.4914  0.0296 -0.5493
   19MOL     C910125   4.000   5.000   6.109 -0.3959  0.1515  0.6268
   19MOL    C1010126   4.034   5.035   5.966 -0.0602 -0.2397  0.2119
   19MOL    C1110127   4.122   5.030   6.197  0.1968 -0.5976  0.4849
   19MOL    C1210128   4.100   5.031   6.346  0.2119  0.0986  0.6017
   19MOL    H1310129   4.069   5.186   6.722 -2.3310  1.1439 -0.4737
   19MOL    H1410130   4.149   5.098   6.605 -1.4979 -1.0124 -0.3976
   19MOL    H1510131   3.902   5.078   6.576  2.0041 -0.7006  2.3400
   19MOL    H1610132   3.942   5.342   6.553  1.4661 -1.3633 -0.0116
   19MOL    H1710133   4.015   5.225   6.341  1.4258  0.4153  1.7414
   19MOL    H1810134   3.837   4.978   6.327 -1.6787  0.3544 -2.4014
   19MOL    H1910135   3.772   5.145   6.329  0.1808  0.6918 -0.3354
   19MOL    H2010136   3.894   5.188   6.123 -4.3622  1.7302  1.7097
   19MOL    H2110137   3.734   4.960   6.121 -1.0423  0.1431 -0.5484
   19MOL    H2210138   3.974   4.895   6.127 -1.8074  0.3939  0.0960
   19MOL    H2310139   3.958   5.001   5.895 -2.2924 -0.3486  2.6084
   19MOL    H2410140   4.050   5.142   5.952  0.4016 -0.0095  2.4048
   19MOL    H2510141   4.165   5.123   6.160 -0.4602  0.4549  2.3165
   19MOL    H2610142   4.205   4.963   6.174  0.9056  0.5408 -0.2830
   19MOL    H2710143   4.191   5.061   6.399  1.5038  0.8576 -1.9458
   19MOL    H2810144   4.080   4.933   6.387 -0.3392  0.5598  1.4543
   19MOL    H2910145   4.212   5.304   6.528  0.5776  1.0709  0.3519
   19MOL    O3010146   4.162   4.968   5.939 -0.7081 -0.2359 -0.0185
   19MOL    C3110147   4.231   4.999   5.816 -0.3817  0.3703  0.2944
   19MOL    C3210148   4.137   4.999   5.688 -0.3759 -0.4994 -0.7627
   19MOL    O3310149   4.096   5.138   5.668  0.4286  0.3006 -0.6901
   19MOL    C3410150   4.211   4.939   5.562  0.3598  0.7124 -0.4541
   19MOL    C3510151   4.344   5.004   5.538 -0.5007 -0.7783  0.1567
   19MOL    C3610152   4.395   4.984   5.394  0.3747 -0.2494 -0.0496
   19MOL    O3710153   4.515   5.058   5.380  0.3065 -0.2165  0.2916
   19MOL    C3810154   4.299   5.018   5.278  0.1587  0.0715 -0.2505
   19MOL    C3910155   4.350   4.966   5.145 -0.6047  0.4166  0.1776
   19MOL    C4010156   4.164   4.940   5.311  0.1612  0.1811  0.3252
   19MOL    C4110157   4.109   4.972   5.445 -0.0444 -0.4322  0.2208
   19MOL    H4210158   4.315   4.930   5.812 -0.3541  0.4735 -1.4650
   19MOL    H4310159   4.277   5.096   5.833  1.0653 -0.7410  2.8915
   19MOL    H4410160   4.046   4.942   5.701  0.1117 -0.8567  1.2881
   19MOL    H4510161   4.154   5.191   5.721  0.5897 -0.3963 -0.1573
   19MOL    H4610162   4.223   4.831   5.561 -1.0180  0.5459  0.1586
   19MOL    H4710163   4.338   5.113   5.538  0.4882 -0.7078 -0.8887
   19MOL    H4810164   4.419   4.972   5.611  1.7730  2.8501 -0.4228
   19MOL    H4910165   4.423   4.881   5.371  0.0023 -0.7181  1.5241
   19MOL    H5010166   4.541   5.062   5.289 -0.6027 -2.0635 -0.0745
   19MOL    H5110167   4.284   5.125   5.292  1.0597 -0.0573  1.9536
   19MOL    H5210168   4.345   4.858   5.134  0.1471  0.3451  0.4946
   19MOL    H5310169   4.279   5.009   5.075 -1.3068 -0.5606  0.2847
   19MOL    H5410170   4.193   4.836   5.324  0.6084  0.2710  0.0579
   19MOL    H5510171   4.088   4.938   5.233 -0.4504 -0.2718  0.9295
   19MOL    H5610172   4.007   4.934   5.454 -0.4056  0.6443  0.9227
   19MOL    H5710173   4.094   5.080   5.437 -0.1794 -0.3565  1.4498
   19MOL    O5810174   4.477   5.022   5.110 -0.5159 -0.2588 -0.0372
   19MOL    C5910175   4.501   5.011   4.970 -0.4941  0.3126 -0.6134
   19MOL    C6010176   4.623   5.110   4.947 -0.0185 -0.3666 -0.1725
   19MOL    O6110177   4.730   5.047   5.013 -0.1370 -0.1552 -0.5012
   19MOL    C6210178   4.655   5.146   4.804 -0.3448  0.1021  0.4501
   19MOL    C6310179   4.781   5.250   4.807  0.5233  0.0906  0.3192
   19MOL    C6410180   4.825   5.296   4.671 -0.0844 -0.6154 -0.0614
   19MOL    O6510181   4.932   5.384   4.680  0.3198 -0.2813 -0.1066
   19MOL    C6610182   4.706   5.361   4.583 -0.0740 -0.1502 -0.0637
   19MOL    C6710183   4.770   5.397   4.441 -0.2121 -0.9964 -0.3180
   19MOL    C6810184   4.582   5.271   4.583 -0.0211 -0.6075  0.1795
   19MOL    C6910185   4.537   5.221   4.724 -0.5481  0.9907  0.5249
   19MOL    H7010186   4.416   5.058   4.921  0.7536  2.9792 -0.3243
   19MOL    H7110187   4.517   4.913   4.925  0.6489  0.5844 -0.8189
   19MOL    H7210188   4.613   5.205   5.000  0.2304  0.6068 -1.8270
   19MOL    H7310189   4.742   4.955   4.991  0.2658 -0.4815  1.0276
   19MOL    H7410190   4.685   5.057   4.749 -1.7827  0.5571 -1.0853
   19MOL    H7510191   4.737   5.338   4.852 -0.2773 -0.1868  0.0866
   19MOL    H7610192   4.867   5.219   4.867 -0.0085  1.7106  1.9189
   19MOL    H7710193   4.862   5.209   4.617  1.5896  0.1399 -0.1574
   19MOL    H7810194   5.011   5.335   4.667 -1.5238 -2.9558 -1.6043
   19MOL    H7910195   4.678   5.454   4.633 -1.0841  0.8208 -2.3846
   19MOL    H8010196   4.843   5.477   4.453 -1.9570  0.5958 -0.0662
   19MOL    H8110197   4.815   5.303   4.407  2.8328 -0.5192  2.2025
   19MOL    H8210198   4.581   5.188   4.512  0.0278 -1.4887  1.1953
   19MOL    H8310199   4.493   5.319   4.545 -1.3923 -0.3176  3.6183
   19MOL    H8410200   4.464   5.140   4.720  0.5998 -0.0969  1.3787
   19MOL    H8510201   4.489   5.296   4.786 -2.3261  1.9708 -1.9763
   19MOL    O8610202   4.677   5.433   4.345  0.8612 -0.1724  0.4226
   19MOL    C8710203   4.718   5.398   4.210  0.1792  0.0088 -0.2064
   19MOL    C8810204   4.603   5.441   4.110 -0.0488 -0.2229  0.0571
   19MOL    O8910205   4.484   5.423   4.178 -0.7214  0.1293  0.2929
   19MOL    C9010206   4.622   5.574   4.031  0.2035 -0.0452  0.5381
   19MOL    C9110207   4.671   5.691   4.114 -0.0666 -0.2208  0.3899
   19MOL    C9210208   4.666   5.825   4.037  0.3620 -0.5913 -0.8890
   19MOL    O9310209   4.691   5.927   4.142  0.2529 -0.2201  0.0167
   19MOL    C9410210   4.526   5.854   3.972 -0.9387 -0.0607 -0.1359
   19MOL    C9510211   4.511   5.991   3.902  0.0272  1.0255  0.3511
   19MOL    C9610212   4.493   5.740   3.873  0.0810  0.1517 -0.3364
   19MOL    C9710213   4.497   5.609   3.950  0.2163  0.3000  0.6208
   19MOL    H9810214   4.718   5.289   4.201 -2.9493  0.1863 -3.6031
   19MOL    H9910215   4.816   5.431   4.176  0.4279 -1.2796 -0.7948
   19MOL   H10010216   4.602   5.365   4.031 -0.7228 -0.1976  0.0388
   19MOL   H10110217   4.510   5.443   4.267  1.5307  0.4511 -0.4017
   19MOL   H10210218   4.699   5.564   3.955 -0.1128  0.6557  0.1247
   19MOL   H10310219   4.605   5.690   4.201 -0.5729 -1.8341  0.0080
   19MOL   H10410220   4.772   5.673   4.152  0.6499  0.7611 -1.0126
   19MOL   H10510221   4.751   5.830   3.969  1.3217  1.0873  0.3891
   19MOL   H10610222   4.620   5.987   4.163  1.7415  1.8243 -0.5894
   19MOL   H10710223   4.453   5.849   4.053  0.2779  0.0500  0.9929
   19MOL   H10810224   4.573   6.069   3.945  3.0354 -0.5024 -1.0774
   19MOL   H10910225   4.552   5.982   3.802  1.4002  0.5608  0.9403
   19MOL   H11010226   4.541   5.739   3.776 -3.4014  0.8892 -2.1371
   19MOL   H11110227   4.392   5.764   3.839 -0.1752  1.1817  1.1106
   19MOL   H11210228   4.473   5.531   3.878  0.7352  1.0135 -0.3485
   19MOL   H11310229   4.423   5.606   4.030  0.8241  0.2649  1.1844
   19MOL   O11410230   4.378   6.027   3.905  0.0708 -0.3460 -0.3732
   19MOL   C11510231   4.344   6.141   3.827 -0.1187  0.0437  0.2322
   19MOL   C11610232   4.208   6.189   3.873 -0.4462  0.0656  0.3346
   19MOL   O11710233   4.222   6.314   3.931  0.3371 -0.3515 -0.2557
   19MOL   C11810234   4.105   6.202   3.758 -0.0076 -0.0876 -0.2974
   19MOL   C11910235   4.135   6.326   3.666  1.0197 -0.0511 -0.0569
   19MOL   C12010236   4.031   6.313   3.550 -0.2546 -0.1760  0.1752
   19MOL   O12110237   4.059   6.408   3.458  0.9338 -0.6605 -0.3407
   19MOL   C12210238   3.884   6.312   3.593  0.2468 -0.1477 -0.0472
   19MOL   C12310239   3.776   6.308   3.481  0.5213  0.2486  0.3670
   19MOL   C12410240   3.868   6.199   3.689 -0.0251 -0.2929 -0.0286
   19MOL   C12510241   3.960   6.209   3.810  0.1790  0.1174 -0.5871
   19MOL   H12610242   4.354   6.116   3.722 -2.8068  0.7550 -0.2419
   19MOL   H12710243   4.417   6.219   3.850 -1.7722  1.4646  0.7435
   19MOL   H12810244   4.175   6.127   3.956 -1.1370  0.9028  0.6981
   19MOL   H12910245   4.138   6.341   3.965  1.7445  0.6645  2.5587
   19MOL   H13010246   4.122   6.113   3.696  0.4024 -0.6887  0.6743
   19MOL   H13110247   4.117   6.419   3.719 -1.3439 -0.8576  0.6640
   19MOL   H13210248   4.235   6.330   3.623  0.8097  2.7826 -0.3594
   19MOL   H13310249   4.069   6.223   3.502 -0.4749 -0.5700  0.7332
   19MOL   H13410250   3.982   6.405   3.404  0.1807  1.3315  0.5677
   19MOL   H13510251   3.872   6.400   3.657 -0.8958 -0.4934  0.2190
   19MOL   H13610252   3.797   6.225   3.414 -0.6121  0.1165  0.1642
   19MOL   H13710253   3.675   6.299   3.520  0.3468  3.0684  0.6689
   19MOL   H13810254   3.894   6.111   3.630 -0.0408  1.0964 -2.1738
   19MOL   H13910255   3.761   6.187   3.708 -0.5559  3.6166 -0.1751
   19MOL   H14010256   3.931   6.131   3.880  1.5144  0.2499  0.1258
   19MOL   H14110257   3.943   6.306   3.856 -1.9847 -0.3745 -0.2800
   19MOL   O14210258   3.780   6.423   3.395  0.1242 -0.2430  0.0459
   19MOL   C14310259   3.696   6.412   3.284 -0.0080  0.7092  0.0070
   19MOL   C14410260   3.698   6.540   3.202 -0.1773  1.7897 -0.0464
   19MOL   O14510261   3.825   6.550   3.145  0.1034 -0.0763 -0.0500
   19MOL   C14610262   3.594   6.543   3.089 -0.7200  0.2517  0.4178
   19MOL   C14710263   3.622   6.449   2.970 -0.0303 -0.1877  0.1436
   19MOL   C14810264   3.497   6.454   2.878  0.5969  0.3986 -0.3494
   19MOL   O14910265   3.524   6.366   2.773  0.8512 -0.2326  0.5594
   19MOL   C15010266   3.466   6.591   2.823  0.8420 -0.1963 -0.2225
   19MOL   C15110267   3.336   6.594   2.742 -0.1775  0.5383 -0.0421
   19MOL   C15210268   3.459   6.694   2.936  0.1633 -0.7579  0.5310
   19MOL   C15310269   3.576   6.680   3.034 -0.3391  0.3375 -0.5009
   19MOL   H15410270   3.597   6.407   3.328  1.0073 -0.9038  2.2336
   19MOL   H15510271   3.712   6.321   3.227 -3.1636 -1.1902  2.0519
   19MOL   H15610272   3.660   6.623   3.260  0.9862  1.4566  1.2076
   19MOL   H15710273   3.876   6.471   3.163  0.3755 -0.3672 -2.0405
   19MOL   H15810274   3.500   6.515   3.137  0.4258  1.9535  3.8484
   19MOL   H15910275   3.704   6.488   2.910 -0.9057 -0.7820 -1.4677
   19MOL   H16010276   3.625   6.341   2.984  0.2243 -0.2826 -0.6049
   19MOL   H16110277   3.409   6.413   2.927  0.1325  0.2212 -1.3354
   19MOL   H16210278   3.441   6.360   2.727  1.7264 -1.6921 -0.8573
   19MOL   H16310279   3.554   6.605   2.761 -0.0283  2.1911 -0.9434
   19MOL   H16410280   3.246   6.560   2.792  0.4046  0.4668  0.9611
   19MOL   H16510281   3.330   6.697   2.708  1.0322  1.0037  1.1051
   19MOL   H16610282   3.364   6.685   2.988 -0.2999 -1.1479 -0.3803
   19MOL   H16710283   3.453   6.797   2.900  4.0673 -0.2615  1.0417
   19MOL   H16810284   3.567   6.761   3.108 -0.1161  0.5796 -0.7369
   19MOL   H16910285   3.671   6.714   2.994  1.4322 -2.8531  0.8403
   19MOL   O17010286   3.359   6.515   2.625  0.4953  0.0287 -0.6974
   19MOL   C17110287   3.243   6.495   2.545  0.1799 -0.1459 -0.5217
   19MOL   C17210288   3.279   6.390   2.444 -0.1035 -0.1876 -0.0080
   19MOL   O17310289   3.158   6.341   2.382  0.3439 -0.0724  0.6238
   19MOL   C17410290   3.387   6.426   2.340  0.1117 -0.5706 -1.3476
   19MOL   C17510291   3.453   6.299   2.282 -0.4269  0.1435 -0.5368
   19MOL   C17610292   3.527   6.332   2.150 -0.4013 -0.8062 -0.2119
   19MOL   O17710293   3.586   6.212   2.110  0.0052  0.0709  0.2618
   19MOL   C17810294   3.639   6.435   2.183 -0.1648 -0.4416  0.3152
   19MOL   C17910295   3.730   6.469   2.060  0.0966  0.3544 -0.1200
   19MOL   C18010296   3.590   6.557   2.253  0.2684 -0.5593 -0.1304
   19MOL   C18110297   3.510   6.522   2.381  0.7008 -0.8722 -0.2132
   19MOL   H18210298   3.214   6.587   2.493  0.6026  1.8926  2.6884
   19MOL   H18310299   3.150   6.463   2.593 -0.0778 -0.8494 -1.4758
   19MOL   H18410300   3.314   6.303   2.499 -0.8507 -1.5813 -1.6600
   19MOL   H18510301   3.125   6.271   2.436  0.1067  0.0865  0.6827
   19MOL   H18610302   3.343   6.486   2.261  3.5801  0.6769 -2.4606
   19MOL   H18710303   3.526   6.266   2.356  1.7129  2.2305 -1.6568
   19MOL   H18810304   3.380   6.219   2.269 -0.2352 -0.5707  2.4012
   19MOL   H18910305   3.456   6.366   2.074 -1.3368 -1.2316  0.4635
   19MOL   H19010306   3.632   6.198   2.191 -1.4575 -0.5936  0.9975
   19MOL   H19110307   3.702   6.386   2.257 -1.1393 -0.3846  1.1892
   19MOL   H19210308   3.771   6.371   2.034 -0.9212  0.1358 -0.9217
   19MOL   H19310309   3.669   6.521   1.986 -1.1602  0.4690  0.9782
   19MOL   H19410310   3.533   6.622   2.187  1.1083  1.3449  0.9843
   19MOL   H19510311   3.676   6.615   2.287  0.5873  0.3291 -2.3805
   19MOL   H19610312   3.471   6.616   2.420  1.2121 -0.7895  0.0980
   19MOL   H19710313   3.574   6.493   2.464 -0.8313  1.5082  1.8570
   19MOL   O19810314   3.844   6.541   2.100 -0.5346  0.0529  0.0561
   19MOL   C19910315   3.900   6.629   2.001  0.3035  0.2370 -0.2971
   19MOL   C20010316   4.035   6.692   2.048 -0.1019 -0.2627 -0.5450
   19MOL   O20110317   4.120   6.579   2.050  0.2716 -0.8432  0.0202
   19MOL   C20210318   4.087   6.801   1.951  0.2215 -0.4252 -0.4305
   19MOL   C20310319   4.232   6.825   1.939 -0.6228  0.7008 -0.3690
   19MOL   C20410320   4.272   6.933   1.832 -0.3599 -0.1364  0.5440
   19MOL   O20510321   4.411   6.947   1.845  0.2408  0.2409 -0.4992
   19MOL   C20610322   4.205   7.072   1.851  0.3698 -0.6676 -0.2698
   19MOL   C20710323   4.233   7.162   1.730 -0.3876  0.0532 -0.1377
   19MOL   C20810324   4.061   7.050   1.871  0.0251 -0.1810  0.3981
   19MOL   C20910325   4.015   6.933   1.965  0.2788  0.5257  0.2387
   19MOL   H21010326   3.820   6.701   1.987 -0.8268 -0.9299  0.0810
   19MOL   H21110327   3.908   6.574   1.908  2.3892  2.7523 -1.6786
   19MOL   H21210328   4.031   6.745   2.143 -0.1742 -0.8702 -0.2113
   19MOL   H21310329   4.058   6.508   2.054  0.0885 -0.6308  1.1647
   19MOL   H21410330   4.073   6.760   1.851 -1.0009 -0.1024 -0.3965
   19MOL   H21510331   4.270   6.864   2.034  1.0256  0.7835 -1.0380
   19MOL   H21610332   4.287   6.734   1.916 -2.2671 -0.2139 -0.7155
   19MOL   H21710333   4.256   6.893   1.732 -0.3051  0.5561  0.2608
   19MOL   H21810334   4.444   6.860   1.829 -0.1191  0.0468 -0.1819
   19MOL   H21910335   4.245   7.111   1.945 -1.0381  0.3885 -0.0912
   19MOL   H22010336   4.340   7.181   1.716  0.2188 -1.4726  2.2501
   19MOL   H22110337   4.203   7.095   1.650 -2.7097  1.6840 -0.6860
   19MOL   H22210338   4.018   7.024   1.774  0.4838 -2.1368  0.6853
   19MOL   H22310339   4.009   7.140   1.904 -0.4396 -0.3549  0.1424
   19MOL   H22410340   3.911   6.917   1.936  1.2754 -3.5845 -1.3613
   19MOL   H22510341   4.017   6.963   2.070 -0.8198 -3.1990  1.3750
   19MOL   O22610342   4.142   7.272   1.715 -0.0300 -0.1282 -0.2097
   19MOL   C22710343   4.203   7.385   1.784 -0.5089  0.5783  0.3768
   19MOL   C22810344   4.128   7.509   1.723 -0.1113  0.2261 -0.0067
   19MOL   O22910345   4.170   7.627   1.783  0.0766  0.0257  0.0146
   19MOL   C23010346   4.152   7.516   1.565 -0.5116  0.1905  0.0272
   19MOL   C23110347   4.303   7.492   1.526 -0.0056  0.6388  0.1901
   19MOL   C23210348   4.317   7.490   1.370  0.0353  0.3075  0.7260
   19MOL   O23310349   4.451   7.468   1.337 -0.3861  0.3406 -0.6543
   19MOL   C23410350   4.260   7.625   1.305  0.3369 -0.1644  0.0123
   19MOL   C23510351   4.245   7.625   1.157 -0.2288  0.1850 -0.0453
   19MOL   C23610352   4.116   0.022   1.353  0.0977 -0.4773 -0.0870
   19MOL   C23710353   4.098   0.017   1.505  0.3398 -0.0220 -0.8382
   19MOL   H23810354   4.310   7.396   1.767 -0.4537  1.5163  1.2542
   19MOL   H23910355   4.188   7.382   1.892  0.4949 -1.4364  0.4749
   19MOL   H24010356   4.023   7.497   1.747  0.1155 -1.2337  0.2854
   19MOL   H24110357   4.097   0.057   1.787  1.6346  2.0055 -0.1746
   19MOL   H24210358   4.095   7.432   1.527  0.9103 -1.5713  1.7046
   19MOL   H24310359   4.356   7.570   1.581 -2.0530  1.4940  1.0266
   19MOL   H24410360   4.342   7.397   1.562 -2.4363 -0.8245 -0.9176
   19MOL   H24510361   4.263   7.402   1.334 -0.4070  0.1256  1.8032
   19MOL   H24610362   4.491   7.547   1.370  0.1457  0.7373 -2.1847
   19MOL   H24710363   4.328   0.075   1.337 -0.7066  0.3477  0.9585
   19MOL   H24810364   4.337   7.586   1.113  0.5306  2.4225 -0.5094
   19MOL   H24910365   4.163   7.561   1.126 -0.3948  0.2235  0.3163
   19MOL   H25010366   4.049   7.574   1.316  1.2551 -0.7529 -1.6948
   19MOL   H25110367   4.082   0.120   1.320  1.9657  0.4627  0.7069
   19MOL   H25210368   3.993   0.018   1.534  0.3934  1.9398 -0.5943
   19MOL   H25310369   4.152   0.097   1.557  0.9346 -2.8694  3.1412
   19MOL   O25410370   4.236   0.129   1.098  0.1049  0.4865 -0.0250
   19MOL   C25510371   4.248   0.121   0.955 -0.3703  0.3663 -0.0818
   19MOL   C25610372   4.364   0.197   0.894 -0.6255 -0.2651 -0.5522
   19MOL   O25710373   4.481   0.126   0.933  0.5141 -0.0485  0.0735
   19MOL   C25810374   4.378   0.198   0.735  0.8146  0.5579  0.4170
   19MOL   C25910375   4.267   0.289   0.669 -0.0392  0.1728  0.9372
   19MOL   C26010376   4.273   0.274   0.514  0.2515  0.4101  0.1094
   19MOL   O26110377   4.184   0.370   0.462 -0.5030  0.3707  0.3962
   19MOL   C26210378   4.261   0.126   0.459 -0.5935 -0.3558 -0.1959
   19MOL   C26310379   4.270   0.115   0.300  0.2132 -0.0648  0.8271
   19MOL   C26410380   4.372   0.042   0.521  0.3054 -0.0987 -0.5369
   19MOL   C26510381   4.360   0.055   0.673  0.1194  0.5788 -0.3077
   19MOL   H26610382   4.157   0.166   0.915  0.2648  0.5556 -1.3216
   19MOL   H26710383   4.242   0.018   0.922  0.9190  0.6353 -1.1630
   19MOL   H26810384   4.361   0.297   0.937 -1.4697 -0.7322  0.5244
   19MOL   H26910385   4.478   0.129   1.028 -1.7587  0.3138  0.0217
   19MOL   H27010386   4.474   0.243   0.713  1.5634  0.1636  2.7333
   19MOL   H27110387   4.165   0.255   0.685 -0.2128  0.4531  0.4394
   19MOL   H27210388   4.277   0.389   0.712  0.6806  0.0814  0.9916
   19MOL   H27310389   4.370   0.310   0.480  0.1923 -0.1308 -0.6509
   19MOL   H27410390   4.211   0.383   0.372 -1.8812 -0.6206 -0.1875
   19MOL   H27510391   4.166   0.085   0.494 -1.8579  2.7611  0.1833
   19MOL   H27610392   4.203   0.185   0.251  0.2888 -1.5097 -1.4100
   19MOL   H27710393   4.371   0.153   0.286  0.4724 -1.8084 -2.4347
   19MOL   H27810394   4.475   0.072   0.497  0.1843 -1.5349 -2.9651
   19MOL   H27910395   4.361   7.571   0.481 -2.0892  0.3055 -0.9678
   19MOL   H28010396   4.439   7.621   0.714 -1.0837  0.8482  2.5414
   19MOL   H28110397   4.260   0.022   0.701 -0.5925  2.0575 -1.0314
   19MOL   O28210398   4.253   7.610   0.262  0.2667 -0.3508 -0.4549
   19MOL   C28310399   4.156   7.590   0.158 -0.1662  0.0263  0.3044
   19MOL   C28410400   4.227   7.488   0.055 -0.4765 -0.2755  0.1976
   19MOL   O28510401   4.148   7.502   7.565  0.0430  0.3894  0.1313
   19MOL   C28610402   4.371   7.521   0.023 -0.2655  0.1993 -0.0106
   19MOL   C28710403   4.386   0.036   7.597  0.8646  0.3141 -0.6875
   19MOL   C28810404   4.528   0.072   7.565 -1.0747  0.8073  0.4208
   19MOL   O28910405   4.527   0.198   7.501 -0.9465  0.5145  0.4479
   19MOL   C29010406   4.575   7.594   7.459  0.7427 -0.2426  0.5304
   19MOL   C29110407   4.707   7.627   7.392 -0.5714  0.4893  0.3737
   19MOL   C29210408   4.587   7.454   7.519  0.2018 -0.2104 -0.6412
   19MOL   C29310409   4.442   7.413   7.567  0.3141  0.1512  0.0317
   19MOL   H29410410   4.134   0.055   0.109 -1.5250 -0.0983  0.6493
   19MOL   H29510411   4.058   7.562   0.198  0.5212  0.1905  2.1533
   19MOL   H29610412   4.220   7.386   0.091 -1.6029 -0.3454 -0.1839
   19MOL   H29710413   4.062   7.467   7.583 -0.1740  1.5684  1.5466
   19MOL   H29810414   4.432   7.513   0.113 -1.7074  1.4970  1.0935
   19MOL   H29910415   4.328   0.029   7.505  0.3977 -0.8177 -0.3096
   19MOL   H30010416   4.348   0.108   0.040  2.2598  1.1924 -0.8045
   19MOL   H30110417   4.589   0.075   0.025 -0.0424  1.3953 -0.2928
   19MOL   H30210418   4.610   0.236   7.524  1.7187 -3.5797 -1.7095
   19MOL   H30310419   4.506   7.580   7.375 -0.2554  0.6989  1.1812
   19MOL   H30410420   4.719   7.570   7.300  0.8883  1.6175 -0.1468
   19MOL   H30510421   4.711   0.100   7.356  1.9268 -1.0173 -4.0829
   19MOL   H30610422   4.660   7.448   7.599 -1.7128 -1.5454  1.0581
   19MOL   H30710423   4.611   7.377   7.445 -2.0926  1.1914 -2.9136
   19MOL   H30810424   4.453   7.320   7.623 -0.1829  0.6730  0.9934
   19MOL   H30910425   4.384   7.379   7.481  2.0219  0.6587 -1.3527
   19MOL   O31010426   4.823   7.611   7.474  0.5523  0.3747 -0.0767
   19MOL   C31110427   4.933   0.035   7.412 -1.2190 -0.0528 -0.2474
   19MOL   C31210428   5.049   0.047   7.514  0.7517  0.0006  0.5571
   19MOL   O31310429   5.052   7.555   7.578  0.2172 -0.2686 -0.2517
   19MOL   C31410430   5.193   0.080   7.464 -0.0591 -0.3284  0.2131
   19MOL   C31510431   5.207   0.213   7.387  0.4835  0.0382  0.1746
   19MOL   C31610432   5.340   0.239   7.310 -0.1016 -0.7019  0.2905
   19MOL   O31710433   5.318   0.353   7.226  0.0698  0.0878  0.3665
   19MOL   C31810434   5.382   0.118   7.227  0.5684  0.4083  0.5214
   19MOL   C31910435   5.518   0.147   7.161 -0.3325  0.0154  0.5341
   19MOL   C32010436   5.390   7.622   7.329 -0.2500 -0.4054  0.2088
   19MOL   C32110437   5.256   7.592   7.384 -0.1660 -0.2554  0.4769
   19MOL   H32210438   4.924   0.139   7.379  1.6167  0.4513  0.4288
   19MOL   H32310439   4.957   7.607   7.323 -0.8980 -0.9891  0.4307
   19MOL   H32410440   5.012   0.130   7.575 -1.3064 -0.0845 -0.5355
   19MOL   H32510441   4.961   7.541   7.597 -0.0351  0.7501 -0.6686
   19MOL   H32610442   5.260   0.095   7.549  0.6680  2.6016 -0.8053
   19MOL   H32710443   5.129   0.214   7.311  1.2472 -0.4628 -0.6262
   19MOL   H32810444   5.173   0.294   7.452  1.5048  1.4869 -1.0664
   19MOL   H32910445   5.422   0.263   7.378  1.0445  0.0334 -1.3110
   19MOL   H33010446   5.400   0.365   7.180  1.4514 -0.0042  2.7318
   19MOL   H33110447   5.315   0.081   7.149  0.3693  0.8847  0.4663
   19MOL   H33210448   5.510   0.223   7.083  2.5606  1.0090  1.1308
   19MOL   H33310449   5.589   0.187   7.234 -0.1514  1.2271 -0.2939
   19MOL   H33410450   5.452   0.011   7.416  0.8785  0.3367 -0.7293
   19MOL   H33510451   5.431   7.529   7.290  0.5652 -0.4174  1.0799
   19MOL   H33610452   5.267   7.506   7.450 -0.0718 -1.3536 -0.9443
   19MOL   H33710453   5.194   7.560   7.301  1.8474 -1.1609 -0.7273
   19MOL   O33810454   5.572   0.021   7.129 -0.5158 -0.1596 -0.3071
   19MOL   C33910455   5.600   0.017   6.986 -0.3079  0.4071 -0.1472
   19MOL   C34010456   5.616   7.499   6.953 -0.4788  0.3221 -0.3790
   19MOL   O34110457   5.498   7.426   6.990 -0.4388  0.0911  0.0473
   19MOL   C34210458   5.660   7.455   6.815  0.0141  0.3719  0.1012
   19MOL   C34310459   5.566   7.476   6.690  0.7196  0.1530 -0.0094
   19MOL   C34410460   5.625   7.430   6.563 -0.1878 -0.1743 -0.2295
   19MOL   O34510461   5.549   7.465   6.450  0.0641 -0.1924  0.8397
   19MOL   C34610462   5.650   7.283   6.576  0.1483 -0.5434 -0.5255
   19MOL   C34710463   5.727   7.225   6.455 -0.6519  0.3447  0.6834
   19MOL   C34810464   5.734   7.242   6.700 -0.5862  0.1494 -0.4413
   19MOL   C34910465   5.681   7.297   6.830 -0.6007 -0.2953  0.1479
   19MOL   H35010466   5.695   0.068   6.972  0.2734 -1.5142 -3.4343
   19MOL   H35110467   5.518   0.059   6.929 -1.0558 -1.6295 -0.6151
   19MOL   H35210468   5.681   7.463   7.033 -1.7710 -1.9323 -0.2875
   19MOL   H35310469   5.498   7.455   7.080  1.1295 -2.6040  0.9755
   19MOL   H35410470   5.756   7.500   6.791  0.3667 -1.1240 -1.3541
   19MOL   H35510471   5.471   7.426   6.711  0.7170 -1.4849 -3.5906
   19MOL   H35610472   5.547   7.583   6.682 -1.5461 -0.2608 -0.4561
   19MOL   H35710473   5.718   7.485   6.545 -0.7605  0.4142 -1.4579
   19MOL   H35810474   5.601   7.508   6.384 -1.4895 -0.9327 -0.9220
   19MOL   H35910475   5.555   7.231   6.585  0.2075 -0.5360  0.1303
   19MOL   H36010476   5.721   7.116   6.446  2.7182  0.0528  1.3694
   19MOL   H36110477   5.685   7.263   6.362 -0.0825  0.2018  0.3642
   19MOL   H36210478   5.837   7.277   6.690 -0.2488  0.0080  2.1525
   19MOL   H36310479   5.737   7.133   6.706 -3.0424  0.1052  0.4350
   19MOL   H36410480   5.751   7.265   6.907 -0.9189 -1.6467 -0.1172
   19MOL   H36510481   5.590   7.246   6.860 -0.4639  1.1013  3.0964
   19MOL   O36610482   5.871   7.244   6.466  0.8473 -0.4269  0.2507
   19MOL   C36710483   5.913   7.354   6.390 -0.9718 -0.4205  0.2349
   19MOL   C36810484   6.057   7.387   6.419 -0.4687  0.2037 -0.5950
   19MOL   O36910485   6.135   7.281   6.374 -0.8925  0.1050 -0.2059
   19MOL   C37010486   6.107   7.528   6.367 -0.1723 -0.5156 -0.0722
   19MOL   C37110487   6.074   7.556   6.222 -0.2233  0.0883 -0.0273
   19MOL   C37210488   6.125   0.067   6.174  0.2854  0.2161 -0.1959
   19MOL   O37310489   6.095   0.069   6.035  0.0491  0.0942 -0.3040
   19MOL   C37410490   6.270   0.088   6.203  0.1037  0.4065  0.1364
   19MOL   C37510491   6.312   0.227   6.160 -0.1639 -0.4784  0.4514
   19MOL   C37610492   6.301   0.058   6.349 -0.5233 -0.0830  0.7068
   19MOL   C37710493   6.264   7.540   6.382  1.1489  0.0497 -0.2866
   19MOL   H37810494   5.858   7.446   6.412 -2.4572 -0.9559 -1.1415
   19MOL   H37910495   5.886   7.330   6.287 -1.6033 -0.6372  0.4437
   19MOL   H38010496   6.086   7.382   6.524 -0.2719  1.5414 -0.5785
   19MOL   H38110497   6.101   7.206   6.421  0.2686 -0.9261 -0.9607
   19MOL   H38210498   6.062   7.593   6.442  1.5332 -0.9351  1.3491
   19MOL   H38310499   6.111   7.473   6.163 -0.3491 -0.1348  0.2081
   19MOL   H38410500   5.966   7.543   6.213 -0.2119  0.4891 -0.7652
   19MOL   H38510501   6.063   0.143   6.220  0.2935  1.5995 -2.3968
   19MOL   H38610502   6.158   0.126   5.993 -0.7102  0.1943 -1.3259
   19MOL   H38710503   6.324   0.009   6.150 -0.5958 -0.6461  0.9689
   19MOL   H38810504   6.238   0.301   6.192  1.1630  1.6912 -1.3329
   19MOL   H38910505   6.412   0.243   6.202  0.1684  2.1044 -1.2198
   19MOL   H39010506   6.230   0.124   6.399 -1.4303 -0.5619  0.0763
   19MOL   H39110507   6.404   0.081   6.374 -0.3906 -0.2843  0.3340
   19MOL   H39210508   6.306   7.526   6.482  0.7766  1.2989  0.0567
   19MOL   H39310509   6.306   7.465   6.315 -2.9140 -1.5017 -1.2677
   19MOL   O39410510   6.316   0.233   6.020 -0.6069 -0.5828  0.3208
   19MOL   C39510511   6.397   0.334   5.967  0.0327 -0.0912 -0.6307
   19MOL   C39610512   6.342   0.354   5.820  0.1149 -0.1739  0.3918
   19MOL   O39710513   6.405   0.470   5.765  0.8634  0.0447 -0.1829
   19MOL   C39810514   6.370   0.235   5.720  0.2775  0.2377 -0.7106
   19MOL   C39910515   6.273   0.113   5.729  0.1233 -0.1975  1.4800
   19MOL   C40010516   6.306   0.008   5.632  0.5284  0.4483 -0.2972
   19MOL   O40110517   6.208   7.527   5.646 -0.3192 -0.2709  0.1908
   19MOL   C40210518   6.451   7.585   5.635  0.0779  0.2843  0.1919
   19MOL   C40310519   6.472   7.487   5.516 -0.2949  0.2782  0.3642
   19MOL   C40410520   6.548   0.070   5.621 -0.0506  0.3317  0.8896
   19MOL   C40510521   6.523   0.188   5.715  0.1747  0.1776  0.2778
   19MOL   H40610522   6.503   0.310   5.964  0.3975  1.4096  0.0867
   19MOL   H40710523   6.396   0.424   6.029 -0.6144 -0.7523  0.3357
   19MOL   H40810524   6.235   0.369   5.812 -0.3286 -3.6221 -0.4328
   19MOL   H40910525   6.498   0.457   5.757  1.0691  1.1587  0.3749
   19MOL   H41010526   6.346   0.272   5.620  1.3989  2.4719 -0.1721
   19MOL   H41110527   6.286   0.071   5.829  0.5055  0.4145  1.6911
   19MOL   H41210528   6.168   0.138   5.720  0.0544 -0.3188  1.9056
   19MOL   H41310529   6.292   0.047   5.531  3.1512  2.3075  0.0039
   19MOL   H41410530   6.218   7.483   5.729  2.1342 -0.8305 -0.3504
   19MOL   H41510531   6.470   7.526   5.725 -1.1261 -1.7653 -0.8543
   19MOL   H41610532   6.395   7.410   5.518  0.0801 -0.1145 -0.3883
   19MOL   H41710533   6.457   7.521   5.414 -1.7115 -1.7606 -0.1378
   19MOL   H41810534   6.545   0.109   5.519 -1.0827 -1.1424  0.3384
   19MOL   H41910535   6.650   0.033   5.634  0.2744 -0.0792 -2.2847
   19MOL   H42010536   6.582   0.269   5.670 -1.9111  0.9806 -1.0732
   19MOL   H42110537   6.566   0.155   5.809  2.0133  1.9543  0.1038
   19MOL   O42210538   6.596   7.430   5.546 -0.5637  0.2723 -0.4741
   19MOL   C42310539   6.630   7.309   5.483  0.2240 -0.1266 -0.7035
   19MOL   C42410540   6.761   7.267   5.555 -0.1829  0.4184 -0.0623
   19MOL   O42510541   6.777   7.129   5.522 -0.5350  0.2550 -0.1990
   19MOL   C42610542   6.898   7.331   5.512  0.2408 -0.4334 -0.4741
   19MOL   C42710543   6.903   7.478   5.555  0.0391  1.1789  0.3431
   19MOL   C42810544   7.023   7.547   5.508  0.1913 -0.1522  0.0521
   19MOL   O42910545   6.993   0.052   5.545  0.2726 -0.2937 -0.2375
   19MOL   C43010546   7.052   7.537   5.355  0.4582 -0.3725  0.3552
   19MOL   C43110547   7.193   7.589   5.313 -0.7090 -0.1579  0.2351
   19MOL   C43210548   7.047   7.391   5.304  0.4592 -0.2606  0.3461
   19MOL   C43310549   6.917   7.315   5.362 -0.0477 -0.2616  0.1990
   19MOL   H43410550   6.630   7.329   5.376 -0.3806 -0.1138 -0.7036
   19MOL   H43510551   6.547   7.240   5.496  1.3285 -1.2862  0.3802
   19MOL   H43610552   6.751   7.252   5.662 -2.1795  1.1440 -0.1260
   19MOL   H43710553   6.780   7.076   5.600 -1.2804 -2.2835 -1.8118
   19MOL   H43810554   6.984   7.286   5.562 -0.0131 -0.7344 -0.3077
   19MOL   H43910555   6.812   7.524   5.516 -1.5094 -0.8281  1.5535
   19MOL   H44010556   6.893   7.486   5.663  2.7405  1.0152  0.6500
   19MOL   H44110557   7.103   7.500   5.564 -1.2780 -2.5783  0.1876
   19MOL   H44210558   7.075   0.100   5.549 -0.0134  0.0883  1.6269
   19MOL   H44310559   6.977   7.593   5.301  1.4573 -1.3462 -2.1514
   19MOL   H44410560   7.221   0.038   5.383 -1.9105  0.2072  0.3276
   19MOL   H44510561   7.264   7.507   5.322  2.4781  2.7475  2.7770
   19MOL   H44610562   7.143   7.341   5.314  0.5567 -0.3424 -0.9460
   19MOL   H44710563   7.032   7.424   5.202  0.3896 -3.2482 -0.6511
   19MOL   H44810564   6.915   7.208   5.343 -1.6723 -0.1153 -0.5360
   19MOL   H44910565   6.840   7.378   5.317  0.5880  0.3012 -0.1287
   19MOL   O45010566   7.190   0.011   5.178 -0.4084  0.3242  0.3509
   19MOL   C45110567   7.310   0.084   5.152  0.1464 -0.2024  0.8321
   19MOL   C45210568   7.315   0.145   5.011 -0.6824  0.5647  0.1965
   19MOL   O45310569   7.222   0.245   4.994  0.3028 -0.0059  0.0980
   19MOL   C45410570   7.460   0.192   4.975 -0.4881  0.2409  0.3148
   19MOL   C45510571   7.507   0.314   5.069 -0.4056 -0.2377 -0.7899
   19MOL   C45610572   0.022   0.347   5.024  0.0471  0.3417  0.0031
   19MOL   O45710573   0.055   0.463   5.097  0.2348 -0.4835  0.1305
   19MOL   C45810574   0.038   0.380   4.868  0.5834  0.6640 -0.5581
   19MOL   C45910575   0.185   0.396   4.833 -0.0403  0.7341  0.5064
   19MOL   C46010576   7.605   0.258   4.783 -0.4566  0.1581 -0.0717
   19MOL   C46110577   7.466   0.230   4.826 -0.2789  0.3155 -0.3101
   19MOL   H46210578   7.397   0.021   5.167  0.3732  0.1758  1.1018
   19MOL   H46310579   7.322   0.155   5.234 -1.7364  0.5348  0.4982
   19MOL   H46410580   7.288   0.067   4.940  0.9934 -1.2449  1.5160
   19MOL   H46510581   7.135   0.210   4.994 -0.5109  1.9242 -0.1396
   19MOL   H46610582   7.531   0.111   4.991 -0.7934  0.1279  1.1482
   19MOL   H46710583   7.437   0.396   5.059 -0.3634 -0.1718 -0.5484
   19MOL   H46810584   7.514   0.280   5.172 -1.5991  2.4720  0.2177
   19MOL   H46910585   0.086   0.260   5.038 -1.1470 -0.3126  1.5613
   19MOL   H47010586   7.626   0.532   5.069  1.0751  0.3953  0.4982
   19MOL   H47110587   7.604   0.463   4.836  1.3211  1.8987  1.1350
   19MOL   H47210588   0.209   0.489   4.885 -0.3326  1.3255 -0.3946
   19MOL   H47310589   0.251   0.318   4.871  0.3440  0.8557  0.0909
   19MOL   H47410590   0.037   0.168   4.790 -2.2671 -1.1935 -1.2675
   19MOL   H47510591   7.611   0.295   4.681 -2.5203  0.9266  0.0610
   19MOL   H47610592   7.406   0.167   4.760  0.9415 -1.5218  0.3150
   19MOL   H47710593   7.420   0.329   4.824  0.8220  0.8746  0.9142
   19MOL   O47810594   0.216   0.416   4.695  0.1521 -0.1949  0.2273
   19MOL   C47910595   0.350   0.459   4.677 -0.4939  0.1398 -0.0141
   19MOL   C48010596   0.436   0.333   4.636 -0.2619  0.3925 -0.0303
   19MOL   O48110597   0.442   0.235   4.736 -0.5923 -0.2504  0.5365
   19MOL   C48210598   0.403   0.272   4.501 -0.1725  0.2677  0.5217
   19MOL   C48310599   0.276   0.179   4.493 -0.2272  0.5085 -0.1911
   19MOL   C48410600   0.248   0.135   4.348  1.0162 -0.3656 -0.0676
   19MOL   O48510601   0.145   0.038   4.355  0.3397 -0.2276 -0.1034
   19MOL   C48610602   0.364   0.076   4.273  0.2326  0.0729  0.5612
   19MOL   C48710603   0.346   0.058   4.124  0.2399 -0.4415  0.2284
   19MOL   C48810604   0.493   0.166   4.291  0.2522 -0.1758  0.3843
   19MOL   C48910605   0.526   0.214   4.439  0.3449  0.8928  0.0428
   19MOL   H49010606   0.391   0.503   4.769  1.6875 -1.7431 -0.0212
   19MOL   H49110607   0.360   0.535   4.600  2.6059 -1.4685 -1.2845
   19MOL   H49210608   0.537   0.374   4.632  0.2679 -0.8312  0.5031
   19MOL   H49310609   0.367   0.178   4.725 -1.0766  0.5382 -0.2351
   19MOL   H49410610   0.373   0.358   4.441  1.6581 -1.3619 -2.8958
   19MOL   H49510611   0.295   0.090   4.552  0.8485  0.1286 -1.1098
   19MOL   H49610612   0.198   0.246   4.530  1.5063  1.9836  0.8660
   19MOL   H49710613   0.212   0.217   4.286  1.1675 -2.1538 -2.6401
   19MOL   H49810614   0.090   0.044   4.432 -0.8487 -1.9389 -0.7843
   19MOL   H49910615   0.385   7.607   4.315 -1.2709  0.0741  1.3370
   19MOL   H50010616   0.273   7.607   4.123  0.1494 -0.3665  0.6278
   19MOL   H50110617   0.297   0.148   4.088  0.7173 -0.3175 -0.1181
   19MOL   H50210618   0.483   0.263   4.243  2.9737 -1.2918 -2.6412
   19MOL   H50310619   0.582   0.110   4.261 -0.4821 -0.1790 -1.8720
   19MOL   H50410620   0.609   0.284   4.434  1.0574  0.1458  1.2522
   19MOL   H50510621   0.546   0.128   4.503  2.1758  1.5827  0.4196
   19MOL   O50610622   0.466   0.013   4.064  0.4610 -0.3495  0.0239
   19MOL   C50710623   0.434   7.608   3.931 -0.1163 -0.9282  0.6527
   19MOL   C50810624   0.553   7.531   3.871 -0.6903  0.1827 -0.2619
   19MOL   O50910625   0.541   7.398   3.908 -0.4371  0.3335  0.0954
   19MOL   C51010626   0.556   7.544   3.719  0.2497  0.3656  0.0387
   19MOL   C51110627   0.427   7.498   3.651  0.3383 -0.1066 -0.4833
   19MOL   C51210628   0.422   7.526   3.498  0.2383 -0.2039  0.0876
   19MOL   O51310629   0.313   7.450   3.442 -0.3704  0.3409 -0.1657
   19MOL   C51410630   0.554   7.489   3.421 -0.0340 -0.4434  0.3519
   19MOL   C51510631   0.559   7.543   3.274 -0.5617  0.3397 -0.4844
   19MOL   C51610632   0.681   7.537   3.497 -0.4114  0.3389 -0.1333
   19MOL   C51710633   0.684   7.495   3.645 -0.4074 -0.9553 -0.5398
   19MOL   H51810634   0.413   0.070   3.875 -0.0768 -0.3450  1.5797
   19MOL   H51910635   0.342   7.551   3.919 -0.5227 -0.2414  0.4769
   19MOL   H52010636   0.649   7.567   3.907  0.0770 -2.2952  0.2833
   19MOL   H52110637   0.550   7.392   4.002  2.1613  1.8842 -0.0229
   19MOL   H52210638   0.548   0.023   3.707  0.2038  0.2436 -1.0297
   19MOL   H52310639   0.411   7.396   3.686 -1.2839  0.0623 -0.6972
   19MOL   H52410640   0.346   7.551   3.701  0.1030 -0.8862 -0.0325
   19MOL   H52510641   0.407   0.002   3.473 -2.3548 -0.6001 -0.1665
   19MOL   H52610642   0.231   7.490   3.469 -0.5138 -0.1055  0.0743
   19MOL   H52710643   0.554   7.380   3.424  0.3807 -0.4116  3.3630
   19MOL   H52810644   0.663   7.528   3.245  0.5911  3.0081  2.0363
   19MOL   H52910645   0.495   7.482   3.210 -0.2417 -1.0760  0.5237
   19MOL   H53010646   0.701   0.014   3.487 -3.3289  1.0982  1.5517
   19MOL   H53110647   0.759   7.491   3.436  0.4176  1.3949  0.1126
   19MOL   H53210648   0.777   7.527   3.692 -0.0715 -0.0335 -1.7854
   19MOL   H53310649   0.692   7.389   3.666 -0.2047 -1.0286 -0.9712
   19MOL   O53410650   0.533   0.057   3.261 -0.0273 -0.2433 -0.6635
   19MOL   C53510651   0.483   0.102   3.135  0.2070  0.3742  0.1873
   19MOL   C53610652   0.338   0.101   3.150 -0.3391  0.5298 -0.1594
   19MOL   O53710653   0.320   0.205   3.241 -0.4605  0.3681 -0.3834
   19MOL   C53810654   0.257   0.123   3.024 -0.3779  0.1087  0.5220
   19MOL   C53910655   0.252   0.001   2.937  0.0612 -0.2475 -0.5868
   19MOL   C54010656   0.156   0.032   2.816 -0.0181  0.1476  0.4453
   19MOL   O54110657   0.147   7.550   2.727 -0.1197  0.0671  0.0682
   19MOL   C54210658   0.198   0.151   2.739 -0.4851  0.6904 -0.3266
   19MOL   C54310659   0.106   0.196   2.622 -0.9508  0.4843 -0.1585
   19MOL   C54410660   0.203   0.270   2.833  0.6215  0.5396  0.0537
   19MOL   C54510661   0.302   0.247   2.947  0.0520  0.2415 -0.1366
   19MOL   H54610662   0.530   0.040   3.058  0.1092  1.6014 -0.8708
   19MOL   H54710663   0.522   0.203   3.130 -0.9215  0.7965 -0.5013
   19MOL   H54810664   0.305   0.007   3.196  1.0446 -0.0127 -0.2452
   19MOL   H54910665   0.375   0.169   3.308 -0.3636  0.8665 -0.1878
   19MOL   H55010666   0.152   0.141   3.047 -0.0968 -0.9160  2.7126
   19MOL   H55110667   0.349   7.611   2.890  0.3026 -0.4739 -0.0047
   19MOL   H55210668   0.221   7.545   2.997 -3.1224  1.2553  0.0282
   19MOL   H55310669   0.054   0.060   2.843  0.3952  1.5501  0.5734
   19MOL   H55410670   0.060   7.516   2.740  0.4070 -1.4863 -0.2445
   19MOL   H55510671   0.303   0.139   2.715 -0.0418  0.1856  1.7728
   19MOL   H55610672   0.014   0.239   2.662 -0.8433  0.0670  0.5520
   19MOL   H55710673   0.149   0.272   2.558  2.0749 -2.5864 -1.9689
   19MOL   H55810674   0.109   0.310   2.873  0.8452 -1.1857  2.4284
   19MOL   H55910675   0.245   0.358   2.784 -0.7702  0.3154 -1.5627
   19MOL   H56010676   0.300   0.339   3.004 -1.2821 -0.2016  0.5724
   19MOL   H56110677   0.399   0.219   2.906 -0.4465 -1.6268 -0.1097
   19MOL   H56210678   0.095   0.108   2.559 -1.1613  1.2544 -1.2090
   20MOL     O110679   0.720   0.125   1.072  0.5299 -0.6992 -0.4447
   20MOL     C210680   0.680   0.188   1.193  0.0625 -0.0835 -0.2315
   20MOL     C310681   0.660   0.092   1.314 -0.0818  0.1002  0.6433
   20MOL     O410682   0.769   0.004   1.302  0.0098  0.2618  0.0243
   20MOL     C510683   0.665   0.156   1.461 -0.1305  0.0689  0.1378
   20MOL     C610684   0.799   0.220   1.496  0.2735 -0.2026  0.5187
   20MOL     C710685   0.900   0.140   1.578 -0.0036  0.9945  0.2900
   20MOL     O810686   0.957   0.052   1.478  0.0974  0.2073  0.0580
   20MOL     C910687   0.835   0.058   1.691  0.1997 -0.6581 -0.1957
   20MOL    C1010688   0.796   0.153   1.803  0.3159 -0.2120 -0.2459
   20MOL    C1110689   0.709   7.604   1.635  0.1796  0.2580  0.2099
   20MOL    C1210690   0.608   0.059   1.566  0.3316  0.6027 -0.5854
   20MOL    H1310691   0.586   0.241   1.178  1.2401  2.2333  0.1970
   20MOL    H1410692   0.760   0.255   1.225  0.9745 -1.2864  0.0524
   20MOL    H1510693   0.566   0.038   1.304 -0.7810  1.4296 -0.2079
   20MOL    H1610694   0.776   7.607   1.212  2.4047 -1.4541  0.6816
   20MOL    H1710695   0.588   0.233   1.453  0.1730  0.3295 -0.3247
   20MOL    H1810696   0.846   0.260   1.406 -0.2788 -0.3245  0.1793
   20MOL    H1910697   0.774   0.304   1.561 -0.6730 -0.0400 -0.0595
   20MOL    H2010698   0.976   0.205   1.620  2.7794 -0.0778 -2.8641
   20MOL    H2110699   0.883   0.016   1.433 -0.5544  0.1263  1.1658
   20MOL    H2210700   0.905   7.612   1.727  0.7401  0.4477  1.1356
   20MOL    H2310701   0.733   0.231   1.759  0.1522 -0.1126  0.1708
   20MOL    H2410702   0.733   0.104   1.877  1.0271  1.7394  1.7004
   20MOL    H2510703   0.662   7.551   1.718 -1.7744  0.9989 -0.4032
   20MOL    H2610704   0.752   7.524   1.575 -1.2029 -0.9194  0.7863
   20MOL    H2710705   0.548   0.117   1.635 -3.0789 -3.2161 -0.1102
   20MOL    H2810706   0.537   7.620   1.520 -1.3234  2.1787 -0.3992
   20MOL    H2910707   0.671   0.044   1.070 -0.8042  0.0492  0.9831
   20MOL    O3010708   0.913   0.203   1.864 -0.3854 -0.1779 -0.4147
   20MOL    C3110709   0.891   0.294   1.967 -0.1031 -0.4118 -0.4636
   20MOL    C3210710   0.922   0.240   2.106 -0.1259 -0.0421  0.3052
   20MOL    O3310711   0.930   0.340   2.197 -0.3107 -0.3690 -0.0540
   20MOL    C3410712   0.830   0.126   2.160 -0.0247  0.9708  0.5993
   20MOL    C3510713   0.691   0.179   2.177 -0.8436  0.3180 -0.0285
   20MOL    C3610714   0.597   0.072   2.233 -0.0360  0.0949  0.0189
   20MOL    O3710715   0.479   0.144   2.252  0.6079  0.1365  0.1471
   20MOL    C3810716   0.643   0.014   2.356 -0.2581 -0.1322  0.8638
   20MOL    C3910717   0.555   7.519   2.386 -0.4732 -0.1635 -0.4180
   20MOL    C4010718   0.791   7.591   2.335 -0.1769 -0.2263  0.2173
   20MOL    C4110719   0.878   0.080   2.293  0.1342 -0.0242  0.0179
   20MOL    H4210720   0.787   0.329   1.968  0.0322  0.0264 -1.4367
   20MOL    H4310721   0.960   0.373   1.936  0.1076  0.3035  1.7665
   20MOL    H4410722   1.024   0.202   2.094  0.8171  2.5161 -0.0056
   20MOL    H4510723   0.852   0.393   2.193  0.2823  0.5311  0.0322
   20MOL    H4610724   0.827   0.042   2.090  0.6258  0.5530  1.0802
   20MOL    H4710725   0.691   0.257   2.254  0.5792 -0.0026  0.3087
   20MOL    H4810726   0.641   0.231   2.095 -0.3878 -1.5604 -1.5231
   20MOL    H4910727   0.583   7.627   2.155  1.0199 -0.8239  0.6912
   20MOL    H5010728   0.443   0.165   2.168  2.4499 -1.3396 -1.0537
   20MOL    H5110729   0.631   0.087   2.436 -3.2784 -1.1176  1.3855
   20MOL    H5210730   0.447   7.533   2.377 -0.4192  0.1133 -0.6334
   20MOL    H5310731   0.567   7.448   2.304  2.4111  1.3651 -1.3737
   20MOL    H5410732   0.799   7.508   2.264 -2.0115 -0.0078 -0.2620
   20MOL    H5510733   0.830   7.539   2.422  0.9497 -0.8867 -0.6728
   20MOL    H5610734   0.980   0.044   2.288  0.4164  1.0736 -3.2902
   20MOL    H5710735   0.871   0.167   2.359 -1.7001 -0.0331 -0.1173
   20MOL    O5810736   0.601   7.476   2.517  0.2092 -0.0651  0.1167
   20MOL    C5910737   0.515   7.396   2.598  0.4377 -0.1889  0.1130
   20MOL    C6010738   0.512   7.250   2.547  0.3644  0.7458 -0.0479
   20MOL    O6110739   0.645   7.193   2.574 -0.1136 -0.4601 -0.4580
   20MOL    C6210740   0.416   7.162   2.624 -0.4845  0.2019 -0.1250
   20MOL    C6310741   0.424   7.013   2.572 -0.2551 -0.1371 -0.0838
   20MOL    C6410742   0.333   6.908   2.630 -0.4598 -0.2012  0.1335
   20MOL    O6510743   0.358   6.790   2.548  0.3131 -0.3755 -0.0154
   20MOL    C6610744   0.188   6.957   2.612 -0.0512 -0.2970  0.0020
   20MOL    C6710745   0.094   6.861   2.688 -0.2699 -0.4502 -0.1201
   20MOL    C6810746   0.174   7.100   2.676  0.5542 -0.0316 -0.0371
   20MOL    C6910747   0.276   7.201   2.618  0.3669 -0.7310 -0.0941
   20MOL    H7010748   0.413   7.431   2.584  0.8812  0.7532 -0.8691
   20MOL    H7110749   0.530   7.402   2.706 -0.1219  0.2553  0.1655
   20MOL    H7210750   0.479   7.249   2.443  0.1122  2.0683  0.0087
   20MOL    H7310751   0.698   7.266   2.545 -1.3634 -0.2154 -2.2319
   20MOL    H7410752   0.438   7.152   2.730  0.2419  0.7969 -0.2148
   20MOL    H7510753   0.401   7.018   2.466 -1.0489 -0.2225  0.0840
   20MOL    H7610754   0.528   6.981   2.575 -0.1047  0.4536  1.2062
   20MOL    H7710755   0.361   6.880   2.731 -0.8734 -3.3254 -0.5387
   20MOL    H7810756   0.305   6.717   2.574  3.8548 -2.7795  0.9041
   20MOL    H7910757   0.160   6.969   2.508 -0.5036  2.6837  0.4209
   20MOL    H8010758   0.100   6.766   2.636 -2.1171 -1.0190  0.6654
   20MOL    H8110759   0.130   6.850   2.790 -1.7654 -2.0003  0.2590
   20MOL    H8210760   0.197   7.092   2.783 -1.7610  1.2042  0.5948
   20MOL    H8310761   0.071   7.137   2.675  0.2605 -0.7340  1.7170
   20MOL    H8410762   0.267   7.286   2.686 -0.8370 -0.9320  0.0101
   20MOL    H8510763   0.252   7.233   2.516  2.7693 -1.9626 -1.0880
   20MOL    O8610764   7.601   6.925   2.687  0.5813 -0.3953  0.2514
   20MOL    C8710765   7.518   6.887   2.576  0.4067 -0.1889 -0.5220
   20MOL    C8810766   7.375   6.967   2.581  0.0296  0.1078 -0.4277
   20MOL    O8910767   7.426   7.100   2.580  0.7483  0.3819 -0.1593
   20MOL    C9010768   7.301   6.918   2.452  0.0841 -0.7166  0.4902
   20MOL    C9110769   7.151   6.966   2.463 -0.9267 -0.4233 -0.0654
   20MOL    C9210770   7.040   6.904   2.365 -0.0542 -0.2561  0.1277
   20MOL    O9310771   6.908   6.922   2.407  0.1967 -0.6715  0.3575
   20MOL    C9410772   7.058   6.754   2.336 -0.1483  0.1956  0.3501
   20MOL    C9510773   6.970   6.709   2.223 -0.7171 -0.1237 -0.4675
   20MOL    C9610774   7.204   6.723   2.308 -0.0293 -0.0460  0.6181
   20MOL    C9710775   7.296   6.758   2.419 -0.3412 -0.2822 -0.4432
   20MOL    H9810776   7.508   6.779   2.582  0.6539 -0.1987 -0.2963
   20MOL    H9910777   7.568   6.907   2.481  0.0024 -1.0886 -0.9297
   20MOL   H10010778   7.330   6.942   2.677  1.6204  0.7375  0.5074
   20MOL   H10110779   7.470   7.105   2.663  1.1664  0.1221 -0.3607
   20MOL   H10210780   7.343   6.960   2.361  0.4329 -0.7227  0.6459
   20MOL   H10310781   7.134   6.933   2.566  1.1124  2.2988  1.2168
   20MOL   H10410782   7.150   7.073   2.482 -1.1468 -0.3307 -0.5850
   20MOL   H10510783   7.056   6.954   2.270 -0.0616  1.1839  0.8753
   20MOL   H10610784   6.898   7.015   2.415 -1.5514 -0.9445  1.7902
   20MOL   H10710785   7.019   6.705   2.426  1.7309 -2.8388 -0.4333
   20MOL   H10810786   6.868   6.725   2.258 -0.7228  2.0869 -1.3695
   20MOL   H10910787   6.996   6.770   2.136 -2.6736  0.5249 -0.6179
   20MOL   H11010788   7.245   6.770   2.219  0.6641 -2.1199 -0.1893
   20MOL   H11110789   7.219   6.620   2.275 -1.3354  0.6120 -2.1029
   20MOL   H11210790   7.399   6.731   2.398  0.1461 -0.9122  2.5591
   20MOL   H11310791   7.269   6.711   2.513 -0.3584  2.1678  0.8289
   20MOL   O11410792   6.991   6.572   2.199  0.1538  0.0499  0.4905
   20MOL   C11510793   6.933   6.530   2.077  0.1583  0.3780  0.6536
   20MOL   C11610794   6.914   6.376   2.076  0.1351  0.3205 -0.5951
   20MOL   O11710795   6.802   6.352   2.164 -0.0632  0.1818 -0.2664
   20MOL   C11810796   6.905   6.313   1.936 -0.6949 -0.0563 -0.1975
   20MOL   C11910797   6.845   6.170   1.932 -0.4930  0.2182  0.5206
   20MOL   C12010798   6.827   6.116   1.791  0.3094  0.0451  0.5579
   20MOL   O12110799   6.792   5.985   1.816 -0.5022 -0.0471 -0.2564
   20MOL   C12210800   6.959   6.118   1.721  0.4476 -0.5132  0.2189
   20MOL   C12310801   6.940   6.063   1.566 -0.3029 -0.7903 -0.1631
   20MOL   C12410802   7.025   6.262   1.719  0.4681  0.2703 -0.5754
   20MOL   C12510803   7.037   6.325   1.863 -0.1635  0.4177 -0.2122
   20MOL   H12610804   7.005   6.561   2.001  0.2941  0.4823  0.8231
   20MOL   H12710805   6.834   6.575   2.065 -0.2292 -0.9794 -1.4180
   20MOL   H12810806   6.993   6.325   2.131 -0.8406 -0.1705  0.3777
   20MOL   H12910807   6.824   6.410   2.235 -0.0005 -0.5019  0.2742
   20MOL   H13010808   6.829   6.367   1.880 -1.4010 -1.4333 -0.5759
   20MOL   H13110809   6.906   6.102   1.991 -0.6465 -2.1827 -1.9658
   20MOL   H13210810   6.751   6.170   1.987 -0.3656  1.1636  0.7570
   20MOL   H13310811   6.748   6.172   1.741  1.6374  1.3644 -0.1028
   20MOL   H13410812   6.700   5.972   1.799 -0.5026  1.4739 -1.4843
   20MOL   H13510813   7.031   6.049   1.765  0.0994 -0.6463  0.5743
   20MOL   H13610814   6.889   5.968   1.549 -1.4679 -0.4609  1.3976
   20MOL   H13710815   6.871   6.133   1.519  0.4020 -1.8181 -2.8256
   20MOL   H13810816   6.969   6.325   1.650 -2.4821 -0.6815  0.8929
   20MOL   H13910817   7.122   6.265   1.670 -1.0243  1.4920 -3.5837
   20MOL   H14010818   7.071   6.428   1.852  0.5070  0.1132 -1.0125
   20MOL   H14110819   7.121   6.277   1.914 -0.1783  0.0284 -0.5571
   20MOL   O14210820   7.069   6.067   1.494  0.6929  0.5804 -0.3920
   20MOL   C14310821   7.160   5.957   1.511 -0.4453 -0.1802  0.4593
   20MOL   C14410822   7.161   5.851   1.404 -0.0660 -0.4327 -0.3083
   20MOL   O14510823   7.266   5.764   1.424 -0.4947 -0.2893  0.3138
   20MOL   C14610824   7.015   5.790   1.380 -0.1933  0.1012 -0.0079
   20MOL   C14710825   6.965   5.705   1.494  0.0142 -0.3828  0.0983
   20MOL   C14810826   6.837   5.627   1.466 -0.2708 -0.0728  0.0263
   20MOL   O14910827   6.830   5.543   1.588  0.3668  0.4949 -0.1652
   20MOL   C15010828   6.853   5.537   1.338 -0.1712  0.3651 -0.6831
   20MOL   C15110829   6.738   5.451   1.305 -0.1921  0.0044 -0.3504
   20MOL   C15210830   6.907   5.614   1.226 -0.0704 -0.7046 -0.0032
   20MOL   C15310831   7.031   5.701   1.254  0.1626  0.0655  0.0662
   20MOL   H15410832   7.136   5.908   1.605 -0.6007 -0.1808  0.4193
   20MOL   H15510833   7.259   6.002   1.519 -1.2455  1.2630  2.8749
   20MOL   H15610834   7.181   5.915   1.318  1.3479  1.7657  1.5984
   20MOL   H15710835   7.304   5.750   1.339 -0.1815 -0.4337  0.4756
   20MOL   H15810836   6.944   5.872   1.378  2.7884  2.8190  1.0602
   20MOL   H15910837   7.044   5.632   1.511  0.8485  0.4269 -0.2490
   20MOL   H16010838   6.950   5.751   1.592  2.5465  0.6811  0.0204
   20MOL   H16110839   6.749   5.690   1.454  0.6285  0.9959 -1.0979
   20MOL   H16210840   6.775   5.588   1.651 -0.9876  1.5578 -2.0465
   20MOL   H16310841   6.929   5.468   1.375  2.0152  1.7491 -2.4211
   20MOL   H16410842   6.707   5.394   1.392  2.6318  0.7589  1.1955
   20MOL   H16510843   6.649   5.505   1.270  0.6075  1.6358  0.0812
   20MOL   H16610844   6.827   5.669   1.175 -0.6956 -1.6596 -0.0632
   20MOL   H16710845   6.937   5.546   1.146  0.1245 -1.0557  0.3713
   20MOL   H16810846   7.062   5.756   1.165  1.7848  0.3969  0.8110
   20MOL   H16910847   7.115   5.635   1.275 -0.2752 -0.1968  1.0607
   20MOL   O17010848   6.769   5.356   1.205  0.6605 -0.3899 -0.2367
   20MOL   C17110849   6.662   5.258   1.193  0.2548  0.1748 -0.7405
   20MOL   C17210850   6.711   5.148   1.098 -0.0919  0.5729 -0.1515
   20MOL   O17310851   6.825   5.102   1.167  0.5787  0.1461  0.0920
   20MOL   C17410852   6.614   5.028   1.081  0.2071  0.3258 -0.5715
   20MOL   C17510853   6.663   4.926   0.977  0.6965 -0.0274 -0.5976
   20MOL   C17610854   6.568   4.808   0.957 -0.6007 -0.7271  0.6409
   20MOL   O17710855   6.634   4.733   0.856 -0.8300 -0.4517 -0.5784
   20MOL   C17810856   6.429   4.857   0.911  0.1968 -0.0787 -0.4599
   20MOL   C17910857   6.326   4.740   0.892 -0.4547  0.2346  0.3994
   20MOL   C18010858   6.381   4.957   1.017 -0.3293 -0.3231 -0.4580
   20MOL   C18110859   6.477   5.076   1.043  0.2609  0.6349 -0.0990
   20MOL   H18210860   6.574   5.312   1.158  1.0918  0.2693 -2.7084
   20MOL   H18310861   6.624   5.223   1.290  0.0870  2.5500  0.0830
   20MOL   H18410862   6.739   5.188   1.001  0.1491  0.8237  0.0212
   20MOL   H18510863   6.867   5.180   1.199  1.0819 -0.2976  0.5095
   20MOL   H18610864   6.607   4.973   1.175  2.5342  1.1633  0.1233
   20MOL   H18710865   6.666   4.983   0.884 -1.1274 -0.2311 -0.7874
   20MOL   H18810866   6.762   4.889   1.003  0.7394  0.9068  0.6244
   20MOL   H18910867   6.570   4.743   1.044 -1.5971 -1.0610  0.4259
   20MOL   H19010868   6.610   4.642   0.865  0.7397 -0.8074  0.1642
   20MOL   H19110869   6.442   4.921   0.824  0.9889 -1.9132 -1.7120
   20MOL   H19210870   6.340   4.693   0.794  0.3596  0.6199  0.3261
   20MOL   H19310871   6.346   4.655   0.956  0.3636 -0.1580 -0.3656
   20MOL   H19410872   6.340   4.907   1.105  0.8334 -1.8579 -0.7692
   20MOL   H19510873   6.286   4.995   0.978 -1.4545 -0.2415  2.2086
   20MOL   H19610874   6.443   5.144   1.121  0.9250  1.4364 -0.4980
   20MOL   H19710875   6.487   5.140   0.955 -1.6931 -2.2560 -2.5204
   20MOL   O19810876   6.192   4.796   0.892 -0.4395 -0.0086  0.4539
   20MOL   C19910877   6.089   4.721   0.852  0.7927  0.9921  0.0825
   20MOL   C20010878   5.963   4.810   0.852  0.3912 -0.1377  0.1571
   20MOL   O20110879   5.904   4.815   0.725 -0.1285 -0.2442  0.1914
   20MOL   C20210880   5.850   4.773   0.948  0.7158 -0.3991  0.0296
   20MOL   C20310881   5.895   4.794   1.099  0.3598 -0.0493 -0.0788
   20MOL   C20410882   5.776   4.771   1.190 -0.0468  0.3984 -0.5322
   20MOL   O20510883   5.818   4.785   1.323  0.1048  0.3717 -0.3392
   20MOL   C20610884   5.707   4.625   1.177  0.0692  0.2078 -0.0280
   20MOL   C20710885   5.587   4.595   1.274  0.1340  0.4006 -0.2977
   20MOL   C20810886   5.675   4.592   1.028 -0.6858 -0.3373  0.3531
   20MOL   C20910887   5.797   4.631   0.931 -0.9497 -0.2386  0.1257
   20MOL   H21010888   6.062   4.628   0.900 -0.1273  1.4315  0.4309
   20MOL   H21110889   6.115   4.690   0.751  3.1834  0.5243  0.8242
   20MOL   H21210890   5.978   4.917   0.863 -0.8660 -0.1735  2.5231
   20MOL   H21310891   5.952   4.773   0.655  1.8241  1.5315  0.3950
   20MOL   H21410892   5.773   4.848   0.930  1.3055  0.3501  0.6171
   20MOL   H21510893   5.972   4.722   1.127  1.5548  1.1032 -0.3483
   20MOL   H21610894   5.939   4.894   1.104 -0.0629  0.2335 -1.7050
   20MOL   H21710895   5.703   4.850   1.173 -0.7414 -0.4498 -1.6506
   20MOL   H21810896   5.781   4.863   1.362  0.4344  0.4159 -0.1125
   20MOL   H21910897   5.786   4.553   1.200 -0.1465 -1.7814 -4.9156
   20MOL   H22010898   5.560   4.493   1.249  1.2559 -0.3620  1.5417
   20MOL   H22110899   5.614   4.595   1.380  1.7591  1.7514 -0.6771
   20MOL   H22210900   5.588   4.651   1.000  1.0015  2.0317 -0.0404
   20MOL   H22310901   5.640   4.491   1.009 -0.6588 -0.6598  1.9014
   20MOL   H22410902   5.769   4.619   0.827  1.0994  0.4011 -0.5084
   20MOL   H22510903   5.875   4.558   0.949  0.7510  1.2336 -1.1493
   20MOL   O22610904   5.489   4.697   1.246 -0.2041  0.1628 -0.2873
   20MOL   C22710905   5.353   4.658   1.242 -0.4476 -0.4443 -0.1952
   20MOL   C22810906   5.297   4.558   1.351 -0.3345 -0.5417 -0.0434
   20MOL   O22910907   5.298   4.635   1.473 -0.1120 -0.1730  0.1101
   20MOL   C23010908   5.152   4.506   1.314 -0.3416 -0.3262  0.0850
   20MOL   C23110909   5.089   4.429   1.428  0.1248 -0.0064  0.3568
   20MOL   C23210910   4.942   4.399   1.395 -0.2464 -0.5666  0.3914
   20MOL   O23310911   4.876   4.349   1.514  0.1873 -0.1250  0.0232
   20MOL   C23410912   4.936   4.298   1.284 -0.3239  0.3398 -0.4890
   20MOL   C23510913   4.799   4.248   1.241  0.7182 -0.1020  0.5109
   20MOL   C23610914   5.013   4.340   1.162 -0.0235  0.2132  0.3402
   20MOL   C23710915   5.152   4.402   1.200  0.4794 -0.6716 -0.2729
   20MOL   H23810916   5.343   4.613   1.143  0.2348  0.6458 -0.7699
   20MOL   H23910917   5.293   4.748   1.252 -0.5471 -0.3649 -1.4237
   20MOL   H24010918   5.365   4.473   1.359 -0.0005 -0.2266  0.4642
   20MOL   H24110919   5.376   4.689   1.472 -0.1625 -0.0517  1.7048
   20MOL   H24210920   5.093   4.587   1.273 -0.1330  0.9455  2.2251
   20MOL   H24310921   5.131   4.330   1.449 -2.2942 -0.7565  1.8738
   20MOL   H24410922   5.096   4.490   1.519 -0.2302 -0.2813  0.5696
   20MOL   H24510923   4.895   4.493   1.368 -1.3289 -0.7833  1.4525
   20MOL   H24610924   4.899   4.398   1.590  1.1439 -1.5990  0.7140
   20MOL   H24710925   4.992   4.211   1.320 -1.8777  0.9861  3.7880
   20MOL   H24810926   4.737   4.217   1.325 -0.9792  0.5777 -0.4850
   20MOL   H24910927   4.744   4.332   1.199  0.4275 -0.0938  0.9084
   20MOL   H25010928   4.955   4.414   1.107  1.5819  0.9471 -0.4273
   20MOL   H25110929   5.027   4.262   1.088  0.6750 -0.6083  1.3255
   20MOL   H25210930   5.180   4.460   1.112  0.1471  1.5488  1.0451
   20MOL   H25310931   5.227   4.324   1.216  1.8526  1.0167  1.8470
   20MOL   O25410932   4.804   4.140   1.147 -0.0182 -0.4741  0.2782
   20MOL   C25510933   4.679   4.095   1.095  1.2071  0.2311  0.3056
   20MOL   C25610934   4.634   3.971   1.182  0.2876 -0.0745  0.0957
   20MOL   O25710935   4.752   3.897   1.189 -0.5766  0.1826 -0.5051
   20MOL   C25810936   4.583   3.994   1.328 -0.0369 -0.0070 -0.1422
   20MOL   C25910937   4.543   3.861   1.398  0.4150 -0.2575 -0.4585
   20MOL   C26010938   4.492   3.873   1.540 -0.6286 -0.0199 -0.6349
   20MOL   O26110939   4.479   3.743   1.589  0.1431  0.8017  0.5168
   20MOL   C26210940   4.363   3.953   1.538  0.3652 -1.2485  0.2754
   20MOL   C26310941   4.307   3.970   1.677  0.0910  0.0143  0.2927
   20MOL   C26410942   4.409   4.094   1.475 -0.4865  0.2792 -0.7112
   20MOL   C26510943   4.454   4.076   1.329  0.2753 -0.0236  0.2883
   20MOL   H26610944   4.687   4.049   0.996 -1.8046  0.2838 -0.0172
   20MOL   H26710945   4.614   4.180   1.074  2.4406  0.8670 -1.0875
   20MOL   H26810946   4.550   3.923   1.132 -1.8426  0.4111  3.0575
   20MOL   H26910947   4.821   3.961   1.178  1.5400 -1.7249  1.3840
   20MOL   H27010948   4.657   4.049   1.386  1.5200  1.1799 -3.1195
   20MOL   H27110949   4.461   3.808   1.351  0.4488 -1.2737  0.6196
   20MOL   H27210950   4.632   3.797   1.398  0.3693 -0.3223 -0.8179
   20MOL   H27310951   4.566   3.920   1.606  0.6206  0.4487 -2.3397
   20MOL   H27410952   4.561   3.701   1.568 -0.2683 -0.6549  1.6943
   20MOL   H27510953   4.288   3.907   1.473  1.1959 -0.9204 -0.9289
   20MOL   H27610954   4.283   3.874   1.723  0.7604 -0.8633 -1.1498
   20MOL   H27710955   4.387   4.015   1.735 -0.9867  3.3917 -0.7046
   20MOL   H27810956   4.477   4.141   1.546 -0.8068  1.7618 -1.3582
   20MOL   H27910957   4.311   4.142   1.476 -0.0731  1.1772 -1.5430
   20MOL   H28010958   4.484   4.173   1.288 -3.1268  1.4736  1.2141
   20MOL   H28110959   4.367   4.051   1.269  1.3190  0.5226 -1.4998
   20MOL   O28210960   4.185   4.044   1.678 -0.1355 -0.2084  0.2855
   20MOL   C28310961   4.135   4.092   1.801 -0.0717 -0.3678  0.2855
   20MOL   C28410962   4.218   4.204   1.863  0.0743 -0.2226 -0.3509
   20MOL   O28510963   4.161   4.334   1.839 -0.3575 -0.4175  0.3748
   20MOL   C28610964   4.237   4.196   2.020 -0.0700  0.0852  0.7508
   20MOL   C28710965   4.309   4.311   2.088 -0.2207 -0.0875  0.3197
   20MOL   C28810966   4.318   4.280   2.238 -0.2178 -0.4102  0.0564
   20MOL   O28910967   4.406   4.379   2.293  0.0203 -0.0222 -0.2616
   20MOL   C29010968   4.385   4.149   2.282  0.3209 -0.1723 -0.6868
   20MOL   C29110969   4.362   4.130   2.437  0.1134  0.5919 -0.4560
   20MOL   C29210970   4.310   4.041   2.200 -0.1025 -0.4377  0.7791
   20MOL   C29310971   4.318   4.068   2.046  0.6716  0.3516 -0.5094
   20MOL   H29410972   4.113   4.011   1.871  0.5523  0.4205  1.3982
   20MOL   H29510973   4.035   4.132   1.785 -0.5975 -0.6921  2.6561
   20MOL   H29610974   4.320   4.204   1.825 -0.1663 -0.6178 -0.9967
   20MOL   H29710975   4.067   4.334   1.839 -0.4190  3.2641 -0.5079
   20MOL   H29810976   4.138   4.196   2.064 -0.3898  1.4263  0.0759
   20MOL   H29910977   4.411   4.308   2.049 -0.8038  0.8269 -1.3014
   20MOL   H30010978   4.253   4.402   2.067 -1.3452 -0.5752  1.1534
   20MOL   H30110979   4.217   4.281   2.280  0.7359 -0.0970  2.3779
   20MOL   H30210980   4.486   4.388   2.244  0.6895  2.4183  1.1824
   20MOL   H30310981   4.491   4.158   2.257 -0.0218  2.4478 -1.3461
   20MOL   H30410982   4.424   4.202   2.490  0.8569  0.2032 -0.8046
   20MOL   H30510983   4.259   4.150   2.469  0.1424 -0.6403  0.4750
   20MOL   H30610984   4.205   4.028   2.228  0.1242 -0.9373  1.4244
   20MOL   H30710985   4.364   3.951   2.229  0.1792 -0.6350 -0.3618
   20MOL   H30810986   4.276   3.980   1.995 -0.7289  1.3554 -1.1203
   20MOL   H30910987   4.419   4.075   2.006  0.8430  0.2192 -0.0921
   20MOL   O31010988   4.398   4.002   2.483  0.3518 -0.1275 -0.4818
   20MOL   C31110989   4.341   3.963   2.603 -0.1004 -0.0529 -0.2840
   20MOL   C31210990   4.321   3.812   2.586 -0.7742 -0.1590 -0.1074
   20MOL   O31310991   4.444   3.750   2.610  0.0004  0.1538 -0.5188
   20MOL   C31410992   4.232   3.749   2.688 -0.2769  0.2412  0.2285
   20MOL   C31510993   4.239   3.591   2.699 -0.3706 -0.2143  0.1424
   20MOL   C31610994   4.127   3.527   2.792  0.7656 -0.5342 -0.2832
   20MOL   O31710995   4.117   3.390   2.779  0.7482 -0.4116  0.0525
   20MOL   C31810996   3.984   3.577   2.766  0.6395  0.6314 -0.1061
   20MOL   C31910997   3.878   3.517   2.864  0.4133  0.2894 -0.4577
   20MOL   C32010998   3.984   3.734   2.757  0.2678  0.1423  0.0541
   20MOL   C32110999   4.088   3.783   2.656 -1.6289 -0.3749  0.5340
   20MOL   H32211000   4.244   4.007   2.627 -0.1936 -0.5507  0.2561
   20MOL   H32311001   4.413   3.983   2.681 -0.0766 -1.0018 -0.0613
   20MOL   H32411002   4.294   3.788   2.483  0.3362  0.4780 -0.5527
   20MOL   H32511003   4.506   3.796   2.556  1.5678  1.3666  2.2009
   20MOL   H32611004   4.246   3.780   2.792 -1.2162  0.4774  0.2917
   20MOL   H32711005   4.242   3.540   2.603  0.7624  1.6130 -0.8210
   20MOL   H32811006   4.331   3.549   2.739  0.2097 -0.6141 -1.5737
   20MOL   H32911007   4.147   3.554   2.895  0.2039  3.8275 -1.2240
   20MOL   H33011008   4.200   3.355   2.806  0.5527 -1.0923 -0.2282
   20MOL   H33111009   3.963   3.552   2.662 -1.3767  0.8757  0.2131
   20MOL   H33211010   3.857   3.417   2.828  3.7227 -0.1594 -1.2925
   20MOL   H33311011   3.926   3.503   2.961 -0.8935  0.3582  0.2220
   20MOL   H33411012   4.006   3.781   2.853 -0.0473 -0.0101  0.2046
   20MOL   H33511013   3.881   3.767   2.746 -0.4637 -2.4800 -1.3724
   20MOL   H33611014   4.080   3.891   2.649  0.8316 -0.0920  1.6812
   20MOL   H33711015   4.057   3.733   2.564 -0.1558  0.1673 -0.2665
   20MOL   O33811016   3.765   3.595   2.869  0.2446  0.5000 -0.2057
   20MOL   C33911017   3.634   3.539   2.850 -0.1825  0.0596  0.4823
   20MOL   C34011018   3.601   3.446   2.967  0.8611  0.6611  0.0980
   20MOL   O34111019   3.607   3.527   3.085  0.6128  0.1697 -0.4622
   20MOL   C34211020   3.472   3.356   2.956 -0.2469 -0.3529  0.5786
   20MOL   C34311021   3.484   3.256   3.072 -0.2805 -1.2331 -0.0465
   20MOL   C34411022   3.376   3.142   3.061  0.1648  0.1106  0.2435
   20MOL   O34511023   3.400   3.041   3.158 -0.4740  0.5952 -0.2694
   20MOL   C34611024   3.380   3.070   2.926 -0.0099  1.0081  0.7608
   20MOL   C34711025   3.275   2.954   2.917  0.2729  0.6495  0.3631
   20MOL   C34811026   3.356   3.176   2.815  0.7209 -0.2097  0.3284
   20MOL   C34911027   3.460   3.287   2.819 -0.3397  0.2869  0.4629
   20MOL   H35011028   3.626   3.482   2.757  0.0430 -0.0364  0.5203
   20MOL   H35111029   3.565   3.623   2.854 -0.0762  0.1939 -0.4537
   20MOL   H35211030   3.679   3.371   2.976  0.7281  0.8721  3.6917
   20MOL   H35311031   3.673   3.593   3.068 -0.7605  1.4334 -1.0052
   20MOL   H35411032   3.380   3.411   2.977  0.0973  1.5477 -2.5307
   20MOL   H35511033   3.578   3.203   3.058  1.1690  0.8340  1.4160
   20MOL   H35611034   3.485   3.302   3.171 -0.8341 -1.3930  0.0326
   20MOL   H35711035   3.277   3.184   3.077 -0.2025 -0.1156 -1.3731
   20MOL   H35811036   3.362   3.076   3.238  0.5833 -2.6395  1.7322
   20MOL   H35911037   3.476   3.021   2.908 -2.1428 -2.7075 -1.1916
   20MOL   H36011038   3.288   2.883   2.999 -0.3304 -1.0961 -1.0520
   20MOL   H36111039   3.173   2.988   2.900  0.8184  2.5012  0.7020
   20MOL   H36211040   3.262   3.230   2.831  1.0487 -0.2235  2.4107
   20MOL   H36311041   3.343   3.126   2.719  0.5300  1.7363 -0.6733
   20MOL   H36411042   3.432   3.350   2.734  2.6360  2.1351  0.7819
   20MOL   H36511043   3.560   3.246   2.800 -0.3148 -0.0965  1.4107
   20MOL   O36611044   3.298   2.879   2.801 -0.0558  0.1602 -0.1185
   20MOL   C36711045   3.383   2.767   2.821 -0.5904  0.3583  0.4686
   20MOL   C36811046   3.420   2.723   2.674 -0.2356 -0.0594  0.6110
   20MOL   O36911047   3.482   2.817   2.595  0.1649 -0.5942  0.3699
   20MOL   C37011048   3.508   2.594   2.659 -0.5171  0.2668  0.1915
   20MOL   C37111049   3.427   2.470   2.700  0.2235  0.3814  0.1919
   20MOL   C37211050   3.501   2.331   2.692  0.1964 -0.5183  0.5467
   20MOL   O37311051   3.414   2.230   2.743  0.1490  0.2857  0.1742
   20MOL   C37411052   3.636   2.338   2.764 -0.1840  0.2463  0.3314
   20MOL   C37511053   3.707   2.206   2.750 -0.5516  0.2019  0.1078
   20MOL   C37611054   3.719   2.466   2.724 -0.0583 -0.2927  0.0664
   20MOL   C37711055   3.645   2.597   2.734  0.0829 -0.0641 -0.3401
   20MOL   H37811056   3.336   2.680   2.868  1.8077 -1.9103 -1.1835
   20MOL   H37911057   3.468   2.791   2.884 -0.1237  1.1192 -0.4338
   20MOL   H38011058   3.330   2.705   2.615  0.3295  0.6616 -0.4819
   20MOL   H38111059   3.416   2.885   2.593 -1.5117 -2.2151 -0.4251
   20MOL   H38211060   3.525   2.578   2.553  0.0210 -3.4063  0.7311
   20MOL   H38311061   3.397   2.480   2.804 -0.5614 -0.5115  0.0585
   20MOL   H38411062   3.344   2.455   2.631  0.2986 -2.9526  0.7384
   20MOL   H38511063   3.530   2.303   2.590 -2.7981 -0.6660 -0.3023
   20MOL   H38611064   3.339   2.218   2.687 -0.4589 -3.0624  1.6144
   20MOL   H38711065   3.610   2.352   2.869 -0.6129  1.2187  0.0974
   20MOL   H38811066   3.647   2.115   2.759  0.1686 -0.3442 -0.4829
   20MOL   H38911067   3.762   2.202   2.655 -0.5811 -0.0406  0.0993
   20MOL   H39011068   3.757   2.465   2.622 -1.5404  0.5370 -0.5014
   20MOL   H39111069   3.802   2.456   2.794 -0.6042 -0.3048  0.7149
   20MOL   H39211070   3.712   2.677   2.701 -0.7866 -0.4678 -3.2655
   20MOL   H39311071   3.636   2.611   2.842  0.2077  2.2012 -0.5865
   20MOL   O39411072   3.811   2.211   2.853  0.6216  0.5747  0.1637
   20MOL   C39511073   3.900   2.094   2.842  0.6478 -0.2785 -0.3493
   20MOL   C39611074   4.031   2.155   2.793  0.0974 -0.1946 -0.2848
   20MOL   O39711075   4.066   2.235   2.909 -0.3021 -0.0028 -0.2982
   20MOL   C39811076   4.142   2.049   2.760 -0.3385  0.2998  0.8225
   20MOL   C39911077   4.166   1.941   2.869  0.3832 -0.4848 -0.9885
   20MOL   C40011078   4.272   1.840   2.836  0.5500  0.1606 -0.2736
   20MOL   O40111079   4.294   1.758   2.949 -0.2233 -0.2738  0.2114
   20MOL   C40211080   4.409   1.903   2.794  0.2455  0.0641  0.3801
   20MOL   C40311081   4.503   1.796   2.750  0.7399 -0.8476  0.4044
   20MOL   C40411082   4.381   2.011   2.681 -0.8795 -0.2651  0.0877
   20MOL   C40511083   4.280   2.115   2.727  0.0862 -0.2896  0.0816
   20MOL   H40611084   3.855   2.016   2.780 -0.4189 -1.4056  1.7687
   20MOL   H40711085   3.912   2.047   2.940  0.5391  1.0483  0.3205
   20MOL   H40811086   4.008   2.222   2.710  0.3036 -0.2930 -0.4223
   20MOL   H40911087   3.999   2.301   2.912 -1.9731 -1.6880  0.5729
   20MOL   H41011088   4.106   1.988   2.677 -1.2479 -1.2065  2.2715
   20MOL   H41111089   4.197   1.996   2.958 -1.3147 -1.0665 -0.0071
   20MOL   H41211090   4.075   1.883   2.887  0.3353 -0.0682  0.1234
   20MOL   H41311091   4.223   1.782   2.757  0.6442  0.0604 -0.2582
   20MOL   H41411092   4.320   1.813   3.021 -0.6986 -1.1200  1.0450
   20MOL   H41511093   4.448   1.956   2.881  0.6698  0.2300  0.0905
   20MOL   H41611094   4.607   1.821   2.734  0.7575 -0.4486  1.0971
   20MOL   H41711095   4.514   1.724   2.831 -1.3457 -1.2541  0.3476
   20MOL   H41811096   4.331   1.962   2.598 -0.5118 -2.1011  0.9323
   20MOL   H41911097   4.472   2.049   2.633 -0.6545  0.9959  1.4765
   20MOL   H42011098   4.252   2.196   2.660  0.6284  0.2551  0.5047
   20MOL   H42111099   4.317   2.173   2.811 -0.2062  0.4446 -0.2900
   20MOL   O42211100   4.459   1.738   2.629  0.4030 -0.1321 -0.7599
   20MOL   C42311101   4.541   1.640   2.573 -0.0510 -0.9393  0.4125
   20MOL   C42411102   4.461   1.585   2.455 -0.1760 -0.0640 -0.4032
   20MOL   O42511103   4.511   1.456   2.425  0.2250 -0.0058  0.2832
   20MOL   C42611104   4.308   1.572   2.480  0.2400 -0.2297 -0.4789
   20MOL   C42711105   4.278   1.485   2.602 -0.0084 -0.1878  0.5650
   20MOL   C42811106   4.130   1.463   2.623  0.0918  0.0093 -0.1833
   20MOL   O42911107   4.127   1.370   2.728  0.1793 -0.7777 -0.2509
   20MOL   C43011108   4.050   1.419   2.492  0.0809  0.7008 -0.0378
   20MOL   C43111109   3.898   1.405   2.506 -0.3447  0.0685  0.1658
   20MOL   C43211110   4.085   1.509   2.378 -0.2927  0.0586 -0.2036
   20MOL   C43311111   4.237   1.507   2.362 -0.1089  0.4259  0.5216
   20MOL   H43411112   4.575   1.569   2.648 -0.6420 -1.1210  0.5070
   20MOL   H43511113   4.631   1.689   2.536 -0.1747 -2.1588 -1.5335
   20MOL   H43611114   4.471   1.644   2.364  0.2104 -0.0811 -0.3728
   20MOL   H43711115   4.440   1.403   2.391  0.2443  0.3720 -0.3720
   20MOL   H43811116   4.267   1.672   2.486 -0.7358 -0.7137  1.0422
   20MOL   H43911117   4.324   1.387   2.595 -2.2521 -1.1487 -1.2142
   20MOL   H44011118   4.320   1.524   2.695  0.4646 -0.8398  0.6242
   20MOL   H44111119   4.073   1.550   2.656 -1.4778 -1.0638 -0.0046
   20MOL   H44211120   4.156   1.415   2.806 -0.8846 -0.1940 -0.1918
   20MOL   H44311121   4.092   1.320   2.472  0.8312  1.3084 -1.6132
   20MOL   H44411122   3.874   1.371   2.607 -0.7719  2.0153  0.7451
   20MOL   H44511123   3.853   1.505   2.504  1.9661  1.1351  0.2295
   20MOL   H44611124   4.034   1.604   2.387  0.9350  0.6139  1.1041
   20MOL   H44711125   4.033   1.474   2.288 -1.1598  0.4319  0.1508
   20MOL   H44811126   4.264   1.570   2.276  1.0876 -0.4233  0.2599
   20MOL   H44911127   4.275   1.411   2.326  1.5094  0.4769  2.0375
   20MOL   O45011128   3.839   1.321   2.406 -0.3473 -0.4487 -0.2153
   20MOL   C45111129   3.701   1.314   2.417 -0.3400 -0.0463  0.1332
   20MOL   C45211130   3.654   1.240   2.287 -0.3299  0.3373 -0.0850
   20MOL   O45311131   3.685   1.105   2.319 -0.1336 -0.4065 -0.0049
   20MOL   C45411132   3.501   1.255   2.232  0.5855 -0.2851  0.1390
   20MOL   C45511133   3.475   1.157   2.109  0.2141  0.4074  0.6238
   20MOL   C45611134   3.342   1.183   2.039 -0.3260  0.4848 -0.1404
   20MOL   O45711135   3.334   1.104   1.924 -0.4337  0.3934  0.7724
   20MOL   C45811136   3.320   1.329   2.000  0.8860 -0.2857  0.1388
   20MOL   C45911137   3.193   1.365   1.921 -0.0155 -0.1765  0.8972
   20MOL   C46011138   3.326   1.405   2.132 -0.5564 -0.4075 -0.0919
   20MOL   C46111139   3.461   1.402   2.206 -0.0769 -0.0493  0.1543
   20MOL   H46211140   3.655   1.413   2.421 -0.7726 -0.0695 -2.9192
   20MOL   H46311141   3.666   1.269   2.510  0.3911  0.6242  0.7404
   20MOL   H46411142   3.718   1.269   2.203  1.8599 -0.2518  1.3238
   20MOL   H46511143   3.764   1.085   2.272 -0.1173 -1.7790  0.5712
   20MOL   H46611144   3.436   1.236   2.318  0.7183  4.1238  1.3222
   20MOL   H46711145   3.558   1.176   2.041 -1.5166  1.1808 -1.3132
   20MOL   H46811146   3.478   1.054   2.143 -1.8442 -0.1400 -0.7862
   20MOL   H46911147   3.251   1.155   2.091  1.0011 -0.9641  1.4188
   20MOL   H47011148   3.342   1.015   1.955  0.3157  0.0284 -0.4418
   20MOL   H47111149   3.397   1.367   1.933  0.6763 -1.6778 -0.9011
   20MOL   H47211150   3.192   1.300   1.834  0.1770 -0.6330  1.2367
   20MOL   H47311151   3.099   1.349   1.974  0.2177 -3.4409  0.4171
   20MOL   H47411152   3.252   1.364   2.200 -1.2816 -1.4057 -1.4424
   20MOL   H47511153   3.294   1.508   2.124  0.7246 -0.1155 -1.7257
   20MOL   H47611154   3.458   1.460   2.299  0.3310  0.8317 -0.3728
   20MOL   H47711155   3.528   1.441   2.130 -1.0907  1.1602 -0.1476
   20MOL   O47811156   3.201   1.503   1.889 -0.1723 -0.7726  0.4182
   20MOL   C47911157   3.104   1.552   1.805 -0.4514  0.1546  0.2366
   20MOL   C48011158   3.069   1.696   1.852 -0.6433  0.3828 -0.0762
   20MOL   O48111159   2.984   1.757   1.757 -0.3720  0.4259 -0.9898
   20MOL   C48211160   3.003   1.706   1.991 -0.0909 -0.3206  1.0065
   20MOL   C48311161   2.865   1.638   2.005  0.7237 -1.0876  0.1804
   20MOL   C48411162   2.812   1.655   2.145  0.4412  0.5488 -0.7012
   20MOL   O48511163   2.696   1.580   2.154  0.0437  0.4560 -0.5297
   20MOL   C48611164   2.809   1.799   2.205  0.2239  0.0390 -0.1689
   20MOL   C48711165   2.749   1.808   2.348 -0.5162 -0.0712 -0.8076
   20MOL   C48811166   2.946   1.875   2.181  0.1518  0.3533 -0.5157
   20MOL   C48911167   2.983   1.852   2.033 -0.4253  0.8660 -0.1328
   20MOL   H49011168   3.011   1.496   1.818  0.4909 -1.8045 -1.2214
   20MOL   H49111169   3.140   1.559   1.703  1.0901  2.7223  0.9148
   20MOL   H49211170   3.152   1.766   1.841 -0.6463  0.5856  1.1478
   20MOL   H49311171   2.942   1.691   1.704 -2.0688  1.6721 -1.2619
   20MOL   H49411172   3.074   1.670   2.066  2.2641  2.2821  0.1122
   20MOL   H49511173   2.799   1.683   1.931  0.6646 -2.1199 -0.3902
   20MOL   H49611174   2.888   1.533   1.987 -1.3239 -1.5135 -0.1043
   20MOL   H49711175   2.881   1.611   2.217  0.1261  1.5848  0.2378
   20MOL   H49811176   2.681   1.545   2.067  0.9965  0.9810 -0.9230
   20MOL   H49911177   2.741   1.841   2.132 -2.2861 -3.4294  0.0573
   20MOL   H50011178   2.642   1.788   2.346 -1.4380  2.9441  5.8737
   20MOL   H50111179   2.799   1.731   2.406  1.0830  2.1399  0.8535
   20MOL   H50211180   3.018   1.832   2.251  0.1497  1.0673 -0.0719
   20MOL   H50311181   2.945   1.980   2.208 -0.7874  0.0477  0.6712
   20MOL   H50411182   3.073   1.905   2.003  0.5782 -0.0670  1.1550
   20MOL   H50511183   2.907   1.883   1.961 -0.9367 -3.0990 -1.4328
   20MOL   O50611184   2.764   1.944   2.389  0.2893  0.4797 -0.4597
   20MOL   C50711185   2.777   1.951   2.525  0.3971  0.8057 -0.4158
   20MOL   C50811186   2.931   1.947   2.563  0.3539 -0.0703  0.6161
   20MOL   O50911187   2.990   2.049   2.492 -0.3764  0.1871  0.4046
   20MOL   C51011188   2.971   1.953   2.710 -1.0340 -0.9336 -0.1522
   20MOL   C51111189   2.937   1.819   2.776 -0.3133  0.3470  0.2748
   20MOL   C51211190   3.011   1.803   2.912 -0.6022 -0.2550 -0.4705
   20MOL   O51311191   2.977   1.668   2.954  0.0678 -0.2910 -0.8326
   20MOL   C51411192   2.971   1.911   3.006 -1.0417 -0.5221 -0.3959
   20MOL   C51511193   3.048   1.898   3.140  0.6691  0.4628 -0.2335
   20MOL   C51611194   2.986   2.051   2.942 -0.5852  0.6531  1.2456
   20MOL   C51711195   2.917   2.062   2.799 -0.1128  0.3527 -0.2796
   20MOL   H51811196   2.721   1.874   2.579  0.6453  0.1431 -1.0888
   20MOL   H51911197   2.726   2.044   2.551 -0.2275  0.3100  0.1642
   20MOL   H52011198   2.976   1.854   2.529  0.5240 -0.2052  1.2100
   20MOL   H52111199   2.930   2.061   2.420 -0.2794 -0.0045  0.2914
   20MOL   H52211200   3.080   1.957   2.709 -0.9567 -2.7840 -1.3611
   20MOL   H52311201   2.831   1.808   2.800 -0.1918  1.7482  1.4825
   20MOL   H52411202   2.965   1.728   2.722 -1.5247  0.6762 -0.9274
   20MOL   H52511203   3.119   1.800   2.894 -0.1699 -1.1268  2.0244
   20MOL   H52611204   3.042   1.605   2.924 -0.8128 -2.1630  1.0401
   20MOL   H52711205   2.865   1.899   3.028 -0.8875 -0.3549  0.4591
   20MOL   H52811206   3.055   1.793   3.169  0.2796 -0.0219 -1.8624
   20MOL   H52911207   3.153   1.927   3.139  0.1491  2.4738  1.4576
   20MOL   H53011208   3.094   2.060   2.929 -0.3874 -2.1358  0.5574
   20MOL   H53111209   2.956   2.133   3.007  1.2086  0.2102  2.6668
   20MOL   H53211210   2.953   2.156   2.757  2.0690 -0.6417 -0.7183
   20MOL   H53311211   2.808   2.061   2.803 -0.1023  1.1165  0.4683
   20MOL   O53411212   3.005   1.991   3.240 -0.3608 -0.1391 -0.3900
   20MOL   C53511213   3.060   1.963   3.368  0.3925 -0.0943 -0.3492
   20MOL   C53611214   3.025   2.092   3.447 -0.5231 -0.4872  0.4549
   20MOL   O53711215   2.885   2.113   3.436  0.8019  0.0018 -0.4212
   20MOL   C53811216   3.049   2.083   3.602 -1.0751 -0.0970 -0.3240
   20MOL   C53911217   3.045   2.220   3.670  0.0753 -0.0373 -0.8696
   20MOL   C54011218   3.060   2.199   3.824 -0.1596 -0.1102 -0.1746
   20MOL   O54111219   3.066   2.327   3.882  0.8591  0.3316  0.1044
   20MOL   C54211220   3.170   2.101   3.872 -0.0954 -0.0568 -0.8522
   20MOL   C54311221   3.163   2.058   4.018  0.6222  0.1101  0.5963
   20MOL   C54411222   3.175   1.967   3.792  0.7008 -0.1169 -0.6974
   20MOL   C54511223   3.175   2.007   3.643  0.2625 -0.0582  0.0770
   20MOL   H54611224   3.167   1.949   3.350  0.3520 -0.0175 -0.6351
   20MOL   H54711225   3.005   1.884   3.419 -0.0221  0.2518 -0.2525
   20MOL   H54811226   3.086   2.174   3.410  1.6334 -1.4249  1.8339
   20MOL   H54911227   2.865   2.105   3.344 -0.3658 -0.8358 -0.1029
   20MOL   H55011228   2.970   2.021   3.646 -1.5998  1.4118  0.9061
   20MOL   H55111229   3.117   2.296   3.640  3.4922 -2.9799 -0.3852
   20MOL   H55211230   2.947   2.267   3.665  0.1917  0.3453  0.2467
   20MOL   H55311231   2.966   2.163   3.864  0.8708 -1.8722  0.7482
   20MOL   H55411232   3.087   2.312   3.973  0.0407 -2.7190 -0.1247
   20MOL   H55511233   3.262   2.155   3.849 -0.6772  0.7285 -1.3748
   20MOL   H55611234   3.171   2.152   4.074  3.4494 -0.2771  0.9116
   20MOL   H55711235   3.066   2.017   4.047  1.4404 -0.3828  2.8101
   20MOL   H55811236   3.087   1.912   3.825 -0.0682  2.3932  1.7521
   20MOL   H55911237   3.268   1.915   3.814  0.3778 -0.3562  0.1253
   20MOL   H56011238   3.165   1.914   3.587  0.4900 -0.6069  0.9366
   20MOL   H56111239   3.264   2.064   3.616  0.2438  0.0087  0.1592
   20MOL   H56211240   3.245   1.992   4.046  0.9305  0.4784  0.5714
   21MOL     O111241   2.678   5.622   5.981 -0.2978 -0.0331 -0.2852
   21MOL     C211242   2.572   5.555   6.039 -0.7046 -0.2081 -0.1490
   21MOL     C311243   2.553   5.593   6.194 -0.4810 -0.2830 -0.7103
   21MOL     O411244   2.665   5.544   6.276  0.6633  0.5010  0.0709
   21MOL     C511245   2.519   5.743   6.215 -0.1878  0.5087  0.2655
   21MOL     C611246   2.521   5.795   6.355  0.2970 -0.6407 -0.1769
   21MOL     C711247   2.499   5.946   6.359 -0.2273 -0.5206 -1.0536
   21MOL     O811248   2.497   5.976   6.492  0.4014 -0.8500 -0.0427
   21MOL     C911249   2.361   5.988   6.299  0.3343  0.1319 -0.0470
   21MOL    C1011250   2.360   6.138   6.292  0.6117 -0.6169  0.1115
   21MOL    C1111251   2.351   5.923   6.157  0.1503 -0.0015 -0.1366
   21MOL    C1211252   2.389   5.776   6.144  0.4126  0.0859  0.2886
   21MOL    H1311253   2.591   5.448   6.032 -0.6627 -0.1283 -1.4923
   21MOL    H1411254   2.478   5.559   5.983  0.6173 -0.6994 -2.4938
   21MOL    H1511255   2.467   5.540   6.235 -0.0940  0.1472  0.7059
   21MOL    H1611256   2.739   5.598   6.252  0.9567  0.7398  1.4838
   21MOL    H1711257   2.596   5.797   6.160 -0.3611  1.2387  0.7350
   21MOL    H1811258   2.446   5.738   6.410 -1.1248  0.9505 -0.4370
   21MOL    H1911259   2.618   5.775   6.399  0.6138  1.5563  0.1860
   21MOL    H2011260   2.589   5.989   6.316 -0.6897  0.8958 -0.6520
   21MOL    H2111261   2.514   6.068   6.505 -1.2043 -0.6775  0.8926
   21MOL    H2211262   2.274   5.952   6.353  1.2222  0.2117  1.4806
   21MOL    H2311263   2.345   6.184   6.390  0.7675  0.0068 -0.1504
   21MOL    H2411264   2.460   6.168   6.260 -0.3441  0.9972 -1.4528
   21MOL    H2511265   2.414   5.974   6.084 -0.4356  1.9449  0.6821
   21MOL    H2611266   2.246   5.932   6.127 -0.4917  1.2661  2.3360
   21MOL    H2711267   2.412   5.756   6.039  0.1661  0.0874  0.2347
   21MOL    H2811268   2.308   5.712   6.177 -1.0119  2.1775  0.9701
   21MOL    H2911269   2.754   5.594   6.029  0.1369  0.7402 -0.5216
   21MOL    O3011270   2.271   6.198   6.195  0.1592 -0.4963  0.5670
   21MOL    C3111271   2.151   6.251   6.250  0.3289  1.3734 -0.4878
   21MOL    C3211272   2.064   6.285   6.130  0.6273  0.5017  0.1170
   21MOL    O3311273   2.107   6.406   6.067  0.1371 -0.1624  0.5010
   21MOL    C3411274   2.030   6.166   6.041 -1.2192 -0.2469  0.8427
   21MOL    C3511275   1.930   6.195   5.928 -0.4926  0.2094  0.1358
   21MOL    C3611276   1.906   6.085   5.822 -0.3035 -1.1627 -0.1362
   21MOL    O3711277   1.809   6.139   5.737  0.1204  0.0201  0.0586
   21MOL    C3811278   1.854   5.958   5.894  0.2285 -0.3153 -0.1793
   21MOL    C3911279   1.852   5.840   5.801  0.6361 -0.6164  0.5184
   21MOL    C4011280   1.937   5.934   6.020  0.2322 -0.2355 -0.3858
   21MOL    C4111281   1.975   6.046   6.115 -0.5162 -0.2297 -0.0556
   21MOL    H4211282   2.177   6.335   6.315  1.2447 -0.4516  1.5947
   21MOL    H4311283   2.109   6.170   6.310  1.9092 -1.4237 -3.0166
   21MOL    H4411284   1.968   6.302   6.179  0.0744 -0.3165 -0.6641
   21MOL    H4511285   2.198   6.387   6.052  0.3724  0.6643  0.8482
   21MOL    H4611286   2.115   6.120   5.991 -1.0400  0.2931  0.6526
   21MOL    H4711287   1.835   6.231   5.967  0.6500  0.0782  3.2072
   21MOL    H4811288   1.970   6.277   5.869 -3.5023 -0.7003 -3.3035
   21MOL    H4911289   2.000   6.054   5.776  1.0021  2.7785 -0.3091
   21MOL    H5011290   1.760   6.069   5.696 -0.2191 -0.2811  0.9614
   21MOL    H5111291   1.754   5.980   5.932  0.4144 -0.7459  0.5719
   21MOL    H5211292   1.830   5.863   5.697  1.2443 -0.7143  0.3664
   21MOL    H5311293   1.955   5.803   5.807  1.5217  1.9689  2.5825
   21MOL    H5411294   2.032   5.889   5.991  0.5952  1.2152 -1.4771
   21MOL    H5511295   1.890   5.855   6.079  0.9888  0.7546  1.5935
   21MOL    H5611296   2.047   6.014   6.190  1.2189  0.3909 -1.4252
   21MOL    H5711297   1.889   6.080   6.174 -0.9176  1.3661 -1.5245
   21MOL    O5811298   1.772   5.747   5.870 -0.1979 -0.2960  0.0132
   21MOL    C5911299   1.754   5.627   5.797  0.0384  0.1520  0.1018
   21MOL    C6011300   1.634   5.549   5.863 -0.4120  0.7851  0.5788
   21MOL    O6111301   1.518   5.630   5.856 -0.5864 -0.0416 -0.0844
   21MOL    C6211302   1.598   5.415   5.800 -0.0455  0.5790 -0.3841
   21MOL    C6311303   1.695   5.304   5.824  0.5440  0.0868  0.5365
   21MOL    C6411304   1.650   5.173   5.769 -0.2507 -0.5431 -0.8873
   21MOL    O6511305   1.755   5.089   5.793 -0.2467  0.0777  0.1172
   21MOL    C6611306   1.627   5.190   5.619  0.3024 -0.9759 -0.0463
   21MOL    C6711307   1.583   5.055   5.564  0.2651 -0.5306  1.2248
   21MOL    C6811308   1.535   5.307   5.584  0.2113 -0.1264  0.0434
   21MOL    C6911309   1.583   5.439   5.644  0.9033  1.3098 -0.1649
   21MOL    H7011310   1.840   5.560   5.802  0.7096  1.0866  1.3389
   21MOL    H7111311   1.740   5.648   5.691 -1.1985 -0.4642  0.1280
   21MOL    H7211312   1.650   5.525   5.968  1.3131 -2.6225 -0.3648
   21MOL    H7311313   1.516   5.688   5.930  2.3620 -0.5564  0.4746
   21MOL    H7411314   1.504   5.384   5.846  1.4864 -0.2597  2.2462
   21MOL    H7511315   1.788   5.330   5.774  1.5630 -0.4845  2.0757
   21MOL    H7611316   1.713   5.291   5.931 -1.2092 -0.0075  0.8347
   21MOL    H7711317   1.557   5.150   5.821 -1.0134 -0.5695 -2.2371
   21MOL    H7811318   1.720   5.006   5.763 -2.0696  0.6044  0.6915
   21MOL    H7911319   1.725   5.210   5.574 -0.6995 -1.6185 -2.5821
   21MOL    H8011320   1.497   5.017   5.620 -1.2412  1.8540  0.5914
   21MOL    H8111321   1.544   5.066   5.463 -0.3955 -2.6014  1.2332
   21MOL    H8211322   1.435   5.278   5.616  0.0342 -0.9701 -1.2348
   21MOL    H8311323   1.520   5.331   5.479 -0.0724  1.7370  0.4941
   21MOL    H8411324   1.507   5.513   5.618 -0.8647 -0.3282  0.1844
   21MOL    H8511325   1.671   5.472   5.589  0.9304 -0.5840 -1.3374
   21MOL    O8611326   1.690   4.960   5.569 -0.4574  0.4064  0.0497
   21MOL    C8711327   1.652   4.838   5.511  0.0285  0.2234  0.0476
   21MOL    C8811328   1.779   4.758   5.495 -0.5164 -0.4306 -0.1450
   21MOL    O8911329   1.849   4.775   5.617  0.0050  0.0796 -0.0020
   21MOL    C9011330   1.758   4.604   5.477  0.3099 -0.0549 -0.5484
   21MOL    C9111331   1.885   4.545   5.434 -0.4164  0.2575  0.3303
   21MOL    C9211332   1.860   4.394   5.432 -0.1317 -0.4894  0.4457
   21MOL    O9311333   1.985   4.338   5.395  0.5830 -0.3568  0.8050
   21MOL    C9411334   1.753   4.355   5.328 -0.5696  0.1061 -0.6175
   21MOL    C9511335   1.723   4.207   5.340  0.5904 -0.4247 -0.2556
   21MOL    C9611336   1.622   4.439   5.343  0.3416  0.5037 -0.3446
   21MOL    C9711337   1.648   4.589   5.373 -0.0428  0.6345 -0.3910
   21MOL    H9811338   1.598   4.853   5.418  2.8529 -0.9779 -1.8637
   21MOL    H9911339   1.586   4.799   5.588  0.5803  0.9391  0.9007
   21MOL   H10011340   1.825   4.799   5.405 -1.4013 -1.0128 -0.8652
   21MOL   H10111341   1.844   4.867   5.639 -1.3778 -0.3436  1.4942
   21MOL   H10211342   1.705   4.558   5.561  0.7436  1.6736  0.7087
   21MOL   H10311343   1.925   4.589   5.343 -1.0470  1.2122  0.5097
   21MOL   H10411344   1.954   4.563   5.516 -1.2736 -1.2028  1.3860
   21MOL   H10511345   1.830   4.360   5.531  1.8088  2.5329  2.1427
   21MOL   H10611346   1.997   4.254   5.436  1.5010 -0.2866  0.7050
   21MOL   H10711347   1.790   4.367   5.226 -1.5467  0.3381 -0.9575
   21MOL   H10811348   1.651   4.171   5.266  0.2987 -0.2271 -0.0639
   21MOL   H10911349   1.821   4.162   5.322  0.3428  0.2551 -3.7441
   21MOL   H11011350   1.569   4.410   5.434  0.2968  0.4938 -0.3740
   21MOL   H11111351   1.551   4.428   5.261 -0.3094  3.8020 -0.2775
   21MOL   H11211352   1.552   4.630   5.407  0.7480  2.2511 -0.0624
   21MOL   H11311353   1.664   4.631   5.273 -4.7146 -0.4747 -1.7446
   21MOL   O11411354   1.670   4.186   5.471  0.4749 -0.1211  0.6021
   21MOL   C11511355   1.731   4.077   5.534  0.6698  0.1799 -0.9505
   21MOL   C11611356   1.657   4.056   5.669  0.5076 -0.2639 -0.4893
   21MOL   O11711357   1.599   3.928   5.660  0.0908 -0.2817  0.0221
   21MOL   C11811358   1.754   4.046   5.790  0.6557 -0.2285  0.2172
   21MOL   C11911359   1.833   4.172   5.827 -0.0434 -0.0813 -0.4407
   21MOL   C12011360   1.908   4.148   5.963 -0.0484 -0.5719 -0.2188
   21MOL   O12111361   1.968   4.268   6.000 -0.7818  0.0120  0.5461
   21MOL   C12211362   2.013   4.031   5.953  0.1976 -0.0052  0.1347
   21MOL   C12311363   2.073   3.994   6.092 -0.0455 -0.2632  0.8419
   21MOL   C12411364   1.929   3.909   5.902  0.0159 -0.4566  1.2591
   21MOL   C12511365   1.851   3.930   5.764 -0.4300 -0.0092  0.0106
   21MOL   H12611366   1.833   4.109   5.554  0.4722  0.1160  0.2332
   21MOL   H12711367   1.731   3.992   5.467 -1.1662 -1.3196  0.8558
   21MOL   H12811368   1.580   4.131   5.685 -0.1699 -0.7494 -1.4879
   21MOL   H12911369   1.663   3.871   5.620  1.4451  0.7326  0.7461
   21MOL   H13011370   1.689   4.029   5.875  0.6556  1.9711  0.6857
   21MOL   H13111371   1.902   4.183   5.743 -1.9818  0.5994 -1.9902
   21MOL   H13211372   1.769   4.261   5.832 -2.5399 -1.8883  0.5513
   21MOL   H13311373   1.842   4.123   6.045 -0.0661  1.0276  0.2678
   21MOL   H13411374   2.022   4.244   6.074  0.5036  1.7875  0.2156
   21MOL   H13511375   2.090   4.041   5.877  0.0352  0.6745  0.0522
   21MOL   H13611376   1.989   3.995   6.162 -0.1235 -1.3852  0.7710
   21MOL   H13711377   2.112   3.892   6.092 -0.2171 -0.3588 -2.0447
   21MOL   H13811378   1.869   3.872   5.985  0.7665 -2.6494  0.8643
   21MOL   H13911379   2.003   3.832   5.879 -1.4963 -1.4480 -0.4379
   21MOL   H14011380   1.797   3.836   5.751 -1.1831  0.2683  1.1167
   21MOL   H14111381   1.927   3.945   5.688  0.5565 -2.3269  0.4874
   21MOL   O14211382   2.178   4.076   6.144  0.2296  0.4882  0.0653
   21MOL   C14311383   2.237   4.032   6.265  0.6119  0.5265  0.2329
   21MOL   C14411384   2.343   4.145   6.292  0.5422 -0.6656  0.5215
   21MOL   O14511385   2.393   4.177   6.169 -0.6704 -0.2615 -0.0240
   21MOL   C14611386   2.281   4.274   6.352 -0.6864  0.3970 -0.6501
   21MOL   C14711387   2.242   4.259   6.500 -0.1851  0.1931 -0.3642
   21MOL   C14811388   2.200   4.386   6.575  0.3090  0.1841  0.3920
   21MOL   O14911389   2.185   4.347   6.708 -0.5831 -0.0715 -0.1570
   21MOL   C15011390   2.075   4.436   6.495 -0.3776  0.2875 -0.5195
   21MOL   C15111391   2.014   4.563   6.561  0.1054 -0.6568  0.2038
   21MOL   C15211392   2.106   4.462   6.347  0.0412 -0.3449 -0.1307
   21MOL   C15311393   2.154   4.334   6.277  0.0273  0.3324 -0.7389
   21MOL   H15411394   2.296   3.941   6.256  0.4355  0.2393  1.9004
   21MOL   H15511395   2.172   4.020   6.352  2.5928 -3.0295  1.3306
   21MOL   H15611396   2.428   4.110   6.351  1.0797 -2.7133 -1.3954
   21MOL   H15711397   2.356   4.112   6.111 -1.2838 -0.3175  0.4321
   21MOL   H15811398   2.359   4.350   6.356  0.4961 -0.6171 -3.2260
   21MOL   H15911399   2.180   4.171   6.515  1.6612 -0.7750  1.9317
   21MOL   H16011400   2.337   4.239   6.550 -0.5277  1.7176  0.9336
   21MOL   H16111401   2.290   4.448   6.578  1.9192 -2.0438  0.0962
   21MOL   H16211402   2.225   4.417   6.758  1.6812 -0.8736 -0.8204
   21MOL   H16311403   1.999   4.358   6.501  0.2822 -0.4209 -1.2006
   21MOL   H16411404   1.992   4.542   6.666  0.7734  1.8242  0.8778
   21MOL   H16511405   2.084   4.645   6.545  0.1190 -0.5244  0.9168
   21MOL   H16611406   2.171   4.549   6.333 -1.0498  0.5162  0.0758
   21MOL   H16711407   2.016   4.486   6.291 -1.5352 -4.1996  0.5862
   21MOL   H16811408   2.170   4.335   6.169  1.6111  0.1792 -0.5179
   21MOL   H16911409   2.071   4.263   6.273  0.1224  0.2581 -1.5211
   21MOL   O17011410   1.892   4.608   6.499  0.3338 -0.3819 -0.1115
   21MOL   C17111411   1.779   4.532   6.536 -1.2793  0.2864 -0.4336
   21MOL   C17211412   1.700   4.497   6.410  0.2981 -0.0327  0.2602
   21MOL   O17311413   1.768   4.398   6.334 -0.5823 -0.2588 -0.2526
   21MOL   C17411414   1.560   4.450   6.444  0.0787  0.5530  0.2505
   21MOL   C17511415   1.552   4.334   6.545  0.0516  1.4517  0.2897
   21MOL   C17611416   1.403   4.293   6.585 -0.0622 -0.0903 -0.3473
   21MOL   O17711417   1.409   4.169   6.655 -0.7630 -0.8299  1.0547
   21MOL   C17811418   1.325   4.276   6.456  0.3183  0.1418 -0.0982
   21MOL   C17911419   1.181   4.251   6.484  0.1250 -0.7658 -0.7298
   21MOL   C18011420   1.331   4.387   6.357  0.0654 -0.1028 -0.0802
   21MOL   C18111421   1.472   4.421   6.319 -0.1896 -0.0216 -0.4103
   21MOL   H18211422   1.717   4.591   6.603 -1.0561 -0.2543  0.2587
   21MOL   H18311423   1.805   4.436   6.582 -1.1351  0.3582 -0.3667
   21MOL   H18411424   1.696   4.585   6.346  0.4371 -0.0597  0.2152
   21MOL   H18511425   1.754   4.419   6.243  1.2349 -2.3087 -1.0504
   21MOL   H18611426   1.517   4.529   6.505 -2.2552 -0.3203 -0.2042
   21MOL   H18711427   1.593   4.243   6.502  2.5343  3.7130 -2.2939
   21MOL   H18811428   1.612   4.348   6.635 -2.8589  1.9156  2.2129
   21MOL   H18911429   1.358   4.374   6.642 -0.3256 -2.6315  3.2360
   21MOL   H19011430   1.489   4.125   6.631 -0.0948  0.2989  1.2010
   21MOL   H19111431   1.355   4.196   6.389  2.1568  0.4666  0.3066
   21MOL   H19211432   1.170   4.167   6.553  0.5812 -0.8300 -0.7355
   21MOL   H19311433   1.148   4.337   6.542  0.2967  0.7660 -2.8850
   21MOL   H19411434   1.287   4.475   6.402  3.6550  0.9052  1.6529
   21MOL   H19511435   1.270   4.361   6.271  0.0712 -0.7363  0.1043
   21MOL   H19611436   1.474   4.510   6.256  0.9599  1.2453  1.3664
   21MOL   H19711437   1.502   4.342   6.251 -1.0148 -1.3882  0.7716
   21MOL   O19811438   1.092   4.243   6.372 -0.0818  0.1495 -0.2288
   21MOL   C19911439   1.111   4.127   6.293  0.3082 -0.7180  0.2478
   21MOL   C20011440   0.993   4.108   6.195  0.0220  0.9376 -1.0261
   21MOL   O20111441   1.055   4.046   6.082 -0.0895  0.1412  0.5382
   21MOL   C20211442   0.879   4.024   6.248 -1.1566 -0.3847 -0.5424
   21MOL   C20311443   0.818   4.082   6.381 -0.5085 -0.3519 -0.2445
   21MOL   C20411444   0.692   4.006   6.424  0.2685  0.5986  0.0543
   21MOL   O20511445   0.649   4.077   6.536 -0.1276  0.1909  0.0898
   21MOL   C20611446   0.737   3.859   6.458 -0.4704 -0.0096  0.4150
   21MOL   C20711447   0.613   3.778   6.511 -1.1269  0.4459 -0.5802
   21MOL   C20811448   0.800   3.798   6.330  0.2894  0.2034 -0.4940
   21MOL   C20911449   0.915   3.879   6.270  0.0620  0.3780  0.5030
   21MOL   H21011450   1.132   4.043   6.359  0.6876  0.2121  1.3321
   21MOL   H21111451   1.195   4.153   6.229 -2.0045  0.1898 -2.5251
   21MOL   H21211452   0.969   4.201   6.145  0.4978  0.8990 -1.3242
   21MOL   H21311453   1.099   3.970   6.117  0.8889  0.1026 -0.7345
   21MOL   H21411454   0.799   4.039   6.176 -0.2387  1.1801 -1.2549
   21MOL   H21511455   0.893   4.068   6.459 -1.1286  3.0513  1.0205
   21MOL   H21611456   0.784   4.185   6.379 -0.5148 -0.3556 -0.3439
   21MOL   H21711457   0.607   4.005   6.356 -0.3491  0.6253  0.8205
   21MOL   H21811458   0.612   4.159   6.509 -1.1053 -0.1912  0.2610
   21MOL   H21911459   0.810   3.851   6.539 -0.6515 -2.1554  0.4064
   21MOL   H22011460   0.592   3.839   6.599 -0.6761 -0.7526  0.3806
   21MOL   H22111461   0.533   3.770   6.439 -0.3617 -3.3421 -1.1137
   21MOL   H22211462   0.722   3.788   6.254 -0.7641 -2.0276  0.8519
   21MOL   H22311463   0.824   3.694   6.346 -2.3141 -0.5301 -1.0400
   21MOL   H22411464   0.937   3.839   6.171  1.7146  0.8069  0.6745
   21MOL   H22511465   1.006   3.851   6.324 -0.6214 -0.2545  1.3351
   21MOL   O22611466   0.669   3.648   6.543 -0.0555 -0.0347 -0.3652
   21MOL   C22711467   0.624   3.596   6.668 -0.0780  0.3962 -0.0176
   21MOL   C22811468   0.695   3.459   6.700 -0.5420 -0.3473 -0.1327
   21MOL   O22911469   0.624   3.399   6.807 -0.3608 -0.3857  0.1527
   21MOL   C23011470   0.691   3.357   6.576  0.2722 -0.1606 -0.6424
   21MOL   C23111471   0.545   3.353   6.520  0.8828 -0.4813  0.4993
   21MOL   C23211472   0.550   3.276   6.382  0.3854  0.0912  0.1090
   21MOL   O23311473   0.417   3.285   6.328 -0.1109 -0.0311  0.0137
   21MOL   C23411474   0.600   3.131   6.410 -0.2080  0.4375 -0.0377
   21MOL   C23511475   0.579   3.032   6.291 -0.0745 -0.7418 -0.6222
   21MOL   C23611476   0.746   3.138   6.466 -0.0709 -0.1900  0.5647
   21MOL   C23711477   0.749   3.214   6.599  0.3824 -0.6766  0.8139
   21MOL   H23811478   0.516   3.586   6.655 -0.0576 -0.6771  0.6213
   21MOL   H23911479   0.644   3.666   6.749 -0.0091 -1.2023  1.3814
   21MOL   H24011480   0.796   3.482   6.733 -0.7903  0.3891  0.1264
   21MOL   H24111481   0.626   3.456   6.883 -0.6200 -2.2723  1.6184
   21MOL   H24211482   0.764   3.403   6.509  1.6314  0.4746  1.2314
   21MOL   H24311483   0.475   3.311   6.592  1.8438 -0.1356  1.6647
   21MOL   H24411484   0.521   3.454   6.489  2.4197 -0.3143 -0.2275
   21MOL   H24511485   0.623   3.326   6.318 -1.7450  0.7136 -1.9071
   21MOL   H24611486   0.389   3.375   6.332 -0.6954 -0.3225  3.7626
   21MOL   H24711487   0.536   3.100   6.492  1.9787 -1.2566  1.0826
   21MOL   H24811488   0.601   3.076   6.193 -1.8275 -0.7992 -1.0471
   21MOL   H24911489   0.647   2.949   6.311  1.5783  1.2008  2.1026
   21MOL   H25011490   0.808   3.188   6.391 -0.4702  1.2536  1.1739
   21MOL   H25111491   0.789   3.038   6.477 -0.0696 -0.2782 -0.1884
   21MOL   H25211492   0.856   3.222   6.619  0.3370  0.9417  0.4640
   21MOL   H25311493   0.694   3.155   6.673  0.1336 -1.5472 -0.0573
   21MOL   O25411494   0.442   3.007   6.292  0.3867 -0.1187 -0.1903
   21MOL   C25511495   0.389   2.943   6.177  0.3356  0.3899 -0.3218
   21MOL   C25611496   0.241   2.973   6.170  0.2346  0.9097 -0.6197
   21MOL   O25711497   0.232   3.109   6.143 -0.4736 -0.5413  0.3540
   21MOL   C25811498   0.155   2.902   6.069 -0.8425 -0.4631 -0.0906
   21MOL   C25911499   0.008   2.957   6.052  0.2347  0.8893 -0.5449
   21MOL   C26011500   7.559   2.892   5.939 -0.0151  0.2037  0.6433
   21MOL   O26111501   7.431   2.940   5.925  0.1899 -0.7797 -0.3132
   21MOL   C26211502   7.560   2.739   5.954 -0.3127 -0.1236  0.4679
   21MOL   C26311503   7.499   2.677   5.834  0.2985 -0.8528  0.7789
   21MOL   C26411504   0.073   2.675   5.987  0.1996  0.5485  0.1589
   21MOL   C26511505   0.139   2.750   6.104 -0.6364  0.4424 -0.1261
   21MOL   H26611506   0.425   2.841   6.176 -1.2625 -0.1727 -1.3354
   21MOL   H26711507   0.420   2.987   6.082  1.0061 -1.9860 -1.2247
   21MOL   H26811508   0.196   2.965   6.269 -0.2682 -0.6649 -0.9534
   21MOL   H26911509   0.298   3.155   6.193 -0.0114 -3.0850  2.2558
   21MOL   H27011510   0.200   2.909   5.970 -1.7741 -3.4447 -0.7965
   21MOL   H27111511   7.591   2.949   6.150 -0.4207  3.5515 -0.6011
   21MOL   H27211512   0.008   3.064   6.032 -1.0140  0.7726 -1.1994
   21MOL   H27311513   7.615   2.922   5.851  0.1534 -0.5022  0.5008
   21MOL   H27411514   7.369   2.905   5.987 -0.5006 -0.2546 -0.7001
   21MOL   H27511515   7.502   2.708   6.040  0.8921  1.8829  2.0489
   21MOL   H27611516   7.390   2.680   5.848  0.2786 -3.0269  1.2692
   21MOL   H27711517   7.520   2.726   5.740 -1.9295  1.3105  1.3586
   21MOL   H27811518   0.145   2.681   5.905  0.8990  2.1215  0.8676
   21MOL   H27911519   0.065   2.568   6.004 -1.7104  0.4346 -1.2360
   21MOL   H28011520   0.227   2.695   6.137  0.6658  2.4550 -0.1747
   21MOL   H28111521   0.068   2.735   6.186 -0.1720 -0.8211  0.0590
   21MOL   O28211522   7.538   2.540   5.810 -0.2584  0.0186  0.2636
   21MOL   C28311523   7.442   2.442   5.850  0.2222 -0.1288 -0.0202
   21MOL   C28411524   7.483   2.301   5.816  0.2792  0.0907  1.0029
   21MOL   O28511525   7.381   2.215   5.870  0.0672 -0.1137  0.0729
   21MOL   C28611526   7.503   2.270   5.661  0.2705 -0.6132 -0.1684
   21MOL   C28711527   7.379   2.297   5.576  0.3006 -0.1814 -0.6062
   21MOL   C28811528   7.400   2.256   5.426 -0.7028  0.1417  0.1019
   21MOL   O28911529   7.278   2.247   5.355 -0.2410  1.0342  0.6492
   21MOL   C29011530   7.474   2.126   5.404  0.1140  0.5633 -0.1028
   21MOL   C29111531   7.504   2.110   5.249 -0.2143 -0.3477  1.1655
   21MOL   C29211532   7.602   2.117   5.487 -0.7741 -0.9646 -0.1276
   21MOL   C29311533   7.569   2.126   5.634  0.8350 -0.6359  0.4634
   21MOL   H29411534   7.343   2.466   5.810 -1.6644 -1.2312  3.7348
   21MOL   H29511535   7.430   2.455   5.958 -0.7962  0.4776 -0.1998
   21MOL   H29611536   7.577   2.287   5.870 -0.8434 -0.3052  2.8888
   21MOL   H29711537   7.296   2.237   5.834  0.3555  1.6053  0.3894
   21MOL   H29811538   7.572   2.344   5.623 -1.7073  1.2174 -0.2667
   21MOL   H29911539   7.295   2.243   5.619  1.4142 -1.9824 -0.6679
   21MOL   H30011540   7.357   2.403   5.589 -2.1604 -0.5265 -1.5523
   21MOL   H30111541   7.453   2.342   5.383 -1.0769  0.3312  0.0157
   21MOL   H30211542   7.280   2.323   5.299  1.3836  1.8285  1.7403
   21MOL   H30311543   7.407   2.045   5.430  1.6945 -0.2713  1.5180
   21MOL   H30411544   7.418   2.122   5.183  1.4449 -0.1387 -0.9725
   21MOL   H30511545   7.579   2.179   5.212 -1.7325  0.3130 -0.7464
   21MOL   H30611546   0.047   2.191   5.459 -1.0537 -0.9935 -0.9632
   21MOL   H30711547   0.017   2.018   5.475  1.5030  0.3385 -3.3438
   21MOL   H30811548   0.036   2.122   5.684  1.8214  1.3050 -1.1726
   21MOL   H30911549   7.501   2.051   5.674 -1.6662  0.9710 -0.6144
   21MOL   O31011550   7.556   1.975   5.237 -0.1010  0.3179 -0.1445
   21MOL   C31111551   7.611   1.958   5.109 -1.0652  0.1128  0.0370
   21MOL   C31211552   0.074   1.831   5.107 -0.4398 -0.1277  0.0134
   21MOL   O31311553   7.626   1.723   5.157 -0.6157  0.0444 -0.2997
   21MOL   C31411554   0.147   1.790   4.975  0.6718  0.2556  0.3181
   21MOL   C31511555   0.211   1.908   4.902 -0.2712  0.5981 -0.0336
   21MOL   C31611556   0.299   1.868   4.787  0.1977  0.0949  0.5144
   21MOL   O31711557   0.343   1.995   4.737  0.2990 -0.8179  0.0274
   21MOL   C31811558   0.218   1.785   4.680  0.6284 -0.7563 -0.0433
   21MOL   C31911559   0.295   1.744   4.557 -0.4185  0.6452  0.3132
   21MOL   C32011560   0.159   1.666   4.752  0.3625  0.4395 -0.0648
   21MOL   C32111561   0.079   1.700   4.878  0.1828 -0.3003  0.6565
   21MOL   H32211562   0.050   2.034   5.072 -1.8937  0.6485 -0.4126
   21MOL   H32311563   7.528   1.949   5.039 -1.3016  0.6772  0.2442
   21MOL   H32411564   0.155   1.845   5.178  0.0315 -2.5393 -0.0047
   21MOL   H32511565   7.570   1.764   5.221  0.8302 -0.0230  1.0406
   21MOL   H32611566   0.230   1.725   5.003 -0.5620 -1.9148 -0.9788
   21MOL   H32711567   0.129   1.969   4.863 -1.3892 -0.8628 -0.0263
   21MOL   H32811568   0.276   1.968   4.966 -0.1159  0.7200 -0.3042
   21MOL   H32911569   0.392   1.818   4.814 -1.9853 -2.7459  3.1736
   21MOL   H33011570   0.271   2.049   4.711 -0.3874  0.0398  3.4743
   21MOL   H33111571   0.134   1.844   4.646  0.6829 -0.1944  0.7841
   21MOL   H33211572   0.322   1.842   4.519 -1.7593  1.0798  0.4485
   21MOL   H33311573   0.386   1.688   4.580  0.0142  0.0992 -2.5006
   21MOL   H33411574   0.244   1.606   4.783 -0.3529  0.0420  1.1659
   21MOL   H33511575   0.091   1.610   4.688  0.2885  0.2406  0.1875
   21MOL   H33611576   0.060   1.606   4.929 -0.7160 -1.3315 -1.5381
   21MOL   H33711577   7.614   1.745   4.847  1.4660  0.8063 -1.7403
   21MOL   O33811578   0.221   1.677   4.456  0.5062 -0.3010 -0.0727
   21MOL   C33911579   0.155   1.764   4.364 -0.0681  0.1979  1.0115
   21MOL   C34011580   0.082   1.669   4.255 -0.1507  0.0871 -0.2343
   21MOL   O34111581   7.595   1.613   4.311 -0.3793  0.0897 -0.1918
   21MOL   C34211582   0.063   1.723   4.110 -0.2845 -0.6640 -0.0500
   21MOL   C34311583   0.201   1.746   4.034  1.2409  0.6081 -0.1162
   21MOL   C34411584   0.187   1.786   3.883 -0.1589  0.1085  0.1301
   21MOL   O34511585   0.319   1.821   3.840 -0.1418 -0.7950  0.7985
   21MOL   C34611586   0.098   1.915   3.883  0.0826 -0.3454 -0.0099
   21MOL   C34711587   0.075   1.977   3.741  0.4961  0.4042  0.4756
   21MOL   C34811588   7.592   1.888   3.942  0.3289 -0.2654  0.4165
   21MOL   C34911589   7.603   1.846   4.097  0.6471  0.1750 -0.2147
   21MOL   H35011590   0.229   1.820   4.307 -0.9943 -1.9569 -2.4285
   21MOL   H35111591   0.088   1.835   4.413 -0.2691  0.8250 -0.1584
   21MOL   H35211592   0.153   1.589   4.232 -0.2988  0.9428 -4.0552
   21MOL   H35311593   7.613   1.577   4.396 -2.0199 -0.5979 -0.1133
   21MOL   H35411594   0.013   1.646   4.051 -0.7679  1.5200 -2.5881
   21MOL   H35511595   0.251   1.832   4.079 -0.7452  1.4790  0.4809
   21MOL   H35611596   0.263   1.657   4.045  2.0792  1.1842 -0.0929
   21MOL   H35711597   0.155   1.710   3.812 -1.1945  2.5158 -2.0440
   21MOL   H35811598   0.382   1.752   3.853  0.2514 -0.3942  1.0571
   21MOL   H35911599   0.140   1.991   3.949  0.9224  0.5422 -1.5478
   21MOL   H36011600   0.016   2.068   3.747 -0.2322 -0.1149  1.2789
   21MOL   H36111601   0.171   2.018   3.709 -0.3120 -0.2463 -2.9980
   21MOL   H36211602   7.543   1.804   3.892  0.6702 -1.1034  1.4555
   21MOL   H36311603   7.529   1.977   3.934 -0.5403 -0.8630  0.4510
   21MOL   H36411604   7.507   1.825   4.143  1.3374 -0.5347  0.9289
   21MOL   H36511605   0.024   1.925   4.153  2.1244  0.5329 -1.9716
   21MOL   O36611606   0.007   1.884   3.663 -0.5563 -0.3227  0.1856
   21MOL   C36711607   0.056   1.868   3.528 -0.8215  0.1744 -0.1720
   21MOL   C36811608   7.568   1.788   3.462 -0.3510  0.1305 -0.0985
   21MOL   O36911609   7.607   1.762   3.326 -0.1854 -0.2186  0.0855
   21MOL   C37011610   7.534   1.652   3.531 -0.1009  0.0600 -0.0399
   21MOL   C37111611   0.026   1.555   3.546 -0.4056 -0.1901 -0.1445
   21MOL   C37211612   7.613   1.422   3.606 -0.1838 -0.1829  0.5276
   21MOL   O37311613   0.096   1.337   3.630 -0.2644 -0.2862  0.1435
   21MOL   C37411614   7.498   1.357   3.523 -0.0152  0.4572  0.4608
   21MOL   C37511615   7.453   1.225   3.593 -0.0202 -0.4316  0.1271
   21MOL   C37611616   7.378   1.455   3.520 -0.3699 -0.2205  0.0004
   21MOL   C37711617   7.414   1.587   3.458 -0.4647  0.0226  0.2824
   21MOL   H37811618   0.143   1.803   3.523 -2.1848 -1.7242  0.5518
   21MOL   H37911619   0.076   1.965   3.481  0.0063  1.1882  2.1809
   21MOL   H38011620   7.481   1.855   3.467 -0.3830  0.0744  0.1212
   21MOL   H38111621   0.004   1.840   3.280  0.6139  0.3436  1.4564
   21MOL   H38211622   7.498   1.671   3.632  1.4455 -4.1844  1.3966
   21MOL   H38311623   0.083   1.539   3.454  0.4125  1.7775 -0.0007
   21MOL   H38411624   0.097   1.599   3.615 -1.4034  0.0453  0.7452
   21MOL   H38511625   7.574   1.427   3.707 -0.8221  0.2381  0.2593
   21MOL   H38611626   0.142   1.311   3.552 -0.3147  0.3614 -0.1096
   21MOL   H38711627   7.533   1.336   3.422  0.2024 -2.5746  1.1144
   21MOL   H38811628   7.363   1.179   3.551 -0.1285 -1.7658  1.7631
   21MOL   H38911629   7.541   1.163   3.577  1.2289  0.8494  1.8220
   21MOL   H39011630   7.333   1.468   3.618 -0.5189 -1.6114  0.1187
   21MOL   H39111631   7.302   1.411   3.457  1.8368 -2.1800 -1.3803
   21MOL   H39211632   7.323   1.647   3.462 -0.7407 -0.4944  2.3272
   21MOL   H39311633   7.441   1.549   3.359 -0.1916  0.3785  0.2215
   21MOL   O39411634   7.408   1.232   3.721 -0.5087  0.1131 -0.8153
   21MOL   C39511635   7.421   1.118   3.798  0.0674  0.0687 -0.5601
   21MOL   C39611636   7.352   1.132   3.928  0.1076 -0.0464  0.3063
   21MOL   O39711637   7.434   1.233   4.004 -0.8316  0.1892  0.2821
   21MOL   C39811638   7.205   1.179   3.926 -0.5448  0.0260 -0.3227
   21MOL   C39911639   7.149   1.140   4.063 -0.3170  0.0717 -0.3839
   21MOL   C40011640   7.006   1.179   4.083  0.2193 -0.4509  0.6451
   21MOL   O40111641   6.985   1.141   4.218  0.2176  0.3438 -0.6413
   21MOL   C40211642   6.916   1.120   3.980  0.7912  0.2532 -0.5581
   21MOL   C40311643   6.767   1.134   4.003 -0.4069  0.1560  0.0765
   21MOL   C40411644   6.964   1.153   3.839 -0.2594 -0.3789  0.2529
   21MOL   C40511645   7.113   1.115   3.821  0.3678 -0.4339  0.2190
   21MOL   H40611646   7.526   1.094   3.817 -0.8571 -2.5212  1.5296
   21MOL   H40711647   7.395   1.027   3.743 -3.2654  0.9388 -0.5127
   21MOL   H40811648   7.360   1.030   3.965 -0.2688 -0.3535 -0.4724
   21MOL   H40911649   7.471   1.286   3.935 -0.0441  1.5354  1.7206
   21MOL   H41011650   7.204   1.288   3.930  2.5409  0.1568 -2.0002
   21MOL   H41111651   7.151   1.033   4.083 -2.5612 -0.0758 -0.8455
   21MOL   H41211652   7.202   1.185   4.147 -1.1887  1.6535 -0.6530
   21MOL   H41311653   6.998   1.286   4.065 -2.5421 -0.5495  1.0974
   21MOL   H41411654   6.923   1.200   4.259  0.0999 -1.8907  2.5843
   21MOL   H41511655   6.922   1.011   3.984  1.3390  0.3145  0.2507
   21MOL   H41611656   6.743   1.078   4.094  1.5112 -1.8837 -0.6331
   21MOL   H41711657   6.735   1.237   4.019 -4.1180 -0.7509 -0.9965
   21MOL   H41811658   6.951   1.256   3.806  0.5540 -0.4252 -0.2286
   21MOL   H41911659   6.917   1.089   3.764  0.3377 -2.6286  1.7769
   21MOL   H42011660   7.145   1.142   3.721  0.0411 -3.2957 -0.7150
   21MOL   H42111661   7.117   1.006   3.824  1.2904 -0.4140 -0.0195
   21MOL   O42211662   6.692   1.075   3.900 -0.1632 -0.0901  0.7163
   21MOL   C42311663   6.687   0.937   3.894 -0.0393  0.3421 -0.2690
   21MOL   C42411664   6.562   0.909   3.816 -0.0529 -0.0679 -0.6803
   21MOL   O42511665   6.582   0.976   3.692  0.4254  0.4370 -0.0153
   21MOL   C42611666   6.528   0.760   3.798  0.2341 -0.1335  0.3373
   21MOL   C42711667   6.397   0.740   3.719 -0.0603 -0.0907 -0.0504
   21MOL   C42811668   6.353   0.600   3.686  0.2279  0.1887  0.2923
   21MOL   O42911669   6.235   0.601   3.601 -0.0424 -0.5231 -0.3127
   21MOL   C43011670   6.343   0.508   3.810 -0.1633  0.2797  1.0513
   21MOL   C43111671   6.338   0.362   3.766 -0.6772 -0.8013 -0.3673
   21MOL   C43211672   6.464   0.537   3.910 -0.3910  0.2882  0.7976
   21MOL   C43311673   6.501   0.685   3.927 -0.1111  0.7369 -0.3632
   21MOL   H43411674   6.682   0.896   3.995 -3.2907  1.7184  0.1780
   21MOL   H43511675   6.773   0.891   3.846  1.4453 -1.5224  3.9413
   21MOL   H43611676   6.479   0.960   3.865 -0.3342 -0.2597 -0.9535
   21MOL   H43711677   6.584   1.067   3.715 -0.3765  0.6800 -0.8776
   21MOL   H43811678   6.607   0.719   3.736  0.1446 -0.5737  0.5172
   21MOL   H43911679   6.317   0.795   3.770  1.0190  0.5011  1.0085
   21MOL   H44011680   6.408   0.788   3.622 -1.0556 -0.0170 -0.1371
   21MOL   H44111681   6.432   0.567   3.619 -0.1231 -2.1642  0.9767
   21MOL   H44211682   6.252   0.553   3.521  2.6775 -1.7483  0.9371
   21MOL   H44311683   6.250   0.547   3.851 -0.6737  0.5554 -0.3595
   21MOL   H44411684   6.256   0.359   3.695 -0.8256 -1.6306 -0.1672
   21MOL   H44511685   6.434   0.345   3.716 -0.7177  1.1951 -1.1745
   21MOL   H44611686   6.553   0.487   3.873 -2.1061 -1.4685 -1.0687
   21MOL   H44711687   6.439   0.499   4.010 -2.2631  1.5205  0.8344
   21MOL   H44811688   6.592   0.681   3.987  0.3695 -0.5563 -1.1343
   21MOL   H44911689   6.427   0.736   3.989  0.0885  2.3424 -1.4338
   21MOL   O45011690   6.321   0.276   3.871 -0.0879 -0.4663 -0.7751
   21MOL   C45111691   6.285   0.139   3.830 -0.4874  0.0046  0.2383
   21MOL   C45211692   6.271   0.049   3.960 -0.2369 -0.3105  0.2534
   21MOL   O45311693   6.387   0.080   4.034 -0.2521  0.0056  0.4975
   21MOL   C45411694   6.151   0.069   4.060 -0.2183  0.4108  0.0199
   21MOL   C45511695   6.150   0.204   4.144  0.7874  0.1543  0.8388
   21MOL   C45611696   6.022   0.229   4.220 -0.3043  0.1895 -1.1806
   21MOL   O45711697   6.036   0.325   4.322 -0.7923  0.3232  0.1427
   21MOL   C45811698   5.969   0.102   4.291 -0.3334 -0.6264 -0.1291
   21MOL   C45911699   5.820   0.110   4.341 -0.8110  0.1189  0.2544
   21MOL   C46011700   5.981   7.598   4.215 -0.5945  0.3820  0.8203
   21MOL   C46111701   6.122   7.585   4.157 -0.1824 -0.0103 -0.3513
   21MOL   H46211702   6.354   0.090   3.762 -2.9331  1.0494 -3.1388
   21MOL   H46311703   6.192   0.138   3.773  0.7012 -1.3621 -1.7576
   21MOL   H46411704   6.281   7.577   3.921  0.7788 -0.6730  1.4313
   21MOL   H46511705   6.374   0.171   4.056 -0.2178  0.5362 -1.5867
   21MOL   H46611706   6.074   0.075   3.983  0.5654 -0.2518 -0.8290
   21MOL   H46711707   6.229   0.181   4.216  1.1937 -1.9067 -0.2224
   21MOL   H46811708   6.194   0.289   4.093 -2.0843  2.4770  2.0923
   21MOL   H46911709   5.937   0.264   4.162 -0.1378  0.5365 -1.2161
   21MOL   H47011710   5.991   0.293   4.399 -1.1348 -0.4712 -0.3825
   21MOL   H47111711   6.022   0.104   4.387 -0.0163  1.0608 -0.3236
   21MOL   H47211712   5.753   0.103   4.256 -0.4603  0.4211 -0.0494
   21MOL   H47311713   5.806   0.028   4.412 -1.1270 -0.3280 -0.3216
   21MOL   H47411714   5.896   7.601   4.147 -0.4778 -2.3221  0.5157
   21MOL   H47511715   5.967   7.524   4.293 -1.2329 -0.9667 -0.5470
   21MOL   H47611716   6.134   7.491   4.102  0.2024 -1.0853  1.5112
   21MOL   H47711717   6.195   7.569   4.235 -2.5677 -0.2819  1.8958
   21MOL   O47811718   5.804   0.222   4.424  0.3680  0.0716  0.5338
   21MOL   C47911719   5.670   0.277   4.414  0.1089  0.2453  0.7476
   21MOL   C48011720   5.679   0.411   4.490 -0.1565  0.0052  0.2958
   21MOL   O48111721   5.768   0.492   4.410 -0.0661  0.4641 -0.7026
   21MOL   C48211722   5.543   0.487   4.486  0.8089  0.5708  0.6853
   21MOL   C48311723   5.479   0.529   4.349  0.1453 -0.1116  0.5120
   21MOL   C48411724   5.341   0.590   4.361  0.7724 -0.0384  0.2574
   21MOL   O48511725   5.279   0.599   4.236 -0.5741 -0.0077 -0.2235
   21MOL   C48611726   5.348   0.721   4.441 -0.9302  0.3134 -0.3960
   21MOL   C48711727   5.208   0.779   4.462 -0.6646 -0.0655  0.2112
   21MOL   C48811728   5.411   0.688   4.583 -0.1846  0.1925 -0.6572
   21MOL   C48911729   5.544   0.614   4.573 -0.0135 -0.2925 -0.3891
   21MOL   H49011730   5.605   0.202   4.459 -1.0963  1.6383  1.3516
   21MOL   H49111731   5.632   0.284   4.312  1.7660  0.0732  0.1108
   21MOL   H49211732   5.714   0.405   4.593 -1.2740  0.1757  0.6949
   21MOL   H49311733   5.838   0.436   4.380  0.1451  0.0672  0.4964
   21MOL   H49411734   5.467   0.421   4.526 -0.0575  0.8749 -0.4168
   21MOL   H49511735   5.536   0.598   4.288 -1.0233 -0.3414 -0.8763
   21MOL   H49611736   5.468   0.437   4.290  0.0180 -0.1749  0.6321
   21MOL   H49711737   5.276   0.528   4.423  0.5662  1.9414  2.0829
   21MOL   H49811738   5.334   0.652   4.180 -0.2588  0.1722  0.2539
   21MOL   H49911739   5.425   0.780   4.391  0.5046 -1.9653 -0.9826
   21MOL   H50011740   5.164   0.818   4.371  1.3411  0.1401 -0.6993
   21MOL   H50111741   5.146   0.691   4.481  0.3153 -0.8957 -0.3688
   21MOL   H50211742   5.346   0.624   4.642 -0.3746 -0.5802 -1.6831
   21MOL   H50311743   5.423   0.774   4.649  0.2696 -0.1408 -0.3117
   21MOL   H50411744   5.577   0.590   4.674 -0.5149 -0.8564 -0.3637
   21MOL   H50511745   5.616   0.684   4.530  0.5210  1.2615  2.8854
   21MOL   O50611746   5.204   0.882   4.570  0.0415  0.3486 -0.4418
   21MOL   C50711747   5.190   1.020   4.524 -0.3380 -0.0759 -0.5474
   21MOL   C50811748   5.323   1.099   4.513 -0.2012  0.1231 -0.0488
   21MOL   O50911749   5.359   1.114   4.378 -0.2566  0.1416 -0.6159
   21MOL   C51011750   5.321   1.237   4.590 -0.2081 -0.1122  0.3633
   21MOL   C51111751   5.218   1.331   4.520  0.4011 -0.0495 -0.4043
   21MOL   C51211752   5.206   1.471   4.583 -0.0472 -0.7526 -0.7415
   21MOL   O51311753   5.114   1.539   4.515  0.6324 -0.5325  0.2845
   21MOL   C51411754   5.343   1.543   4.585 -0.0651 -0.1765  0.0453
   21MOL   C51511755   5.341   1.677   4.669  0.7958  1.3540 -0.4139
   21MOL   C51611756   5.456   1.448   4.647  0.0270 -0.6730 -0.0370
   21MOL   C51711757   5.461   1.306   4.592  0.0164 -0.1135 -0.3228
   21MOL   H51811758   5.134   1.057   4.610  1.0958 -0.3077  0.4976
   21MOL   H51911759   5.119   1.025   4.441 -1.0773 -2.6014 -0.0933
   21MOL   H52011760   5.403   1.038   4.556 -1.0263  0.9533  2.7766
   21MOL   H52111761   5.445   1.153   4.382 -1.5092  2.9624 -0.6712
   21MOL   H52211762   5.293   1.227   4.695  0.1788  3.0283  0.7955
   21MOL   H52311763   5.238   1.345   4.414 -1.4577  3.4976 -0.3696
   21MOL   H52411764   5.118   1.286   4.520  0.6561 -0.6229  0.1407
   21MOL   H52511765   5.176   1.461   4.688 -2.3489  0.3071 -1.2803
   21MOL   H52611766   5.152   1.568   4.433  0.6817 -2.9500 -0.5820
   21MOL   H52711767   5.366   1.560   4.480  2.3663  2.3604  0.9207
   21MOL   H52811768   5.256   1.743   4.652 -0.2726  0.4349  1.2911
   21MOL   H52911769   5.339   1.649   4.774  0.5198 -0.9238 -1.0006
   21MOL   H53011770   5.438   1.455   4.754  0.0809  2.0698 -0.1527
   21MOL   H53111771   5.550   1.504   4.639  0.0109 -0.3206  1.9869
   21MOL   H53211772   5.539   1.248   4.642  0.4376  2.4359  2.1438
   21MOL   H53311773   5.498   1.322   4.491  0.8227 -3.0783 -0.5288
   21MOL   O53411774   5.460   1.750   4.652 -0.0012 -0.1533  0.0867
   21MOL   C53511775   5.478   1.856   4.745 -0.3347  0.4032 -0.2463
   21MOL   C53611776   5.622   1.908   4.745  0.2736 -0.1489 -0.0793
   21MOL   O53711777   5.705   1.804   4.794  0.0955 -0.0307 -0.4523
   21MOL   C53811778   5.684   1.961   4.611  0.1255 -0.3721 -0.9827
   21MOL   C53911779   5.836   1.992   4.620 -0.1801  0.0125 -0.4406
   21MOL   C54011780   5.906   2.032   4.485  0.8535  0.2738 -0.2258
   21MOL   O54111781   6.043   2.065   4.517  0.1255  0.3231  0.4434
   21MOL   C54211782   5.827   2.154   4.424 -0.0492  0.8172  0.3319
   21MOL   C54311783   5.872   2.183   4.281  0.4667 -0.2110 -0.4509
   21MOL   C54411784   5.678   2.133   4.425  0.5453 -0.1595  0.1251
   21MOL   C54511785   5.618   2.092   4.560  0.1257 -0.6960 -0.6207
   21MOL   H54611786   5.449   1.825   4.845  0.7693  0.2897  0.0479
   21MOL   H54711787   5.405   1.929   4.710 -0.7122  1.3380  2.3752
   21MOL   H54811788   5.628   1.985   4.822  1.8430  1.0988 -1.4005
   21MOL   H54911789   5.718   1.746   4.721  1.6887 -1.0644  0.6322
   21MOL   H55011790   5.670   1.883   4.537 -2.4357  0.0297 -0.9542
   21MOL   H55111791   5.851   2.075   4.688  0.7999  1.1980 -2.0534
   21MOL   H55211792   5.884   1.898   4.650 -0.9295 -0.5150 -0.8855
   21MOL   H55311793   5.903   1.942   4.425 -0.1829 -1.0056  1.6772
   21MOL   H55411794   6.029   2.143   4.570  0.1727 -0.0602  1.0225
   21MOL   H55511795   5.854   2.232   4.495  2.4491 -0.6511  1.0734
   21MOL   H55611796   5.819   2.267   4.237  0.0684 -0.9846 -1.4700
   21MOL   H55711797   5.976   2.218   4.284 -0.2420  1.9947 -0.4635
   21MOL   H55811798   5.638   2.065   4.350 -0.6284  2.2148 -1.4837
   21MOL   H55911799   5.641   2.232   4.398 -3.5055 -0.7205  3.2072
   21MOL   H56011800   5.510   2.096   4.572  0.3398  2.1223  0.7991
   21MOL   H56111801   5.641   2.168   4.634  0.5834  0.9771 -2.4524
   21MOL   H56211802   5.857   2.095   4.219  0.8762 -2.3623  2.3653
   22MOL     O111803   2.791   3.193   2.969  0.2698 -0.8849 -0.4262
   22MOL     C211804   2.722   3.078   3.018  0.0330  0.7403  0.0932
   22MOL     C311805   2.567   3.115   3.009 -0.0583 -0.5657 -0.2748
   22MOL     O411806   2.559   3.145   2.871  0.6879 -0.8134  0.5171
   22MOL     C511807   2.463   3.007   3.051 -0.0457  0.4881  0.5204
   22MOL     C611808   2.446   2.994   3.199  0.0940  0.2460 -0.2219
   22MOL     C711809   2.333   2.895   3.238  0.1389 -0.8425 -0.2359
   22MOL     O811810   2.321   2.889   3.385 -0.4273 -0.4321  0.4684
   22MOL     C911811   2.357   2.757   3.164  0.6076  0.6363  0.1662
   22MOL    C1011812   2.236   2.672   3.194 -0.0481 -0.7616  0.1684
   22MOL    C1111813   2.376   2.783   3.018 -0.3376  0.6052 -0.0466
   22MOL    C1211814   2.496   2.875   2.993 -0.6809 -0.1206  0.2064
   22MOL    H1311815   2.740   3.070   3.125  1.5425 -0.2630 -0.2136
   22MOL    H1411816   2.738   2.987   2.959 -0.3474  0.4228  0.4705
   22MOL    H1511817   2.531   3.203   3.063 -0.2316 -0.7318 -0.1176
   22MOL    H1611818   2.467   3.130   2.857  0.2770  1.8519  0.0644
   22MOL    H1711819   2.366   3.024   3.004  0.7807 -0.8493 -1.7579
   22MOL    H1811820   2.541   2.968   3.245  0.9600  0.4112 -1.8897
   22MOL    H1911821   2.422   3.088   3.249  1.6126  0.7194 -0.3537
   22MOL    H2011822   2.232   2.931   3.220 -0.4472 -2.4666 -0.3136
   22MOL    H2111823   2.276   2.808   3.406 -0.9476 -0.1775  0.3281
   22MOL    H2211824   2.445   2.716   3.214  0.6426 -0.3480 -0.6972
   22MOL    H2311825   2.142   2.728   3.186  1.4025  1.9635  1.7231
   22MOL    H2411826   2.252   2.584   3.131  0.9259 -0.8018  0.4662
   22MOL    H2511827   2.283   2.809   2.966 -0.2484 -1.3752 -1.2472
   22MOL    H2611828   2.389   2.691   2.962  0.0353  0.6081  0.0349
   22MOL    H2711829   2.502   2.876   2.884  1.3861  0.1725  0.2959
   22MOL    H2811830   2.591   2.831   3.025 -0.3552 -0.0369 -0.6346
   22MOL    H2911831   2.769   3.188   2.878  2.0933  0.6667 -0.9889
   22MOL    O3011832   2.232   2.641   3.334 -0.4027  0.4263 -0.0953
   22MOL    C3111833   2.129   2.545   3.361 -0.0017  0.0131 -0.2269
   22MOL    C3211834   2.112   2.529   3.508  0.9831  0.5190  0.0078
   22MOL    O3311835   2.229   2.470   3.557  0.0521  0.4619 -0.1670
   22MOL    C3411836   2.091   2.664   3.581 -0.3646 -0.3317 -0.0441
   22MOL    C3511837   2.092   2.645   3.736 -0.5028 -0.4824  0.4336
   22MOL    C3611838   2.050   2.764   3.822 -0.0865 -0.7067  0.2547
   22MOL    O3711839   2.044   2.722   3.957 -0.4529 -0.1301 -0.4153
   22MOL    C3811840   1.916   2.830   3.773 -0.0356 -0.7494 -1.1150
   22MOL    C3911841   1.879   2.958   3.850 -0.3455 -0.1482  1.1204
   22MOL    C4011842   1.915   2.857   3.623  0.1660  0.2602  0.1253
   22MOL    C4111843   1.956   2.730   3.537  0.4466 -0.3916 -0.2740
   22MOL    H4211844   2.156   2.449   3.317 -0.1902  0.1466 -0.6352
   22MOL    H4311845   2.028   2.560   3.322  0.1765  1.3461 -0.1922
   22MOL    H4411846   2.026   2.464   3.525  0.4113  1.7131  1.7946
   22MOL    H4511847   2.293   2.483   3.490  0.1251 -0.3629 -0.2623
   22MOL    H4611848   2.173   2.732   3.558  0.5498 -0.6970  2.0296
   22MOL    H4711849   2.022   2.567   3.764 -0.7005  0.4493  2.5808
   22MOL    H4811850   2.193   2.614   3.762  0.5759  1.3161 -1.4649
   22MOL    H4911851   2.122   2.845   3.812  1.2989 -1.7272  1.7209
   22MOL    H5011852   1.985   2.650   3.972  0.1102 -0.5989 -0.4318
   22MOL    H5111853   1.838   2.757   3.797 -0.8516  1.5084  3.8823
   22MOL    H5211854   1.945   2.974   3.935  0.6350  0.0880  0.3284
   22MOL    H5311855   1.904   3.048   3.795 -2.2549  1.1358  2.2936
   22MOL    H5411856   1.981   2.941   3.605 -0.6672  1.4569  2.4581
   22MOL    H5511857   1.823   2.906   3.591 -0.4252 -1.1428 -0.3807
   22MOL    H5611858   1.957   2.744   3.429  1.4820 -2.6090 -0.5694
   22MOL    H5711859   1.869   2.664   3.540 -0.1830  0.3615 -1.7438
   22MOL    O5811860   1.746   2.948   3.880  0.1162 -0.1580  0.0079
   22MOL    C5911861   1.713   3.020   3.998 -0.1432 -0.7726  0.9767
   22MOL    C6011862   1.567   2.981   4.020 -0.0122  0.3933 -0.0083
   22MOL    O6111863   1.554   3.024   4.156  0.0363 -0.1003 -0.2543
   22MOL    C6211864   1.464   3.059   3.926  0.6276 -0.0216  0.1698
   22MOL    C6311865   1.329   3.011   3.970 -0.0289  0.3827  0.7236
   22MOL    C6411866   1.226   3.080   3.893  0.3490  0.1539 -0.1344
   22MOL    O6511867   1.108   3.038   3.949 -0.3531  0.0341  0.3227
   22MOL    C6611868   1.238   3.061   3.735  0.6529 -0.5038 -0.7753
   22MOL    C6711869   1.135   3.147   3.660  0.3204  0.4338 -0.4976
   22MOL    C6811870   1.372   3.116   3.693 -0.3228 -0.0862 -0.4066
   22MOL    C6911871   1.476   3.034   3.772  1.1560  0.6385  0.0464
   22MOL    H7011872   1.724   3.128   3.986  0.8495 -1.0467 -0.6593
   22MOL    H7111873   1.774   2.989   4.083 -0.6531  1.2236  2.1229
   22MOL    H7211874   1.568   2.872   4.009 -1.4843  0.3861 -0.1307
   22MOL    H7311875   1.631   3.003   4.207  1.3219  1.0162 -1.6835
   22MOL    H7411876   1.471   3.165   3.949  0.9382 -0.3587  1.6616
   22MOL    H7511877   1.319   2.903   3.964 -0.1400  0.3711  1.0837
   22MOL    H7611878   1.311   3.028   4.076  1.4027 -2.9679  1.5697
   22MOL    H7711879   1.225   3.187   3.911  0.0113 -0.4000  3.5511
   22MOL    H7811880   1.086   2.950   3.923  0.9791 -0.1299 -0.3028
   22MOL    H7911881   1.222   2.957   3.709 -0.1196 -0.0467 -2.1594
   22MOL    H8011882   1.038   3.116   3.700  1.0124  0.7423  1.4725
   22MOL    H8111883   1.133   3.254   3.680 -0.9371  0.0366  1.6822
   22MOL    H8211884   1.395   3.222   3.708 -1.0672  0.0406 -0.1329
   22MOL    H8311885   1.387   3.106   3.586  2.7534  0.5532 -0.0809
   22MOL    H8411886   1.567   3.073   3.727  0.9105  0.2272 -0.8214
   22MOL    H8511887   1.457   2.931   3.740 -2.3398  0.8439  1.2451
   22MOL    O8611888   1.141   3.139   3.515  0.3060  0.0805  0.3679
   22MOL    C8711889   1.142   3.004   3.458 -0.8373 -0.5398 -0.5384
   22MOL    C8811890   1.012   2.920   3.494 -0.0128 -0.0714 -0.1004
   22MOL    O8911891   0.900   3.002   3.466 -0.2430 -0.3087 -0.1562
   22MOL    C9011892   1.000   2.785   3.418 -0.2400  0.0195  0.1539
   22MOL    C9111893   0.868   2.708   3.452 -0.2378  0.2755  0.4302
   22MOL    C9211894   0.865   2.569   3.368  0.2122  0.0969  0.2500
   22MOL    O9311895   0.753   2.500   3.423 -0.2574 -0.2027  0.5044
   22MOL    C9411896   0.992   2.480   3.400  0.1109  0.3302  0.3794
   22MOL    C9511897   0.987   2.345   3.318 -0.2041  0.1687 -0.3011
   22MOL    C9611898   1.122   2.560   3.359 -0.1240 -1.0089  0.5888
   22MOL    C9711899   1.123   2.691   3.437  0.3226  0.0121  0.1377
   22MOL    H9811900   1.232   2.951   3.489 -1.5068 -0.8596  0.8766
   22MOL    H9911901   1.152   3.013   3.350 -0.7101  3.2733 -0.2953
   22MOL   H10011902   1.021   2.896   3.600  1.7174  0.4912 -0.1090
   22MOL   H10111903   0.932   3.091   3.469  0.6990 -0.6051 -0.9416
   22MOL   H10211904   0.988   2.817   3.314 -0.1644  1.5240  0.6046
   22MOL   H10311905   0.874   2.678   3.556 -0.8339 -0.9448  0.1159
   22MOL   H10411906   0.779   2.770   3.440 -0.3607 -0.4350 -2.7927
   22MOL   H10511907   0.843   2.575   3.261  0.3146  1.1767  0.2898
   22MOL   H10611908   0.747   2.416   3.381  1.2538 -0.6114  1.0633
   22MOL   H10711909   0.990   2.453   3.505  0.1289 -0.8453  0.0920
   22MOL   H10811910   0.905   2.288   3.362  1.1333 -1.7442 -0.2318
   22MOL   H10911911   0.978   2.366   3.211  3.3919  0.9878 -0.5022
   22MOL   H11011912   1.115   2.576   3.251 -3.0021 -0.0322  0.8667
   22MOL   H11111913   1.217   2.509   3.373  0.3288 -0.1935  0.4854
   22MOL   H11211914   1.214   2.740   3.402 -0.9227  1.5224 -1.0990
   22MOL   H11311915   1.142   2.668   3.542 -1.5853  2.6325  1.1250
   22MOL   O11411916   1.107   2.267   3.335 -0.2688 -0.0658 -0.4981
   22MOL   C11511917   1.111   2.154   3.248 -0.2158 -0.3554 -0.8359
   22MOL   C11611918   1.159   2.190   3.108 -0.4225 -0.0749 -0.2099
   22MOL   O11711919   1.300   2.190   3.112  0.4760 -0.1091 -0.2259
   22MOL   C11811920   1.107   2.082   3.007 -0.1386 -0.2414  0.2291
   22MOL   C11911921   1.193   2.088   2.871  0.9017  0.3949  0.1249
   22MOL   C12011922   1.142   1.985   2.765  0.7380  0.0128 -0.4200
   22MOL   O12111923   1.210   1.995   2.647 -0.4340  0.4443 -0.2658
   22MOL   C12211924   0.988   1.984   2.743  0.7178  0.2599 -0.3177
   22MOL   C12311925   0.947   1.860   2.668  0.4915  0.2868  0.2071
   22MOL   C12411926   0.909   2.003   2.875 -1.0027 -0.4377 -0.4722
   22MOL   C12511927   0.963   2.115   2.967  0.3430  0.5315 -0.7375
   22MOL   H12611928   1.016   2.100   3.257 -0.0850 -0.1893  1.8526
   22MOL   H12711929   1.176   2.082   3.297  1.4414 -0.7676 -3.5653
   22MOL   H12811930   1.124   2.286   3.070 -1.5157 -1.1019 -1.8526
   22MOL   H12911931   1.324   2.235   3.192 -2.0063  1.2222 -0.1559
   22MOL   H13011932   1.133   1.984   3.048  3.4059  0.0436 -1.1606
   22MOL   H13111933   1.198   2.191   2.837  3.0319  0.2388 -0.1366
   22MOL   H13211934   1.292   2.055   2.902  1.3467  2.6140  1.1613
   22MOL   H13311935   1.167   1.886   2.806  0.8571 -0.3716 -1.4060
   22MOL   H13411936   1.192   2.080   2.610  0.2254  0.1882 -1.1871
   22MOL   H13511937   0.966   2.066   2.674 -1.3556  0.7938  0.9271
   22MOL   H13611938   1.007   1.849   2.578 -0.3803 -2.5773 -0.0818
   22MOL   H13711939   0.991   1.781   2.730  1.5669  0.7592  0.0590
   22MOL   H13811940   0.931   1.914   2.933  1.6522  1.0052  0.8319
   22MOL   H13911941   0.802   2.001   2.853 -0.7344 -1.7598 -1.7313
   22MOL   H14011942   0.908   2.128   3.060  0.8942 -0.7507 -0.2212
   22MOL   H14111943   0.951   2.209   2.913 -1.8837  0.2241 -0.8291
   22MOL   O14211944   0.801   1.863   2.644 -0.5439 -0.0001 -0.2539
   22MOL   C14311945   0.743   1.739   2.685  0.2525 -0.4491 -0.6531
   22MOL   C14411946   0.590   1.742   2.666 -0.0581 -0.1524 -0.4425
   22MOL   O14511947   0.535   1.855   2.733  0.6194  0.0270  0.2674
   22MOL   C14611948   0.546   1.734   2.518 -0.7246  0.2721 -0.3066
   22MOL   C14711949   0.389   1.722   2.530  0.2942 -0.2940  0.4238
   22MOL   C14811950   0.326   1.682   2.393  0.4406 -0.7142  0.4152
   22MOL   O14911951   0.196   1.640   2.418  0.4944  0.3450  0.5678
   22MOL   C15011952   0.398   1.574   2.304  0.0880 -0.2221 -0.1806
   22MOL   C15111953   0.357   1.589   2.152 -0.3190 -0.0349 -0.0664
   22MOL   C15211954   0.552   1.593   2.307 -0.2023 -0.0900  0.3893
   22MOL   C15311955   0.605   1.608   2.448 -0.2057 -0.1365 -0.2666
   22MOL   H15411956   0.767   1.722   2.790 -0.9380 -0.4005 -0.3694
   22MOL   H15511957   0.795   1.659   2.632 -0.2944 -1.0330 -0.3162
   22MOL   H15611958   0.551   1.655   2.718 -0.8144  0.1066 -0.5612
   22MOL   H15711959   0.581   1.932   2.703  1.5013 -1.0716 -1.2194
   22MOL   H15811960   0.579   1.824   2.467  0.3086 -0.4123 -0.8818
   22MOL   H15911961   0.356   1.658   2.611  1.7423 -1.0640  0.4087
   22MOL   H16011962   0.349   1.817   2.565 -1.3783 -0.9673  0.4133
   22MOL   H16111963   0.328   1.776   2.339 -0.4854 -0.2588  1.1670
   22MOL   H16211964   0.162   1.713   2.468 -1.5125 -1.7402  2.3609
   22MOL   H16311965   0.378   1.474   2.342 -2.4132 -0.0017 -0.8432
   22MOL   H16411966   0.249   1.571   2.148  0.1608 -2.9752 -1.6908
   22MOL   H16511967   0.386   1.681   2.102 -1.0824 -0.3879 -1.1956
   22MOL   H16611968   0.582   1.676   2.243  1.7446 -1.3119 -0.3356
   22MOL   H16711969   0.593   1.509   2.251 -0.5689 -1.4714  2.1575
   22MOL   H16811970   0.710   1.621   2.425  0.0106  0.3100  0.9437
   22MOL   H16911971   0.598   1.512   2.500 -0.1941 -0.7359 -1.3691
   22MOL   O17011972   0.397   1.480   2.079 -0.4377 -0.6108 -0.1533
   22MOL   C17111973   0.387   1.500   1.938  0.0422 -0.0986 -0.0938
   22MOL   C17211974   0.516   1.543   1.873  0.3285  0.8868 -0.3262
   22MOL   O17311975   0.538   1.465   1.755  0.2026 -0.2302 -0.1095
   22MOL   C17411976   0.537   1.691   1.836 -0.1546 -0.6211  0.5221
   22MOL   C17511977   0.463   1.747   1.718 -0.4811  0.4238  0.2385
   22MOL   C17611978   0.468   1.901   1.721  0.0946  0.4345  0.0391
   22MOL   O17711979   0.397   1.938   1.601 -0.0811 -0.3010 -0.9554
   22MOL   C17811980   0.616   1.946   1.707 -0.6328 -0.7982 -0.1393
   22MOL   C17911981   0.632   2.098   1.719 -0.4276  0.1314 -0.2655
   22MOL   C18011982   0.699   1.880   1.820  0.1444 -0.1921 -0.0492
   22MOL   C18111983   0.682   1.729   1.823 -0.2227 -0.1720 -0.4970
   22MOL   H18211984   0.306   1.568   1.911 -0.7788 -0.9354  0.2084
   22MOL   H18311985   0.362   1.404   1.893 -0.0359  0.3711 -1.0666
   22MOL   H18411986   0.598   1.503   1.933 -0.2355  1.3023  0.7309
   22MOL   H18511987   0.576   1.387   1.792  1.5012  0.8563  0.8752
   22MOL   H18611988   0.495   1.755   1.914 -1.7740  0.6124 -1.3127
   22MOL   H18711989   0.511   1.712   1.626 -1.4029 -3.0640  1.0233
   22MOL   H18811990   0.361   1.709   1.718 -1.0937  1.9474 -1.4180
   22MOL   H18911991   0.429   1.947   1.812  1.4935 -1.9898  1.9174
   22MOL   H19011992   0.305   1.941   1.619  0.3912  1.4778  1.3678
   22MOL   H19111993   0.652   1.926   1.606  0.1801 -2.0923  0.3942
   22MOL   H19211994   0.736   2.126   1.701 -0.3593  1.0008  1.4147
   22MOL   H19311995   0.568   2.151   1.648  2.0338  1.3580 -1.6424
   22MOL   H19411996   0.663   1.923   1.913  3.4710 -0.8149  1.6101
   22MOL   H19511997   0.803   1.906   1.803  0.0797 -1.6075 -3.0342
   22MOL   H19611998   0.732   1.690   1.912 -0.3501  0.0979 -0.3018
   22MOL   H19711999   0.730   1.681   1.738  1.2875  1.0822 -0.3669
   22MOL   O19812000   0.588   2.142   1.849 -0.0987 -0.5829  0.1657
   22MOL   C19912001   0.619   2.280   1.873  0.1010 -0.1078  0.0795
   22MOL   C20012002   0.551   2.316   2.005 -0.6539  0.0225  0.0991
   22MOL   O20112003   0.586   2.220   2.103 -0.4330  0.4396 -0.5421
   22MOL   C20212004   0.584   2.454   2.056  0.2853 -0.3978 -0.1699
   22MOL   C20312005   0.725   2.471   2.123 -0.3963 -0.1279 -0.7388
   22MOL   C20412006   0.752   2.613   2.166  0.4073  0.3620 -0.5522
   22MOL   O20512007   0.870   2.611   2.245  0.5498 -0.2806 -0.5061
   22MOL   C20612008   0.642   2.669   2.255  0.6217 -0.3965 -0.3478
   22MOL   C20712009   0.658   2.819   2.296  0.1303 -0.2525 -0.1112
   22MOL   C20812010   0.502   2.648   2.187 -0.2651 -1.0886  0.6680
   22MOL   C20912011   0.473   2.501   2.156 -0.3811  0.3868  0.9625
   22MOL   H21012012   0.579   2.344   1.795  0.2735 -0.0171  0.0638
   22MOL   H21112013   0.728   2.282   1.872  0.1071 -0.5080 -0.1994
   22MOL   H21212014   0.443   2.309   1.987 -0.5075  0.4750 -0.9792
   22MOL   H21312015   0.605   2.142   2.054  1.0904 -0.4083  1.3411
   22MOL   H21412016   0.588   2.528   1.976 -0.4742  1.0243  1.0882
   22MOL   H21512017   0.720   2.418   2.217 -1.9015  0.0507 -0.7155
   22MOL   H21612018   0.810   2.428   2.069 -0.3747  0.7967 -1.4560
   22MOL   H21712019   0.754   2.685   2.084 -2.2334  0.0118 -0.9626
   22MOL   H21812020   0.941   2.577   2.192  2.7192 -1.3491  2.9000
   22MOL   H21912021   0.643   2.611   2.348  1.0973  1.3963  0.8038
   22MOL   H22012022   0.755   2.843   2.339  1.1960 -1.3388 -1.8191
   22MOL   H22112023   0.653   2.881   2.206  0.2024  0.6966  0.5303
   22MOL   H22212024   0.511   2.697   2.090 -0.7150 -1.0454  0.6483
   22MOL   H22312025   0.428   2.695   2.252  0.4124 -1.0214  1.4038
   22MOL   H22412026   0.378   2.507   2.102  0.0241  3.1400  0.4622
   22MOL   H22512027   0.480   2.435   2.243 -2.4070  0.9343  1.5752
   22MOL   O22612028   0.558   2.854   2.385 -0.3595  0.0801 -0.1585
   22MOL   C22712029   0.560   2.992   2.415 -0.1388  0.1036  0.1246
   22MOL   C22812030   0.466   3.014   2.536 -0.1013  0.4978  0.4664
   22MOL   O22912031   0.540   3.082   2.639  0.0414 -0.1018 -0.4826
   22MOL   C23012032   0.341   3.109   2.509  0.4088  0.0061 -0.0414
   22MOL   C23112033   0.242   3.029   2.430  0.0720 -0.4307 -0.8177
   22MOL   C23212034   0.107   3.096   2.408  0.4245 -0.0102 -0.3133
   22MOL   O23312035   0.031   3.021   2.317 -0.4463 -0.3003  0.4034
   22MOL   C23412036   0.122   3.241   2.362  0.1150 -0.4901  0.2844
   22MOL   C23512037   7.614   3.310   2.369 -0.8929 -0.4911 -0.1168
   22MOL   C23612038   0.232   3.320   2.440  0.0170 -0.3419  0.2476
   22MOL   C23712039   0.361   3.248   2.439 -0.6358 -0.3590  0.0160
   22MOL   H23812040   0.510   3.042   2.332 -0.3386  0.8829  0.7139
   22MOL   H23912041   0.657   3.040   2.431 -0.3773  0.1478  1.4965
   22MOL   H24012042   0.430   2.923   2.585  0.3160  0.4267  0.6389
   22MOL   H24112043   0.545   3.020   2.710  0.7808 -1.1163 -1.3918
   22MOL   H24212044   0.298   3.121   2.609 -0.1668 -1.9960 -0.0255
   22MOL   H24312045   0.291   2.998   2.337  1.4679 -0.3780 -0.1081
   22MOL   H24412046   0.222   2.936   2.483  0.4601  1.9642  3.7466
   22MOL   H24512047   0.049   3.092   2.501 -0.3718 -0.3868 -0.8146
   22MOL   H24612048   7.582   3.072   2.308  0.9022  2.3933  2.9897
   22MOL   H24712049   0.146   3.241   2.256  2.2159 -1.1463  0.7466
   22MOL   H24812050   7.590   3.313   2.475  0.1245 -0.0046  0.1095
   22MOL   H24912051   7.615   3.414   2.336 -0.7741 -1.3091 -2.8208
   22MOL   H25012052   0.196   3.332   2.543  0.0695  0.7971  0.1410
   22MOL   H25112053   0.242   3.420   2.399 -0.7255 -0.4477 -0.1838
   22MOL   H25212054   0.444   3.304   2.483 -0.4710  0.6961 -1.6189
   22MOL   H25312055   0.397   3.231   2.338 -0.1773  3.1369 -0.4478
   22MOL   O25412056   7.517   3.239   2.292 -0.1913  0.7566  0.1335
   22MOL   C25512057   7.395   3.311   2.281  0.3621 -0.1748 -0.2488
   22MOL   C25612058   7.318   3.238   2.171 -0.5105 -0.1360 -1.0176
   22MOL   O25712059   7.201   3.311   2.155 -0.4459 -0.6226 -0.2086
   22MOL   C25812060   7.394   3.227   2.032  0.0842 -0.5031  0.1392
   22MOL   C25912061   7.427   3.362   1.967  0.3376  0.1295 -0.4429
   22MOL   C26012062   7.505   3.339   1.839  0.1659  0.0370  0.1952
   22MOL   O26112063   7.504   3.473   1.784  0.1354  0.3317  0.4330
   22MOL   C26212064   7.447   3.239   1.730  0.8633 -0.3953 -0.5371
   22MOL   C26312065   7.547   3.204   1.624 -0.2095  0.1613 -0.6905
   22MOL   C26412066   7.412   3.104   1.812  0.2015 -0.0639 -0.1543
   22MOL   C26512067   7.319   3.131   1.930  0.6212 -0.4699  1.0858
   22MOL   H26612068   7.404   3.414   2.248 -5.2263  1.4345  2.5909
   22MOL   H26712069   7.335   3.312   2.372  2.3110  1.0954  1.0512
   22MOL   H26812070   7.286   3.142   2.210 -1.9008 -0.0060 -1.8040
   22MOL   H26912071   7.184   3.347   2.241 -2.3159 -1.2711 -0.2862
   22MOL   H27012072   7.493   3.183   2.048  0.6532  1.5803  2.5764
   22MOL   H27112073   7.327   3.403   1.952  0.2538  0.2123  0.3418
   22MOL   H27212074   7.476   3.433   2.033 -1.0551  0.4665  0.2420
   22MOL   H27312075   7.609   3.312   1.855  0.1472  0.3120  0.7760
   22MOL   H27412076   7.586   3.475   1.736 -1.0213 -1.4903 -1.7672
   22MOL   H27512077   7.357   3.286   1.691  2.7354  2.7505 -1.2803
   22MOL   H27612078   7.586   3.294   1.576  0.1956  0.5251  0.3254
   22MOL   H27712079   0.001   3.144   1.660 -1.2066 -1.1967 -0.6002
   22MOL   H27812080   7.500   3.057   1.854  0.4380 -0.7737 -1.4162
   22MOL   H27912081   7.368   3.034   1.742  2.1789  0.4809 -2.0078
   22MOL   H28012082   7.291   3.036   1.977 -1.8159  1.0470  2.8451
   22MOL   H28112083   7.224   3.174   1.897  1.8224  1.5784  0.2087
   22MOL   O28212084   7.469   3.126   1.535 -0.4677  0.0333  0.4443
   22MOL   C28312085   7.548   3.070   1.436 -0.5269 -0.4076 -0.1058
   22MOL   C28412086   7.590   2.926   1.468 -0.5124  0.3771 -0.3472
   22MOL   O28512087   7.476   2.845   1.496  0.4406 -0.3831 -0.1325
   22MOL   C28612088   0.026   2.860   1.344 -0.6712 -0.7012  0.3619
   22MOL   C28712089   0.075   2.715   1.375 -0.2232  0.0540 -0.1367
   22MOL   C28812090   0.136   2.637   1.256  0.1291 -0.1597  0.4484
   22MOL   O28912091   0.192   2.517   1.309 -0.3191  0.3257 -0.2745
   22MOL   C29012092   0.246   2.716   1.189 -0.0352  0.6135  0.9051
   22MOL   C29112093   0.297   2.642   1.061 -0.5050 -0.0133  1.1320
   22MOL   C29212094   0.198   2.860   1.148 -0.3787  0.1205 -0.1275
   22MOL   C29312095   0.139   2.938   1.268 -0.0748 -0.1956 -0.0681
   22MOL   H29412096   0.008   3.129   1.416 -2.2188  2.4543  0.3316
   22MOL   H29512097   7.479   3.077   1.352 -0.6677 -0.4356  0.0080
   22MOL   H29612098   0.027   2.927   1.555 -1.8252 -3.9152  0.8365
   22MOL   H29712099   7.423   2.906   1.545  2.0662  0.9943 -0.0066
   22MOL   H29812100   7.576   2.856   1.269 -0.3213  3.0017 -0.2882
   22MOL   H29912101   0.153   2.729   1.450 -0.4157  2.4757 -0.3382
   22MOL   H30012102   7.622   2.662   1.422 -1.3372  2.2281  0.4137
   22MOL   H30112103   0.062   2.601   1.185  0.7361  1.0638 -0.8336
   22MOL   H30212104   0.183   2.449   1.244 -0.7006  0.2730 -0.1654
   22MOL   H30312105   0.325   2.719   1.263 -0.0910  1.0908  0.9497
   22MOL   H30412106   0.347   2.552   1.098 -0.7822 -1.4083 -1.7276
   22MOL   H30512107   0.207   2.614   1.006 -0.2500 -1.0150  1.2159
   22MOL   H30612108   0.117   2.845   1.077  0.2702 -1.4714 -0.5710
   22MOL   H30712109   0.281   2.920   1.109 -2.4565  0.7124 -3.9293
   22MOL   H30812110   0.097   3.030   1.229 -2.0840 -0.8499  0.5261
   22MOL   H30912111   0.224   2.968   1.330 -0.4212 -0.0222  0.3273
   22MOL   O31012112   0.395   2.720   0.993 -0.6031 -0.1521  0.4006
   22MOL   C31112113   0.414   2.666   0.865  0.1901  0.9855 -0.0230
   22MOL   C31212114   0.476   2.758   0.758 -0.0793  0.3203 -0.2055
   22MOL   O31312115   0.615   2.770   0.808  0.3463 -0.4054 -0.2144
   22MOL   C31412116   0.481   2.696   0.617  0.5013 -0.3211 -0.2779
   22MOL   C31512117   0.537   2.547   0.608  0.3326 -0.7961  0.0025
   22MOL   C31612118   0.527   2.489   0.472  0.4514  0.0586 -0.6426
   22MOL   O31712119   0.588   2.364   0.462 -0.0569  0.2051 -0.0699
   22MOL   C31812120   0.592   2.572   0.364  0.0476  0.5089  0.0017
   22MOL   C31912121   0.585   2.527   0.217 -0.1312 -0.3249  0.4401
   22MOL   C32012122   0.555   2.719   0.373  0.4342  0.3403 -0.1668
   22MOL   C32112123   0.559   2.784   0.512  0.4985 -0.4692 -0.7911
   22MOL   H32212124   0.322   2.631   0.818  1.5344  0.3807 -2.2828
   22MOL   H32312125   0.478   2.578   0.877  0.0992  0.8320 -0.6385
   22MOL   H32412126   0.423   2.853   0.762 -0.0603  0.3577 -0.8240
   22MOL   H32512127   0.606   2.825   0.884  2.2149  0.3256 -0.5016
   22MOL   H32612128   0.381   2.695   0.573  0.4614 -1.1920 -0.1747
   22MOL   H32712129   0.634   2.536   0.656 -0.2085  0.8136  1.5041
   22MOL   H32812130   0.479   2.490   0.680 -1.2737  0.8856  0.0648
   22MOL   H32912131   0.421   2.479   0.450  0.1772  0.7339  0.3372
   22MOL   H33012132   0.676   2.370   0.495 -0.3883  0.6827  0.7206
   22MOL   H33112133   0.699   2.573   0.381  0.6366 -1.5001 -3.2219
   22MOL   H33212134   0.603   2.420   0.210 -1.2865 -0.6344  1.9959
   22MOL   H33312135   0.492   2.544   0.163 -0.0678 -2.5617 -0.4327
   22MOL   H33412136   0.453   2.734   0.336  0.3343 -0.0381 -0.0571
   22MOL   H33512137   0.621   2.770   0.303 -0.8559  2.9972  0.5027
   22MOL   H33612138   0.499   2.874   0.500 -0.6481 -1.5871 -3.8191
   22MOL   H33712139   0.655   2.827   0.540 -1.1513  2.2817  0.7987
   22MOL   O33812140   0.685   2.587   0.134  0.2136  0.1793  0.0271
   22MOL   C33912141   0.678   2.542   0.001 -0.5424 -0.5947  0.2218
   22MOL   C34012142   0.809   2.461   7.593  0.8328 -0.4055 -0.4071
   22MOL   O34112143   0.908   2.551   7.549  0.3739  0.3877  0.3271
   22MOL   C34212144   0.862   2.369   0.075  0.3270 -0.1240  0.4852
   22MOL   C34312145   0.943   2.422   0.190  1.0384  0.6824  0.2573
   22MOL   C34412146   0.944   2.318   0.309 -0.0091 -0.0271 -0.7023
   22MOL   O34512147   1.021   2.374   0.413 -0.2606 -0.4119 -0.0094
   22MOL   C34612148   1.021   2.195   0.258 -0.0030  0.1829  0.3781
   22MOL   C34712149   1.037   2.085   0.368 -0.3526  0.5583  0.1435
   22MOL   C34812150   0.971   2.148   0.124  0.0212  0.2375 -0.2611
   22MOL   C34912151   0.936   2.254   0.011 -0.7720  0.7063  0.0180
   22MOL   H35012152   0.684   2.633   7.571  0.6333 -0.3685  0.6717
   22MOL   H35112153   0.585   2.496   7.597  0.6995 -1.8228 -1.6167
   22MOL   H35212154   0.778   2.399   7.508 -2.0340 -2.0374  1.7333
   22MOL   H35312155   0.906   2.620   7.613 -1.0197  0.4816  0.1893
   22MOL   H35412156   0.769   2.333   0.120 -0.5186  0.1923 -0.9585
   22MOL   H35512157   1.043   2.459   0.165  0.5986  0.1848 -2.3975
   22MOL   H35612158   0.886   2.507   0.225 -0.3000 -0.2855  0.4419
   22MOL   H35712159   0.840   2.301   0.338  0.1744  0.3745  0.2041
   22MOL   H35812160   1.109   2.390   0.383  0.1348  1.1415  1.8757
   22MOL   H35912161   1.126   2.223   0.247  0.7838 -0.9863  3.9959
   22MOL   H36012162   1.089   2.131   0.452  0.4617 -0.4460  0.1928
   22MOL   H36112163   0.939   2.044   0.390  0.2073 -1.5340 -1.1162
   22MOL   H36212164   0.880   2.087   0.132 -1.8025  2.9276  0.1779
   22MOL   H36312165   1.043   2.085   0.071  0.7690  1.4000 -0.6344
   22MOL   H36412166   0.873   2.209   7.564  0.9337 -0.2874 -0.8469
   22MOL   H36512167   1.031   2.281   7.593 -0.3739 -0.2020  0.2902
   22MOL   O36612168   1.127   1.982   0.328 -0.0131 -0.3214 -0.0647
   22MOL   C36712169   1.173   1.905   0.434 -0.2565 -0.1900  0.8844
   22MOL   C36812170   1.286   1.800   0.398 -0.0662  0.0899  0.4152
   22MOL   O36912171   1.404   1.877   0.355  0.4234 -0.8967  0.2020
   22MOL   C37012172   1.316   1.701   0.508 -0.7590 -0.1446  0.2641
   22MOL   C37112173   1.362   1.775   0.640 -0.1766 -0.3327  0.3251
   22MOL   C37212174   1.412   1.671   0.747 -0.7616 -0.3297 -0.3399
   22MOL   O37312175   1.462   1.749   0.853  0.1355 -0.1575  0.2150
   22MOL   C37412176   1.511   1.570   0.694 -0.5668  0.2341  0.6804
   22MOL   C37512177   1.545   1.469   0.804 -0.2581  0.6600 -0.0362
   22MOL   C37612178   1.454   1.502   0.568 -0.4253  0.2712  0.0016
   22MOL   C37712179   1.422   1.602   0.454  0.0197 -0.1360 -0.2608
   22MOL   H37812180   1.086   1.867   0.487 -0.8254  1.5814  1.2695
   22MOL   H37912181   1.217   1.974   0.506 -0.3647  1.0747 -0.2455
   22MOL   H38012182   1.255   1.758   0.303  1.9779  0.0633 -0.2545
   22MOL   H38112183   1.399   1.960   0.399  0.1859 -0.4852 -0.6097
   22MOL   H38212184   1.226   1.654   0.547 -0.6910  0.7106  1.5042
   22MOL   H38312185   1.437   1.846   0.606 -2.9111  0.1032 -5.4873
   22MOL   H38412186   1.278   1.828   0.685 -1.9647 -1.9585 -1.0132
   22MOL   H38512187   1.338   1.618   0.808 -1.4754  1.8085  0.7148
   22MOL   H38612188   1.535   1.802   0.825 -1.0561  1.9439  0.9465
   22MOL   H38712189   1.604   1.621   0.668  0.3482 -0.9396  1.5566
   22MOL   H38812190   1.612   1.395   0.760  0.6145  1.7073 -0.5085
   22MOL   H38912191   1.591   1.520   0.889 -0.0509  0.2310  0.1072
   22MOL   H39012192   1.361   1.449   0.591  0.9612 -2.6486 -0.9386
   22MOL   H39112193   1.524   1.433   0.522  1.1087  2.8226 -1.5786
   22MOL   H39212194   1.386   1.556   0.362  0.0726 -0.6602 -0.0183
   22MOL   H39312195   1.509   1.663   0.428  0.3872  0.0217  1.3332
   22MOL   O39412196   1.442   1.393   0.858 -0.2829 -0.0488 -0.0554
   22MOL   C39512197   1.483   1.280   0.925 -0.2939 -0.1598 -0.1999
   22MOL   C39612198   1.361   1.218   0.997 -0.6151  0.2802  0.1397
   22MOL   O39712199   1.351   1.301   1.107  0.4311  0.1053 -0.0957
   22MOL   C39812200   1.227   1.210   0.928  0.5535  0.5810  0.2715
   22MOL   C39912201   1.130   1.330   0.939  0.1836 -0.6940 -0.3006
   22MOL   C40012202   0.998   1.313   0.859 -0.1640  0.3729 -0.3370
   22MOL   O40112203   0.918   1.428   0.889  1.3101 -0.7121  0.1253
   22MOL   C40212204   0.923   1.187   0.910  0.7382  0.2801  0.8246
   22MOL   C40312205   0.791   1.167   0.832  0.1213  0.3651 -0.2573
   22MOL   C40412206   1.013   1.061   0.898 -0.8730 -0.2265 -0.0891
   22MOL   C40512207   1.159   1.076   0.961 -0.8211 -0.3755  0.6569
   22MOL   H40612208   1.560   1.303   0.998  0.1833 -0.8851 -0.4684
   22MOL   H40712209   1.536   1.209   0.862  1.4890  1.0012 -0.0586
   22MOL   H40812210   1.406   1.125   1.032  1.8217  0.9728 -1.0490
   22MOL   H40912211   1.356   1.388   1.069 -0.0147 -0.1560 -0.7752
   22MOL   H41012212   1.258   1.212   0.824  1.4326  0.7000  0.5298
   22MOL   H41112213   1.098   1.344   1.042 -0.3008 -0.1922 -0.5179
   22MOL   H41212214   1.165   1.420   0.888 -0.7224 -0.2452 -0.1483
   22MOL   H41312215   1.002   1.319   0.750  0.6921 -0.4383 -0.3497
   22MOL   H41412216   0.887   1.435   0.978  0.2230 -0.2778 -0.2692
   22MOL   H41512217   0.889   1.203   1.013 -1.6063  0.6380  0.0219
   22MOL   H41612218   0.730   1.253   0.857  0.0793  0.6024 -1.1973
   22MOL   H41712219   0.792   1.187   0.725  0.7844  0.1043 -0.3021
   22MOL   H41812220   1.032   1.038   0.793 -1.6395 -0.7281 -0.1271
   22MOL   H41912221   0.963   0.973   0.939  0.3367 -0.4253  1.0060
   22MOL   H42012222   1.220   0.992   0.926 -0.0297  0.1929  0.6670
   22MOL   H42112223   1.150   1.063   1.069 -0.1405 -0.6179  0.6871
   22MOL   O42212224   0.728   1.049   0.874 -0.8475  0.1910  0.3110
   22MOL   C42312225   0.587   1.063   0.908 -0.5832 -0.0915  0.8977
   22MOL   C42412226   0.532   0.928   0.970  0.7942  0.4970 -1.0402
   22MOL   O42512227   0.479   0.852   0.862 -0.1808  0.0631 -0.4895
   22MOL   C42612228   0.623   0.838   1.051 -0.2498 -0.9822 -0.1104
   22MOL   C42712229   0.558   0.698   1.091 -0.8008 -0.5575  0.8391
   22MOL   C42812230   0.659   0.614   1.152 -0.3137  0.1929 -0.0721
   22MOL   O42912231   0.587   0.510   1.213 -0.7835  0.3194 -0.2936
   22MOL   C43012232   0.743   0.680   1.264  0.0449  0.8106  0.0142
   22MOL   C43112233   0.863   0.585   1.308  0.5042 -0.1414 -0.0892
   22MOL   C43212234   0.802   0.816   1.219 -0.3998 -0.2271  0.3588
   22MOL   C43312235   0.689   0.910   1.169  0.0120 -0.8317  0.2256
   22MOL   H43412236   0.535   1.084   0.815 -2.8823 -2.8192  1.5066
   22MOL   H43512237   0.557   1.134   0.984  0.2420  0.8346  0.3650
   22MOL   H43612238   0.439   0.953   1.021 -0.2285 -0.4848 -2.3852
   22MOL   H43712239   0.540   0.849   0.789 -1.0761 -0.6555 -1.2227
   22MOL   H43812240   0.701   0.820   0.977  0.1114  0.0809  0.0016
   22MOL   H43912241   0.471   0.716   1.154 -2.6059 -1.5932 -1.3166
   22MOL   H44012242   0.518   0.643   1.006 -0.9189  0.8807 -0.0482
   22MOL   H44112243   0.724   0.579   1.072 -0.2465 -0.2707  0.1849
   22MOL   H44212244   0.518   0.478   1.157  1.0409 -1.0552 -1.8261
   22MOL   H44312245   0.678   0.696   1.350 -1.0513 -1.2929 -0.3793
   22MOL   H44412246   0.821   0.488   1.332 -2.9766  1.3089  0.0994
   22MOL   H44512247   0.931   0.566   1.225  1.5031 -0.0853  0.7076
   22MOL   H44612248   0.877   0.792   1.144  0.3261 -0.1197  1.0422
   22MOL   H44712249   0.842   0.863   1.309 -0.7179  2.4437 -0.8369
   22MOL   H44812250   0.734   0.999   1.124 -2.4383 -0.1124 -0.9330
   22MOL   H44912251   0.607   0.935   1.236  0.0122 -0.8796  0.2432
   22MOL   O45012252   0.936   0.640   1.418 -0.3002 -0.4714 -0.2935
   22MOL   C45112253   1.039   0.553   1.471  0.1101 -0.2645 -0.4527
   22MOL   C45212254   1.180   0.566   1.394  0.3723 -0.1603  0.0742
   22MOL   O45312255   1.190   0.703   1.376  0.0580  0.8373  0.2528
   22MOL   C45412256   1.299   0.500   1.453 -0.0779  0.0174  0.1552
   22MOL   C45512257   1.425   0.525   1.371  0.5001  0.6816  0.3780
   22MOL   C45612258   1.538   0.471   1.457  0.0087 -0.4432  0.3053
   22MOL   O45712259   1.654   0.498   1.376  0.3254  0.0442 -0.3008
   22MOL   C45812260   1.525   0.319   1.487 -0.1351 -0.0095 -0.2178
   22MOL   C45912261   1.633   0.270   1.585 -1.2862 -0.4471  0.4564
   22MOL   C46012262   1.383   0.276   1.537 -0.0854 -0.0234 -0.0845
   22MOL   C46112263   1.273   0.347   1.469  0.2562 -1.0418  0.3747
   22MOL   H46212264   1.007   0.449   1.471  1.4592 -0.6936  0.4736
   22MOL   H46312265   1.041   0.581   1.576  0.4431  1.7029 -0.9622
   22MOL   H46412266   1.175   0.526   1.293  1.4686  2.3046 -1.0172
   22MOL   H46512267   1.101   0.734   1.384 -0.6656 -0.9667 -0.5201
   22MOL   H46612268   1.305   0.543   1.553 -0.9894  1.3694 -0.3591
   22MOL   H46712269   1.415   0.478   1.274  0.6703 -1.2894  1.2859
   22MOL   H46812270   1.428   0.634   1.362  0.5383  0.5455 -1.3644
   22MOL   H46912271   1.553   0.536   1.542  0.5377  0.7656 -0.6972
   22MOL   H47012272   1.706   0.556   1.429  0.0973 -0.4192  0.4439
   22MOL   H47112273   1.533   0.271   1.390  2.9466  1.9637 -1.0181
   22MOL   H47212274   1.732   0.274   1.541 -1.5552  2.2126 -0.0236
   22MOL   H47312275   1.626   0.327   1.678  2.5783  0.6437  0.1727
   22MOL   H47412276   1.382   0.290   1.645 -2.2559  2.1780 -0.3313
   22MOL   H47512277   1.365   0.170   1.519  0.8644 -0.4726  1.5109
   22MOL   H47612278   1.179   0.335   1.524  0.7432 -0.7357  1.2912
   22MOL   H47712279   1.254   0.309   1.369  1.7906  2.9488 -1.5764
   22MOL   O47812280   1.595   0.146   1.628 -0.5103  0.1711  0.1977
   22MOL   C47912281   1.709   0.062   1.646 -0.0750  0.3160  0.0197
   22MOL   C48012282   1.643   7.552   1.647  0.2148  0.1488 -0.2495
   22MOL   O48112283   1.537   7.553   1.749  0.2600 -0.4196  0.0930
   22MOL   C48212284   1.602   7.492   1.512 -0.0073  0.3104  0.5964
   22MOL   C48312285   1.448   7.481   1.483 -0.6166  0.0611  0.0857
   22MOL   C48412286   1.418   7.429   1.344 -0.2568 -0.4537 -0.6736
   22MOL   O48512287   1.281   7.428   1.316  0.8269  0.3207  0.3070
   22MOL   C48612288   1.477   7.290   1.325 -0.2675  0.3103  0.0357
   22MOL   C48712289   1.448   7.215   1.194 -0.2839  0.0322 -0.0492
   22MOL   C48812290   1.624   7.283   1.363  0.0330 -0.0433  0.7600
   22MOL   C48912291   1.659   7.348   1.498  0.0192  0.3587 -0.0078
   22MOL   H49012292   1.763   0.096   1.735 -0.1133  0.2486  0.0689
   22MOL   H49112293   1.777   0.063   1.561  2.8682  0.6458  2.2920
   22MOL   H49212294   1.712   7.478   1.689  1.1129 -0.1115 -2.1448
   22MOL   H49312295   1.475   7.623   1.730 -2.3873 -1.9667  2.6269
   22MOL   H49412296   1.649   7.551   1.434 -0.2455 -0.6673 -0.2969
   22MOL   H49512297   1.390   7.424   1.556 -1.5322  0.7860 -0.0675
   22MOL   H49612298   1.401   7.577   1.503  1.5520  1.3417 -0.8219
   22MOL   H49712299   1.457   7.509   1.281 -0.8830 -0.1938 -0.7359
   22MOL   H49812300   1.241   7.513   1.330 -0.7345 -0.1333 -1.1730
   22MOL   H49912301   1.416   7.235   1.397 -0.7347 -0.6308 -1.0613
   22MOL   H50012302   1.494   7.117   1.204 -2.4102 -0.9075  0.8707
   22MOL   H50112303   1.344   7.199   1.167 -0.3046 -1.1251  0.6639
   22MOL   H50212304   1.678   7.320   1.276  0.1485 -1.6494  0.1366
   22MOL   H50312305   1.649   7.177   1.372  0.3180 -0.1016 -0.6631
   22MOL   H50412306   1.767   7.358   1.502 -0.2719  3.3154  2.1959
   22MOL   H50512307   1.639   7.295   1.591 -0.5091  1.6215  0.6154
   22MOL   O50612308   1.515   7.267   1.076  0.6422 -0.0521 -0.4587
   22MOL   C50712309   1.440   7.363   1.009 -0.4071 -0.3932 -0.3461
   22MOL   C50812310   1.419   7.321   0.867 -0.1448  0.5828  0.1132
   22MOL   O50912311   1.537   7.280   0.807  0.2574 -0.0101 -0.3990
   22MOL   C51012312   1.324   7.203   0.847 -0.8786 -0.0913 -0.1073
   22MOL   C51112313   1.374   7.065   0.884 -0.6049  0.0176  0.4905
   22MOL   C51212314   1.251   6.972   0.900 -0.9889 -0.1465 -0.2366
   22MOL   O51312315   1.294   6.845   0.948  0.5352  0.2907 -0.3146
   22MOL   C51412316   1.169   6.966   0.765  0.1973 -0.7858 -0.2671
   22MOL   C51512317   1.048   6.863   0.776 -0.0855  0.1560  0.5083
   22MOL   C51612318   1.132   7.106   0.717 -0.1902  0.6934  0.3881
   22MOL   C51712319   1.258   7.193   0.709  0.3046 -0.0453 -0.1433
   22MOL   H51812320   1.496   7.456   1.017  0.3077 -0.8075 -0.5263
   22MOL   H51912321   1.345   7.384   1.058  1.3352  1.8999  2.2311
   22MOL   H52012322   1.390   7.407   0.806 -0.6924  1.4882  1.6368
   22MOL   H52112323   1.572   7.217   0.868  1.7332 -0.4704 -1.6947
   22MOL   H52212324   1.243   7.223   0.916  0.7410  1.6016  1.3420
   22MOL   H52312325   1.436   7.035   0.800  0.1852 -0.2140  1.1533
   22MOL   H52412326   1.439   7.071   0.970  0.5276 -1.0019 -0.2809
   22MOL   H52512327   1.174   7.013   0.966  0.4454  2.2283  0.0432
   22MOL   H52612328   1.374   6.820   0.905  0.2139  1.1546 -1.4585
   22MOL   H52712329   1.235   6.927   0.687  2.7148  0.9293  0.9426
   22MOL   H52812330   1.083   6.761   0.785  2.4216  1.0759  1.3919
   22MOL   H52912331   0.984   6.894   0.859 -1.8523  1.2208 -1.1969
   22MOL   H53012332   1.066   7.139   0.797  1.2779  1.7663  1.1689
   22MOL   H53112333   1.080   7.111   0.620  0.0103  0.2065  0.2542
   22MOL   H53212334   1.221   7.290   0.674 -0.2750  0.6085  2.2018
   22MOL   H53312335   1.326   7.159   0.631 -0.9815 -2.4313 -0.2485
   22MOL   O53412336   0.982   6.890   0.655  0.1397  0.1700 -0.4886
   22MOL   C53512337   0.839   6.923   0.665  0.7472  0.0054 -0.7527
   22MOL   C53612338   0.744   6.819   0.725 -0.5043 -0.1354 -0.1542
   22MOL   O53712339   0.639   6.891   0.785 -0.3090 -0.2119 -0.4062
   22MOL   C53812340   0.687   6.712   0.620  0.0638  0.0379  0.7329
   22MOL   C53912341   0.588   6.621   0.699 -0.1379  0.4025  0.1396
   22MOL   C54012342   0.558   6.484   0.626  0.2258 -0.2303 -0.0061
   22MOL   O54112343   0.468   6.412   0.715 -0.8674 -0.0084  0.8320
   22MOL   C54212344   0.688   6.408   0.606 -1.2065  0.1964 -0.3281
   22MOL   C54312345   0.666   6.267   0.552 -0.0804  0.4898 -0.6069
   22MOL   C54412346   0.766   6.497   0.504  0.0412  0.6741 -0.3560
   22MOL   C54512347   0.806   6.634   0.562 -0.6634 -0.0775 -0.2302
   22MOL   H54612348   0.806   6.950   0.565  0.8974 -0.0190 -0.8079
   22MOL   H54712349   0.836   7.011   0.729  0.6087 -0.9621  0.5902
   22MOL   H54812350   0.798   6.769   0.805 -1.0993  3.0345  2.3098
   22MOL   H54912351   0.600   6.931   0.709 -1.6111 -1.2847 -0.3109
   22MOL   H55012352   0.629   6.766   0.546  1.9902  0.5905 -0.4070
   22MOL   H55112353   0.625   6.608   0.801 -1.3802  0.9704  0.6684
   22MOL   H55212354   0.493   6.669   0.719 -0.7216 -0.5448 -0.3312
   22MOL   H55312355   0.509   6.496   0.530 -0.2197  0.5733  0.3181
   22MOL   H55412356   0.409   6.473   0.756  0.6799  2.6909 -0.8345
   22MOL   H55512357   0.741   6.410   0.701  0.7565 -0.5072 -1.3709
   22MOL   H55612358   0.610   6.277   0.459 -0.2214 -1.0547 -0.7039
   22MOL   H55712359   0.751   6.202   0.533 -0.8085 -0.9096  0.7955
   22MOL   H55812360   0.706   6.506   0.413 -0.2670 -2.7913 -0.5530
   22MOL   H55912361   0.849   6.440   0.462 -1.6290 -0.5383 -2.1040
   22MOL   H56012362   0.870   6.694   0.498  1.6594 -0.7081  1.4129
   22MOL   H56112363   0.871   6.618   0.649 -0.7827  1.0311  0.0781
   22MOL   H56212364   0.604   6.214   0.625 -0.0802 -0.5161 -1.3343
   23MOL     O112365   0.379   7.483   6.639  0.1480  0.8089 -0.4875
   23MOL     C212366   0.398   7.611   6.574 -0.2774  0.9731 -0.8395
   23MOL     C312367   0.387   7.609   6.421  0.1114  0.4334 -0.1716
   23MOL     O412368   0.444   7.484   6.385 -0.1247  0.4366  0.5034
   23MOL     C512369   0.252   0.009   6.357 -0.3846  0.1692 -0.8158
   23MOL     C612370   0.136   7.547   6.393 -0.4732 -0.2417 -0.4115
   23MOL     C712371   0.002   7.582   6.316  0.4686 -0.2621 -0.1055
   23MOL     O812372   7.538   7.489   6.372  0.2672  0.3878  0.0092
   23MOL     C912373   0.022   7.560   6.167 -0.1247 -0.8278 -0.6209
   23MOL    C1012374   7.533   7.601   6.075 -0.8065 -0.3862 -0.7798
   23MOL    C1112375   0.143   0.016   6.123  0.2548 -0.3676  0.6944
   23MOL    C1212376   0.267   7.626   6.204 -0.4400 -0.4646 -0.0244
   23MOL    H1312377   0.500   0.015   6.597  0.5576 -1.1638 -1.3164
   23MOL    H1412378   0.331   0.049   6.626  0.4443  1.5182 -0.6049
   23MOL    H1512379   0.459   0.047   6.374  1.1336 -0.8711 -0.4896
   23MOL    H1612380   0.417   7.433   6.460 -0.0515  0.0316  0.2554
   23MOL    H1712381   0.225   0.111   6.383  0.2037  0.0783  0.1632
   23MOL    H1812382   0.164   7.451   6.348 -1.4976 -0.3303 -0.8894
   23MOL    H1912383   0.131   7.537   6.501  1.7270  0.3818 -0.2392
   23MOL    H2012384   7.607   0.055   6.346  0.1741 -0.3956  0.1077
   23MOL    H2112385   7.576   7.410   6.336 -0.8017  0.5020 -1.4304
   23MOL    H2212386   0.070   7.465   6.148  1.0636 -0.6807  1.5403
   23MOL    H2312387   7.487   0.065   6.107 -0.7799 -1.7243  3.4921
   23MOL    H2412388   7.567   7.625   5.975  1.3623 -0.7905 -0.1557
   23MOL    H2512389   0.121   0.123   6.119 -1.8080 -0.8382 -1.5573
   23MOL    H2612390   0.154   7.624   6.017  0.0282  3.9170 -0.2925
   23MOL    H2712391   0.351   0.062   6.181  2.1393 -3.6656 -0.1708
   23MOL    H2812392   0.303   7.529   6.169  1.3662  0.7769 -1.7503
   23MOL    H2912393   0.436   7.486   6.714 -0.8468  0.8826  0.2723
   23MOL    O3012394   7.438   7.492   6.053 -0.0539 -0.7717 -0.2317
   23MOL    C3112395   7.346   7.528   5.951 -0.5615  0.3235  0.8805
   23MOL    C3212396   7.218   7.601   6.001  0.2152  0.0684  0.1761
   23MOL    O3312397   7.118   7.575   5.904 -0.0224 -0.0092 -0.8302
   23MOL    C3412398   7.153   7.559   6.134  0.3568 -0.0219 -0.1739
   23MOL    C3512399   7.215   7.628   6.260  0.4085  0.1863 -0.1916
   23MOL    C3612400   7.176   7.576   6.402 -0.3482 -0.6504  0.3895
   23MOL    O3712401   7.277   7.607   6.495 -0.1800 -0.2259  0.1999
   23MOL    C3812402   7.147   7.425   6.416  0.1713 -0.3208  0.2415
   23MOL    C3912403   7.069   7.410   6.547 -0.3694  0.1190 -0.2375
   23MOL    C4012404   7.069   7.371   6.294  0.5078 -0.9236  0.4016
   23MOL    C4112405   7.138   7.405   6.152  0.1313 -0.8618 -0.8020
   23MOL    H4212406   7.316   7.432   5.910 -1.9976  0.9952  0.3020
   23MOL    H4312407   7.383   7.587   5.867  0.2056 -0.6652  0.5141
   23MOL    H4412408   7.236   0.078   6.015 -2.4788  0.5994 -0.1575
   23MOL    H4512409   7.114   7.481   5.894  0.4302 -0.5898  3.5284
   23MOL    H4612410   7.054   7.605   6.132  0.1212 -0.4716  1.0467
   23MOL    H4712411   7.322   7.627   6.237  0.2584 -0.6696 -0.8721
   23MOL    H4812412   7.192   0.105   6.254 -2.2361 -0.3320  0.0435
   23MOL    H4912413   7.088   0.004   6.429  0.2479  0.7095 -0.5163
   23MOL    H5012414   7.355   7.563   6.465 -0.2791  0.0563 -0.4881
   23MOL    H5112415   7.234   7.359   6.427  0.3792 -0.5753 -2.6138
   23MOL    H5212416   7.112   7.473   6.625  1.4417 -0.5150 -0.7202
   23MOL    H5312417   6.971   7.455   6.530 -0.8918 -0.4045  1.2550
   23MOL    H5412418   6.965   7.402   6.295  0.4550 -1.1372  1.4610
   23MOL    H5512419   7.067   7.262   6.304  0.2642 -0.9035  0.5638
   23MOL    H5612420   7.082   7.349   6.077 -0.2328  1.5547 -2.3659
   23MOL    H5712421   7.239   7.363   6.155  0.3696 -0.4507 -2.4576
   23MOL    O5812422   7.053   7.273   6.576 -0.1540  0.7202 -0.6327
   23MOL    C5912423   6.965   7.250   6.684 -0.3639  0.1283 -0.1033
   23MOL    C6012424   6.926   7.105   6.678 -0.1952  0.5231 -0.0216
   23MOL    O6112425   6.835   7.083   6.568  0.5177  0.3397 -0.3587
   23MOL    C6212426   7.060   7.016   6.659 -0.1928  0.2309  0.0601
   23MOL    C6312427   7.025   6.869   6.670  0.2877 -0.2425 -0.0778
   23MOL    C6412428   7.138   6.781   6.635 -0.1472 -0.6612  0.7020
   23MOL    O6512429   7.107   6.648   6.666 -0.3828  0.0947  0.5375
   23MOL    C6612430   7.272   6.822   6.703  0.4848  0.0705 -0.4477
   23MOL    C6712431   7.384   6.768   6.613 -0.1487  0.6105 -0.0373
   23MOL    C6812432   7.291   6.973   6.736 -0.9235  0.0338 -0.4137
   23MOL    C6912433   7.163   7.044   6.772  0.4041  0.0796 -0.7779
   23MOL    H7012434   6.874   7.307   6.672 -0.3779  0.3562  1.0573
   23MOL    H7112435   7.024   7.288   6.768  1.2195 -0.6445 -0.8260
   23MOL    H7212436   6.883   7.072   6.772 -0.3391  2.5204  0.6313
   23MOL    H7312437   6.866   7.139   6.499 -0.3105  4.2148  2.2682
   23MOL    H7412438   7.107   7.030   6.561  1.4094  0.7204  0.8652
   23MOL    H7512439   7.000   6.841   6.772 -0.0598  1.8220  0.4280
   23MOL    H7612440   6.935   6.852   6.611  0.3258 -0.0071 -0.2058
   23MOL    H7712441   7.153   6.792   6.528  0.0152 -0.6248  0.7287
   23MOL    H7812442   7.032   6.614   6.621  0.1534  0.1809 -0.4243
   23MOL    H7912443   7.289   6.766   6.795 -1.6690 -0.0074 -0.0867
   23MOL    H8012444   7.477   6.773   6.671 -0.0747  0.3919 -0.1352
   23MOL    H8112445   7.360   6.662   6.599  0.2765  0.4920  0.1242
   23MOL    H8212446   7.336   7.025   6.651  1.7043 -0.2880  0.7334
   23MOL    H8312447   7.363   6.971   6.818 -0.8778 -0.1420 -0.4572
   23MOL    H8412448   7.188   7.150   6.776 -1.4096  0.5469 -1.3179
   23MOL    H8512449   7.119   6.998   6.860 -0.2635  0.4397 -0.9224
   23MOL    O8612450   7.396   6.854   6.503  0.1268 -0.4689  0.2816
   23MOL    C8712451   7.490   6.802   6.412 -0.4605 -0.3980 -0.3390
   23MOL    C8812452   7.532   6.932   6.332  0.2512 -0.5051  0.3895
   23MOL    O8912453   0.038   6.928   6.287 -0.0839  0.3928  0.2375
   23MOL    C9012454   7.447   6.965   6.208  0.6068 -0.6274 -0.1344
   23MOL    C9112455   7.295   6.961   6.235  0.1943  0.6153 -0.1792
   23MOL    C9212456   7.215   7.004   6.108  0.3628 -0.0819  0.2570
   23MOL    O9312457   7.077   6.994   6.134  0.4844 -0.3262  0.4749
   23MOL    C9412458   7.255   6.924   5.979 -0.5636  0.4290  0.4683
   23MOL    C9512459   7.191   6.986   5.851  0.5156 -1.3269  0.7718
   23MOL    C9612460   7.405   6.919   5.967 -0.7489 -0.1927 -0.4542
   23MOL    C9712461   7.473   6.878   6.086  0.2770 -0.3110  0.5699
   23MOL    H9812462   7.445   6.731   6.344 -0.4202  0.7133 -1.5555
   23MOL    H9912463   7.578   6.760   6.460  1.3501 -1.8095 -4.6126
   23MOL   H10012464   7.521   7.014   6.402 -1.9305  0.5706 -1.1457
   23MOL   H10112465   0.063   6.847   6.246  1.7509  0.0749  1.9261
   23MOL   H10212466   7.474   7.067   6.181 -0.5749 -0.1794  0.3473
   23MOL   H10312467   7.272   6.858   6.263 -1.2499  0.9540 -0.0546
   23MOL   H10412468   7.265   7.024   6.318 -0.7272  1.0983 -0.8616
   23MOL   H10512469   7.234   7.110   6.094  0.6051 -0.0912  0.5169
   23MOL   H10612470   7.070   6.909   6.175 -0.2937 -0.2459  0.5298
   23MOL   H10712471   7.227   6.820   5.996  1.6844 -0.0442  1.5191
   23MOL   H10812472   7.083   6.987   5.856  0.5403  0.9026  1.7038
   23MOL   H10912473   7.211   7.091   5.830  0.9271 -1.1915  1.7977
   23MOL   H11012474   7.441   7.021   5.949  0.4072 -0.4933  0.1225
   23MOL   H11112475   7.431   6.853   5.884 -1.6647 -1.4097  0.2085
   23MOL   H11212476   7.579   6.876   6.061  0.7015 -0.1196  2.3161
   23MOL   H11312477   7.443   6.773   6.092 -1.6161 -0.0303 -2.8900
   23MOL   O11412478   7.224   6.904   5.733  0.2714 -0.2833  0.1939
   23MOL   C11512479   7.177   6.969   5.609 -0.1573 -1.0300  0.0073
   23MOL   C11612480   7.202   6.871   5.490  0.4104 -0.4591  0.7524
   23MOL   O11712481   7.111   6.756   5.509  0.1427 -0.1046  0.2787
   23MOL   C11812482   7.148   6.938   5.361 -0.3838 -0.4212 -0.3549
   23MOL   C11912483   7.134   6.835   5.247 -0.1106 -0.1863  0.9299
   23MOL   C12012484   7.110   6.896   5.106 -0.0872 -0.3151  0.3295
   23MOL   O12112485   7.119   6.790   5.012  0.3498 -0.6184 -0.4734
   23MOL   C12212486   7.213   7.007   5.065 -0.0225 -1.2890 -0.6742
   23MOL   C12312487   7.163   7.089   4.944  0.5717  0.9700 -0.2559
   23MOL   C12412488   7.222   7.108   5.175 -0.1900  0.7348 -0.3351
   23MOL   C12512489   7.245   7.045   5.314 -0.0627  0.0328  1.0948
   23MOL   H12612490   7.217   7.069   5.599  1.5504 -1.3855  2.8056
   23MOL   H12712491   7.069   6.983   5.609  0.1456  1.5052  0.1719
   23MOL   H12812492   7.304   6.841   5.466  0.2935 -0.3556  0.1120
   23MOL   H12912493   7.144   6.695   5.572  0.7260  0.6662  0.7306
   23MOL   H13012494   7.047   6.976   5.376 -0.6886 -1.1839 -0.4333
   23MOL   H13112495   7.227   6.778   5.245 -0.7972 -1.2924  0.2192
   23MOL   H13212496   7.058   6.758   5.262 -0.0221 -0.6366 -0.8417
   23MOL   H13312497   7.012   6.942   5.107  0.7308  1.4589  0.1766
   23MOL   H13412498   7.050   6.726   5.028  1.0241 -1.1495  0.3836
   23MOL   H13512499   7.317   6.977   5.064  1.0289  1.9746  1.4534
   23MOL   H13612500   7.127   7.031   4.859 -1.6521  0.2366  1.1430
   23MOL   H13712501   7.071   7.141   4.967  0.0788  0.8317 -1.8485
   23MOL   H13812502   7.122   7.151   5.183 -0.5789 -0.1879 -0.1982
   23MOL   H13912503   7.297   7.187   5.167  0.0226  0.5362 -0.3030
   23MOL   H14012504   7.261   7.122   5.389 -0.0495  0.3623  0.7535
   23MOL   H14112505   7.346   7.003   5.309  0.0008  0.3734 -1.0022
   23MOL   O14212506   7.257   7.185   4.910 -0.0271 -0.0714  0.7393
   23MOL   C14312507   7.217   7.270   4.806 -0.3946  0.0184  0.0220
   23MOL   C14412508   7.305   7.390   4.816 -0.6837 -0.6145 -0.8032
   23MOL   O14512509   7.259   7.447   4.944 -0.0384 -0.1126 -0.2597
   23MOL   C14612510   7.456   7.356   4.813 -0.4704 -0.3499  0.2956
   23MOL   C14712511   7.540   7.474   4.877 -0.4273 -0.9198  0.0636
   23MOL   C14812512   0.062   7.445   4.860  0.6415  0.8349 -0.1183
   23MOL   O14912513   0.122   7.554   4.915 -0.2468 -0.8268  0.5834
   23MOL   C15012514   0.107   7.420   4.717  0.1736 -0.3005 -0.4306
   23MOL   C15112515   0.255   7.380   4.713 -0.0907 -0.1526  0.1076
   23MOL   C15212516   0.027   7.311   4.653  0.6964  0.4436  1.2523
   23MOL   C15312517   7.503   7.330   4.665 -0.2058  0.1505 -0.0644
   23MOL   H15412518   7.116   7.311   4.811 -0.6389 -0.6089  0.3444
   23MOL   H15512519   7.221   7.208   4.716 -0.6221  1.7960 -1.2277
   23MOL   H15612520   7.271   7.460   4.739  0.9150  0.2336 -0.7654
   23MOL   H15712521   7.273   7.373   5.001 -0.3164  0.4893  0.5999
   23MOL   H15812522   7.479   7.262   4.864 -0.7327  0.6440  2.2780
   23MOL   H15912523   7.506   7.562   4.823  2.5413 -1.0117 -2.0876
   23MOL   H16012524   7.518   7.494   4.981  1.5310 -0.4186  0.3982
   23MOL   H16112525   0.092   7.361   4.923  0.2542  1.8906  1.5213
   23MOL   H16212526   0.110   7.540   5.007 -2.0105  1.6934  0.8020
   23MOL   H16312527   0.099   7.515   4.663  4.0881  0.3126 -0.1070
   23MOL   H16412528   0.317   7.456   4.761  0.6007 -0.6721  0.0396
   23MOL   H16512529   0.261   7.288   4.770 -1.0866 -1.5048 -1.8959
   23MOL   H16612530   0.070   7.212   4.671  1.0529  0.2964 -0.3192
   23MOL   H16712531   0.060   7.308   4.549 -0.4058 -1.8744  0.9292
   23MOL   H16812532   7.448   7.243   4.627 -2.2690  0.4955  1.9935
   23MOL   H16912533   7.481   7.410   4.595  0.6377  0.1474 -0.3290
   23MOL   O17012534   0.295   7.363   4.574  0.2857  0.0560  1.0019
   23MOL   C17112535   0.429   7.328   4.558 -0.0858  0.3636  0.3708
   23MOL   C17212536   0.427   7.257   4.425 -0.1388 -0.2778  0.2488
   23MOL   O17312537   0.413   7.355   4.315 -0.1132  0.3536 -0.6104
   23MOL   C17412538   0.549   7.169   4.404 -0.0425  0.6514  0.1633
   23MOL   C17512539   0.673   7.250   4.374 -0.6109  0.3600  0.6104
   23MOL   C17612540   0.794   7.158   4.351  0.1647 -0.6764 -0.1334
   23MOL   O17712541   0.909   7.235   4.325 -0.1415  0.2719  0.7525
   23MOL   C17812542   0.771   7.055   4.233  0.5249  0.2479  0.3638
   23MOL   C17912543   0.894   6.965   4.204 -0.2566 -0.0607  0.4449
   23MOL   C18012544   0.644   6.967   4.265  0.3838  0.9310  0.1563
   23MOL   C18112545   0.523   7.059   4.295  0.6873 -0.2833  0.0121
   23MOL   H18212546   0.451   7.253   4.634  1.0234 -0.4673 -0.7426
   23MOL   H18312547   0.494   7.415   4.562 -1.2074  1.1184  2.3284
   23MOL   H18412548   0.335   7.198   4.419  0.7664 -1.8314  1.2713
   23MOL   H18512549   0.358   7.424   4.349 -1.2166 -1.6033  1.7136
   23MOL   H18612550   0.563   7.117   4.498 -0.8265 -2.1275 -1.2063
   23MOL   H18712551   0.659   7.313   4.286 -1.2948 -0.6458 -0.0187
   23MOL   H18812552   0.702   7.326   4.446  0.3160  1.0109 -0.4340
   23MOL   H18912553   0.809   7.111   4.448  1.4474  0.9586  0.4907
   23MOL   H19012554   0.925   7.275   4.410 -0.0227 -2.8110  2.2437
   23MOL   H19112555   0.755   7.109   4.140  1.5156 -1.1512 -0.6313
   23MOL   H19212556   0.980   7.031   4.203 -1.5607  1.6863 -1.2998
   23MOL   H19312557   0.906   6.890   4.282  1.6690 -0.6089 -0.3373
   23MOL   H19412558   0.671   6.910   4.353 -2.6355 -1.0856 -0.1530
   23MOL   H19512559   0.617   6.906   4.179  2.1932 -1.6608  1.3818
   23MOL   H19612560   0.437   7.000   4.329 -1.1873  3.3559  1.9207
   23MOL   H19712561   0.492   7.116   4.208  0.7515  1.9941  1.4314
   23MOL   O19812562   0.899   6.916   4.071  0.2888 -0.0023 -0.2064
   23MOL   C19912563   1.016   6.834   4.063 -0.5539  0.2540 -0.4141
   23MOL   C20012564   1.024   6.786   3.919  0.6773 -0.3115 -0.3136
   23MOL   O20112565   1.055   6.911   3.853  0.0874  0.2174  0.4973
   23MOL   C20212566   1.146   6.695   3.886  0.4640  0.0106  0.0421
   23MOL   C20312567   1.117   6.546   3.934 -0.4878 -0.2026  0.3767
   23MOL   C20412568   1.232   6.451   3.894  0.0180  0.1516  0.5478
   23MOL   O20512569   1.192   6.321   3.928 -0.1695  0.5307  0.3738
   23MOL   C20612570   1.370   6.494   3.965 -0.2050 -0.6808  0.0270
   23MOL   C20712571   1.487   6.401   3.925  0.2553 -0.2231  0.3436
   23MOL   C20812572   1.398   6.648   3.925 -0.4031  0.4091 -0.2169
   23MOL   C20912573   1.285   6.738   3.945  0.0558 -0.5360  0.3226
   23MOL   H21012574   1.008   6.755   4.138  3.3408 -1.5530 -1.7723
   23MOL   H21112575   1.104   6.884   4.103 -0.3610 -0.9782  0.7662
   23MOL   H21212576   0.925   6.749   3.893  0.7329 -1.0392  0.5197
   23MOL   H21312577   0.992   6.974   3.886  0.7873  1.9869 -1.4657
   23MOL   H21412578   1.158   6.689   3.778  1.4650  0.7924  0.0975
   23MOL   H21512579   1.096   6.545   4.041 -1.0651  0.2387  0.2650
   23MOL   H21612580   1.032   6.504   3.881 -0.3768 -1.2746  1.0386
   23MOL   H21712581   1.231   6.464   3.786  1.2962 -0.4593  0.4533
   23MOL   H21812582   1.193   6.263   3.853  0.7212  1.4321 -0.3301
   23MOL   H21912583   1.358   6.492   4.073 -2.1503 -1.3490 -0.1915
   23MOL   H22012584   1.484   6.308   3.981  1.1016 -1.0768 -1.0181
   23MOL   H22112585   1.475   6.382   3.819  0.7592 -0.5548  0.3449
   23MOL   H22212586   1.441   6.666   3.827 -0.4552 -2.0171 -0.7226
   23MOL   H22312587   1.477   6.685   3.989 -1.7025  3.7172 -0.4139
   23MOL   H22412588   1.312   6.840   3.918 -1.8513 -0.1215 -0.0549
   23MOL   H22512589   1.269   6.750   4.052 -1.1330  1.1996 -0.0447
   23MOL   O22612590   1.607   6.467   3.961  0.0709 -0.5745 -0.6204
   23MOL   C22712591   1.684   6.506   3.856  0.7264  0.0218 -0.1223
   23MOL   C22812592   1.811   6.554   3.925  0.7667 -0.8362 -0.0748
   23MOL   O22912593   1.882   6.447   3.987 -0.1578  0.3157  0.2092
   23MOL   C23012594   1.925   6.621   3.837 -0.0981 -1.0920 -0.3290
   23MOL   C23112595   2.013   6.527   3.751  0.2682  0.4625 -0.0481
   23MOL   C23212596   2.096   6.617   3.654 -0.4348 -0.2395  0.1953
   23MOL   O23312597   2.177   6.540   3.570 -0.0856  0.0665 -0.1246
   23MOL   C23412598   2.193   6.719   3.723 -0.3846 -0.6902 -0.4973
   23MOL   C23512599   2.279   6.801   3.634 -0.1892 -0.2283 -0.2595
   23MOL   C23612600   2.102   6.803   3.814 -0.6863  0.2281 -0.0662
   23MOL   C23712601   2.019   6.716   3.915  0.2274 -0.8280 -0.3890
   23MOL   H23812602   1.643   6.593   3.804  2.0804 -0.5190 -2.1620
   23MOL   H23912603   1.716   6.425   3.790  0.2467 -0.1166 -0.1872
   23MOL   H24012604   1.786   6.623   4.006  0.2059  0.1206 -1.0464
   23MOL   H24112605   1.807   6.432   4.043 -0.7346  1.0190 -0.3532
   23MOL   H24212606   1.859   6.680   3.772  0.0085 -0.7790 -0.1553
   23MOL   H24312607   2.066   6.465   3.824 -0.9146 -0.1346  0.3174
   23MOL   H24412608   1.944   6.466   3.694 -0.5974  0.2920  1.1495
   23MOL   H24512609   2.028   6.672   3.589  1.5084  1.6829 -0.2351
   23MOL   H24612610   2.219   6.478   3.626 -0.5561 -0.2074 -0.0733
   23MOL   H24712611   2.260   6.671   3.794 -0.8090  0.7886  0.9646
   23MOL   H24812612   2.342   6.741   3.569  2.1218  2.1646 -0.3421
   23MOL   H24912613   2.221   6.865   3.567 -1.4689 -1.2285 -0.1182
   23MOL   H25012614   2.025   6.864   3.767 -0.2419 -1.1347 -2.6548
   23MOL   H25112615   2.157   6.884   3.862  1.0208 -0.6868 -0.4495
   23MOL   H25212616   1.969   6.778   3.990 -0.6230 -1.2398 -0.6030
   23MOL   H25312617   2.088   6.657   3.974 -1.6756 -0.1977  2.5741
   23MOL   O25412618   2.360   6.882   3.726 -0.4170  0.3135  0.1004
   23MOL   C25512619   2.452   6.962   3.652 -0.0129 -0.4638 -0.6790
   23MOL   C25612620   2.525   7.046   3.751 -0.3264  0.2378 -0.3942
   23MOL   O25712621   2.594   6.950   3.824 -0.3161  0.6194  0.0639
   23MOL   C25812622   2.635   7.134   3.686  0.0038 -0.2487  0.0284
   23MOL   C25912623   2.727   7.200   3.794 -0.0161 -0.0839 -0.0925
   23MOL   C26012624   2.839   7.288   3.744  0.3627 -0.0699 -0.1728
   23MOL   O26112625   2.900   7.341   3.858  0.0895 -0.0210 -0.0912
   23MOL   C26212626   2.783   7.402   3.649  0.1716 -0.5097  0.4360
   23MOL   C26312627   2.898   7.497   3.593  0.4638  0.4056 -1.0425
   23MOL   C26412628   2.691   7.343   3.535 -1.0931  0.1548 -0.5807
   23MOL   C26512629   2.583   7.235   3.583  0.0022 -0.0969 -0.4308
   23MOL   H26612630   2.387   7.026   3.592 -0.3798  0.0128  0.2118
   23MOL   H26712631   2.505   6.893   3.587  0.8715 -0.2881 -0.1422
   23MOL   H26812632   2.459   7.106   3.814  1.7885 -0.9389  3.1204
   23MOL   H26912633   2.529   6.891   3.859  1.0809 -0.5450  0.7718
   23MOL   H27012634   2.699   7.068   3.626  0.7262  0.3881  0.0903
   23MOL   H27112635   2.660   7.263   3.853 -0.8658 -0.9203 -0.1514
   23MOL   H27212636   2.766   7.126   3.863 -0.7973  0.2655  0.7443
   23MOL   H27312637   2.915   7.227   3.695  2.8131  0.9980  2.1689
   23MOL   H27412638   2.964   7.279   3.890  0.8056  0.2349 -1.0119
   23MOL   H27512639   2.712   7.456   3.712  1.0448 -1.3284  2.1500
   23MOL   H27612640   2.857   7.571   3.525 -0.0524  0.3333 -0.8151
   23MOL   H27712641   2.940   7.551   3.678 -1.9946  0.2204  0.3486
   23MOL   H27812642   2.756   7.298   3.459  1.4426 -0.1399  1.6962
   23MOL   H27912643   2.648   7.427   3.481  1.2590  0.3775 -2.2237
   23MOL   H28012644   2.539   7.181   3.499  1.3402  0.4920 -1.5329
   23MOL   H28112645   2.498   7.290   3.623 -0.2139  1.2609 -2.6424
   23MOL   O28212646   2.996   7.422   3.524  0.8052 -0.7434  0.7756
   23MOL   C28312647   3.110   7.502   3.484  0.6225  0.8261  0.2935
   23MOL   C28412648   3.178   7.436   3.365  0.3877 -0.3126 -0.1965
   23MOL   O28512649   3.216   7.314   3.421  0.1227 -0.5037 -0.1574
   23MOL   C28612650   3.109   7.430   3.230  1.0789  0.5307  0.2528
   23MOL   C28712651   2.967   7.362   3.240  0.6415  1.0298  0.6273
   23MOL   C28812652   2.903   7.354   3.098 -0.0017 -0.9635  1.0317
   23MOL   O28912653   2.782   7.282   3.113  0.0294  0.0470 -0.4728
   23MOL   C29012654   2.992   7.295   2.984  0.6231  0.2969 -0.0047
   23MOL   C29112655   2.924   7.291   2.849 -0.2445 -0.7801  0.2748
   23MOL   C29212656   3.122   7.364   2.979 -0.2155 -0.3785 -0.6490
   23MOL   C29312657   3.190   7.368   3.119  0.0242 -0.5849 -0.6631
   23MOL   H29412658   3.182   7.514   3.566  2.1346 -2.4663 -0.4724
   23MOL   H29512659   3.078   7.599   3.445  0.5694  0.1212 -1.4343
   23MOL   H29612660   3.278   7.478   3.354 -0.2834  1.5749  0.6915
   23MOL   H29712661   3.143   7.257   3.437  0.5626 -1.4386 -1.3944
   23MOL   H29812662   3.101   7.535   3.200 -0.6209  0.1783 -0.5481
   23MOL   H29912663   2.986   7.259   3.269 -1.3019 -0.3389 -2.6904
   23MOL   H30012664   2.897   7.404   3.311 -0.7251  0.2166 -0.2172
   23MOL   H30112665   2.876   7.456   3.072  0.6944 -1.1864 -0.6121
   23MOL   H30212666   2.741   7.302   3.030  0.3714  2.0858 -0.1699
   23MOL   H30312667   3.028   7.194   3.006  3.0099  1.0416 -0.3854
   23MOL   H30412668   2.988   7.274   2.762  1.5758 -3.9270  2.1252
   23MOL   H30512669   2.842   7.219   2.847 -2.7827  2.0521 -1.5625
   23MOL   H30612670   3.111   7.468   2.950 -1.5976 -0.0782  0.8630
   23MOL   H30712671   3.179   7.306   2.907  1.5645 -0.5240  0.8406
   23MOL   H30812672   3.281   7.427   3.108 -1.4730  1.8110 -0.6677
   23MOL   H30912673   3.219   7.270   3.157  1.3884 -0.5120 -1.4754
   23MOL   O31012674   2.864   7.419   2.835 -0.3273  0.0694  0.1682
   23MOL   C31112675   2.789   7.430   2.716 -1.3264  0.0581  0.9693
   23MOL   C31212676   2.716   7.567   2.725 -0.3850  0.4091  0.5607
   23MOL   O31312677   2.811   0.043   2.712  0.1149 -0.1912 -0.0576
   23MOL   C31412678   2.597   7.586   2.625  0.0457 -0.4207  0.0199
   23MOL   C31512679   2.643   7.567   2.480 -0.0442 -0.3462  0.2701
   23MOL   C31612680   2.532   7.592   2.380 -0.0365  0.2996  0.3454
   23MOL   O31712681   2.588   7.597   2.251 -0.5773 -0.2576  0.1391
   23MOL   C31812682   2.461   0.100   2.392 -0.3083  0.0917 -0.5304
   23MOL   C31912683   2.345   0.112   2.292 -0.0107  0.1024  0.0621
   23MOL   C32012684   2.405   0.117   2.542  0.3588 -0.4265 -0.6626
   23MOL   C32112685   2.519   0.094   2.639  0.0762  0.2998 -0.9072
   23MOL   H32212686   2.728   7.340   2.708 -0.9958 -0.1542  0.7899
   23MOL   H32312687   2.853   7.424   2.627 -2.9489 -0.5739 -0.1782
   23MOL   H32412688   2.675   7.576   2.826 -0.3772  0.4856  0.5573
   23MOL   H32512689   2.880   0.028   2.774 -0.1205  1.1931  0.5652
   23MOL   H32612690   2.528   7.507   2.656  0.3811 -0.8489 -0.3338
   23MOL   H32712691   2.728   0.005   2.465  0.4016 -0.8638  0.4667
   23MOL   H32812692   2.686   7.468   2.466  3.0585  1.1219 -1.0131
   23MOL   H32912693   2.462   7.509   2.388  0.8247 -0.4726 -0.0472
   23MOL   H33012694   2.662   0.027   2.252 -0.5199 -0.3238  1.6387
   23MOL   H33112695   2.536   0.177   2.379  0.1284 -0.3000 -0.3541
   23MOL   H33212696   2.368   0.107   2.185  0.0649 -1.2009  0.1303
   23MOL   H33312697   2.273   0.037   2.323  1.7576 -1.2936  0.9130
   23MOL   H33412698   2.331   0.036   2.549 -1.0870  0.6625 -2.7627
   23MOL   H33512699   2.357   0.213   2.558  0.0667 -0.3268 -2.0801
   23MOL   H33612700   2.491   0.108   2.744  0.0740  1.2844 -1.0417
   23MOL   H33712701   2.594   0.172   2.624  0.2253  0.3329 -0.0257
   23MOL   O33812702   2.287   0.235   2.322 -0.0528 -0.0243 -0.6575
   23MOL   C33912703   2.167   0.262   2.261 -0.0436  0.2043 -0.5567
   23MOL   C34012704   2.109   0.388   2.331  0.2309  0.0085  0.0725
   23MOL   O34112705   1.972   0.423   2.282  0.6862 -0.5307  0.4073
   23MOL   C34212706   2.114   0.405   2.489  0.0080  0.6262 -0.4058
   23MOL   C34312707   2.009   0.309   2.558  0.2181 -0.2833  0.2102
   23MOL   C34412708   2.025   0.308   2.714  0.2995  0.1889  0.0724
   23MOL   O34512709   1.904   0.255   2.763  0.0048 -0.2440 -0.2859
   23MOL   C34612710   2.055   0.445   2.782  0.4592  0.5592 -0.8908
   23MOL   C34712711   2.124   0.411   2.915 -0.2639 -0.1236  0.3034
   23MOL   C34812712   2.159   0.531   2.701  0.0830 -0.1742 -0.1783
   23MOL   C34912713   2.118   0.539   2.555 -0.4496  0.3680  0.8588
   23MOL   H35012714   2.094   0.183   2.275 -0.8798  0.9595 -0.6104
   23MOL   H35112715   2.171   0.283   2.154  2.3026  0.2054 -0.4897
   23MOL   H35212716   2.172   0.469   2.293  1.0161 -0.4933  0.2894
   23MOL   H35312717   1.983   0.465   2.198 -2.1258 -0.6511 -0.0885
   23MOL   H35412718   2.207   0.366   2.530 -0.0698  1.2554  0.3895
   23MOL   H35512719   1.905   0.335   2.536 -0.1290 -0.0232  2.1266
   23MOL   H35612720   2.022   0.213   2.508 -2.9038 -0.4810 -0.3305
   23MOL   H35712721   2.101   0.234   2.741  0.7831  0.1902 -1.2810
   23MOL   H35812722   1.836   0.316   2.738 -0.5158 -0.7302 -0.0550
   23MOL   H35912723   1.962   0.502   2.789  0.6297  0.7457 -0.1539
   23MOL   H36012724   2.065   0.342   2.976  1.2943 -2.1123 -0.3965
   23MOL   H36112725   2.214   0.356   2.891  0.2433  0.4546  0.8693
   23MOL   H36212726   2.265   0.504   2.708 -0.0845 -0.6140  0.6994
   23MOL   H36312727   2.155   0.633   2.741 -1.9121  1.7380 -4.8853
   23MOL   H36412728   2.194   0.599   2.506 -0.1768 -1.2929 -0.7648
   23MOL   H36512729   2.020   0.585   2.540  0.7752  2.4714 -0.9540
   23MOL   O36612730   2.156   0.536   2.974 -0.0339  0.6520  0.1914
   23MOL   C36712731   2.189   0.536   3.112 -0.0028 -0.1987 -0.2001
   23MOL   C36812732   2.103   0.655   3.174  0.1530 -0.1502 -0.5127
   23MOL   O36912733   2.140   0.785   3.121  0.0379  0.3718  0.0150
   23MOL   C37012734   1.951   0.642   3.161  0.6638  0.4509 -0.0306
   23MOL   C37112735   1.887   0.685   3.027  0.3116  0.2992  0.6624
   23MOL   C37212736   1.750   0.625   3.020  0.7578 -0.2907  0.1701
   23MOL   O37312737   1.698   0.664   2.890 -0.4679  0.1918  0.1080
   23MOL   C37412738   1.648   0.670   3.129 -0.6771 -0.0253 -1.0634
   23MOL   C37512739   1.509   0.592   3.122  0.2224 -0.0951 -0.3477
   23MOL   C37612740   1.716   0.644   3.270  0.2425  0.1981  0.2525
   23MOL   C37712741   1.863   0.697   3.273 -0.0000 -0.1001 -0.1899
   23MOL   H37812742   2.296   0.538   3.130 -0.0912 -1.6901  0.4864
   23MOL   H37912743   2.152   0.444   3.157  2.4880 -1.0475  0.1693
   23MOL   H38012744   2.142   0.667   3.275  0.4556  0.4054 -0.6900
   23MOL   H38112745   2.094   0.782   3.039 -0.1011  0.0216  0.1017
   23MOL   H38212746   1.943   0.533   3.161 -1.4297  0.5893  0.1867
   23MOL   H38312747   1.884   0.793   3.011  1.3902  0.1103 -0.9302
   23MOL   H38412748   1.951   0.648   2.946 -0.2528 -0.4711  0.5662
   23MOL   H38512749   1.759   0.517   3.031 -1.9735 -0.5148  0.3510
   23MOL   H38612750   1.682   0.757   2.893  2.0952  0.6098  4.3117
   23MOL   H38712751   1.630   0.776   3.111 -0.5681 -0.1895 -2.2036
   23MOL   H38812752   1.471   0.587   3.020  0.7064 -3.3110 -0.4225
   23MOL   H38912753   1.526   0.488   3.150 -2.1705 -0.1112  1.2207
   23MOL   H39012754   1.715   0.536   3.285  0.2318  0.0765 -0.5860
   23MOL   H39112755   1.660   0.698   3.347 -0.8549  0.1761 -0.5153
   23MOL   H39212756   1.911   0.667   3.366 -0.9291 -0.7576  0.0868
   23MOL   H39312757   1.863   0.806   3.271 -0.2537 -0.1087 -0.7916
   23MOL   O39412758   1.418   0.637   3.224  0.0878  0.2820 -0.1852
   23MOL   C39512759   1.310   0.552   3.240  0.1289 -0.2386 -0.1021
   23MOL   C39612760   1.211   0.626   3.335 -0.1097  0.1019 -0.1767
   23MOL   O39712761   1.166   0.742   3.268 -0.2108 -0.3227 -0.8491
   23MOL   C39812762   1.103   0.529   3.376  0.5318 -0.2917 -0.7905
   23MOL   C39912763   1.018   0.486   3.256  0.3261 -0.5243 -0.2256
   23MOL   C40012764   0.920   0.370   3.293 -0.0267  0.2668 -0.5770
   23MOL   O40112765   0.858   0.344   3.166  0.0685  0.0632 -0.8345
   23MOL   C40212766   0.821   0.409   3.406  0.6384  0.7202 -0.3280
   23MOL   C40312767   0.745   0.288   3.467  0.1885  0.1773  0.6116
   23MOL   C40412768   0.899   0.474   3.519  0.2177  0.4562 -0.2525
   23MOL   C40512769   1.006   0.585   3.486  0.3456  0.2006 -0.4795
   23MOL   H40612770   1.340   0.454   3.277 -2.4721 -1.6675 -1.5754
   23MOL   H40712771   1.273   0.532   3.139 -0.5393 -2.4587  0.5441
   23MOL   H40812772   1.270   0.649   3.424  0.5401 -1.4733 -0.1832
   23MOL   H40912773   1.192   0.732   3.177 -0.1036  0.7022 -0.9417
   23MOL   H41012774   1.143   0.435   3.412 -1.5104 -0.6018  0.7576
   23MOL   H41112775   0.955   0.571   3.226 -2.0453 -1.3667  2.1734
   23MOL   H41212776   1.077   0.449   3.173 -0.2199  0.4998 -1.0924
   23MOL   H41312777   0.983   0.283   3.313 -0.3406 -0.0869 -1.1038
   23MOL   H41412778   0.774   0.386   3.156 -0.8053 -1.7866 -1.5657
   23MOL   H41512779   0.747   0.478   3.364  0.9000  0.5955 -1.0003
   23MOL   H41612780   0.703   0.224   3.390 -1.0700  1.7601 -0.0194
   23MOL   H41712781   0.802   0.217   3.528  0.9568  1.3582  1.2913
   23MOL   H41812782   0.935   0.395   3.585 -0.5577 -0.1328 -0.5295
   23MOL   H41912783   0.827   0.537   3.573  0.0218  2.0091 -2.2712
   23MOL   H42012784   1.064   0.628   3.567 -1.4786  0.3992  0.7647
   23MOL   H42112785   0.961   0.677   3.448  0.9997  1.1700  1.0471
   23MOL   O42212786   0.641   0.317   3.561 -0.2357  0.0560 -0.1764
   23MOL   C42312787   0.530   0.377   3.503  0.3257  0.3312 -0.6988
   23MOL   C42412788   0.421   0.359   3.607 -0.0110 -0.5665 -0.3692
   23MOL   O42512789   0.411   0.220   3.627 -0.1284  0.2900  0.1885
   23MOL   C42612790   0.430   0.428   3.744 -0.1142  0.2306  0.1369
   23MOL   C42712791   0.554   0.399   3.829 -0.2713 -0.3166  0.1339
   23MOL   C42812792   0.553   0.478   3.963 -0.2209 -0.1778  0.0793
   23MOL   O42912793   0.661   0.432   4.041 -0.7728  0.2967 -0.1589
   23MOL   C43012794   0.417   0.451   4.039 -0.2296 -0.2120  0.0065
   23MOL   C43112795   0.410   0.532   4.169  0.1515  0.5627  0.7422
   23MOL   C43212796   0.293   0.499   3.954 -0.0770 -0.4050 -0.5461
   23MOL   C43312797   0.294   0.418   3.826  0.7355  0.6730  0.0805
   23MOL   H43412798   0.505   0.325   3.410 -1.1823  0.7875 -0.5652
   23MOL   H43512799   0.551   0.483   3.490  0.2251  0.2968 -1.1813
   23MOL   H43612800   0.325   0.387   3.563  0.6389  0.3795 -1.2050
   23MOL   H43712801   0.503   0.200   3.619 -0.1497  0.8964 -2.0905
   23MOL   H43812802   0.438   0.535   3.728 -2.1357  0.3682 -0.0834
   23MOL   H43912803   0.565   0.291   3.839  2.7775  0.1300  2.3164
   23MOL   H44012804   0.641   0.420   3.767 -0.7515 -2.2382 -1.2594
   23MOL   H44112805   0.549   0.586   3.946 -4.8067 -0.2367 -0.0067
   23MOL   H44212806   0.636   0.349   4.078  0.8570 -0.8544 -1.5569
   23MOL   H44312807   0.400   0.344   4.057  2.0670 -0.2046  2.5784
   23MOL   H44412808   0.497   0.512   4.231 -0.3305  1.6273  1.8122
   23MOL   H44512809   0.409   0.640   4.153  3.2874  0.6875  1.1816
   23MOL   H44612810   0.289   0.607   3.935  0.9413 -0.8511 -3.3993
   23MOL   H44712811   0.199   0.486   4.009 -0.0755  0.2433 -0.3800
   23MOL   H44812812   0.209   0.431   3.760  0.0989  1.4189  1.0438
   23MOL   H44912813   0.274   0.315   3.854 -0.5053  0.5652 -1.1243
   23MOL   O45012814   0.300   0.479   4.250 -0.4506 -0.4523  0.4204
   23MOL   C45112815   0.229   0.589   4.325 -0.5628  0.3700  0.0525
   23MOL   C45212816   0.074   0.580   4.312  0.2763 -0.0653 -0.2563
   23MOL   O45312817   0.031   0.498   4.425 -0.2562  0.0234 -0.5001
   23MOL   C45412818   0.004   0.719   4.324  0.3255  0.0605  0.0994
   23MOL   C45512819   0.023   0.816   4.212 -0.7854  0.4728 -0.2711
   23MOL   C45612820   7.563   0.940   4.214 -0.3652  0.2506  0.7746
   23MOL   O45712821   7.593   1.021   4.105 -0.1615  0.1937  0.0526
   23MOL   C45812822   7.568   1.013   4.339 -0.2299 -0.3154 -0.5626
   23MOL   C45912823   7.469   1.134   4.355 -0.2047 -0.1883  0.3130
   23MOL   C46012824   7.552   0.917   4.459 -0.2463 -0.0531  0.7290
   23MOL   C46112825   0.017   0.796   4.457 -0.1846 -0.4093  0.0215
   23MOL   H46212826   0.264   0.689   4.301  0.5452  0.3684  1.6262
   23MOL   H46312827   0.258   0.598   4.429  1.0472  1.3859 -0.4575
   23MOL   H46412828   0.042   0.531   4.221 -1.2035  1.9735 -0.8485
   23MOL   H46512829   0.082   0.418   4.417  0.3642  0.2731  0.8519
   23MOL   H46612830   7.526   0.702   4.315  0.5315 -2.3250  1.6314
   23MOL   H46712831   0.128   0.843   4.215 -0.3935 -0.9659 -0.7434
   23MOL   H46812832   0.005   0.757   4.121 -0.3242 -2.0497  1.2313
   23MOL   H46912833   7.462   0.906   4.195 -0.1416 -1.3056  2.1490
   23MOL   H47012834   7.563   1.111   4.107  1.1352  0.6428  0.0186
   23MOL   H47112835   0.042   1.045   4.352 -0.2187  0.2599 -2.0231
   23MOL   H47212836   7.480   1.202   4.269 -1.8086  3.0909  2.5876
   23MOL   H47312837   7.369   1.092   4.353  0.0148 -0.6967 -0.1705
   23MOL   H47412838   7.448   0.885   4.451 -0.6135  1.5023 -1.0882
   23MOL   H47512839   7.549   0.973   4.552  0.1598 -2.5707  2.2977
   23MOL   H47612840   7.619   0.731   4.539 -2.1505 -1.2915 -1.3062
   23MOL   H47712841   0.123   0.823   4.454  0.0118 -1.2651 -1.2785
   23MOL   O47812842   7.494   1.201   4.484 -0.1887  0.0293  0.3689
   23MOL   C47912843   7.404   1.303   4.508 -0.5309  1.0795  0.1872
   23MOL   C48012844   7.440   1.352   4.651  0.2290 -0.3587 -0.4576
   23MOL   O48112845   7.556   1.434   4.620 -0.2465 -0.3301 -0.5233
   23MOL   C48212846   7.337   1.449   4.720  0.3580  0.5693  0.3240
   23MOL   C48312847   7.389   1.486   4.863  0.7970 -0.7441  0.0456
   23MOL   C48412848   7.285   1.570   4.951 -0.8827 -0.2468  0.4758
   23MOL   O48512849   7.339   1.597   5.074  0.0955 -0.0354  0.1214
   23MOL   C48612850   7.154   1.494   4.957  0.3693 -0.2043  0.5670
   23MOL   C48712851   7.043   1.558   5.047  0.5325 -0.7137  0.5636
   23MOL   C48812852   7.102   1.461   4.812  0.1372 -0.0028  0.5434
   23MOL   C48912853   7.199   1.373   4.732  0.0625  0.3498 -0.1465
   23MOL   H49012854   7.309   1.250   4.514 -0.3772  0.5375 -1.7917
   23MOL   H49112855   7.400   1.385   4.435 -1.5983  1.6552  0.8884
   23MOL   H49212856   7.479   1.274   4.716 -1.0637  0.7400  1.7073
   23MOL   H49312857   7.617   1.372   4.585 -0.2821  0.9548 -2.9936
   23MOL   H49412858   7.323   1.542   4.665 -0.8661  1.0793  1.4650
   23MOL   H49512859   7.409   1.394   4.918  1.0357  0.0693  1.3581
   23MOL   H49612860   7.483   1.539   4.846  0.5723 -0.3295  0.0859
   23MOL   H49712861   7.268   1.672   4.919  0.8354  0.1756  0.8524
   23MOL   H49812862   7.419   1.646   5.061 -0.0455 -0.5847 -3.1504
   23MOL   H49912863   7.174   1.397   5.002  1.3572 -0.4288 -0.3236
   23MOL   H50012864   7.089   1.599   5.137  2.5100  0.2131 -0.8657
   23MOL   H50112865   6.989   1.642   5.004  0.1991 -0.5892  1.2087
   23MOL   H50212866   7.089   1.558   4.764  1.1245  0.1182  0.4980
   23MOL   H50312867   7.005   1.411   4.813 -0.1566  0.5329 -0.6274
   23MOL   H50412868   7.156   1.361   4.632  0.8039 -2.6196 -0.1758
   23MOL   H50512869   7.209   1.271   4.771  1.2920  0.1179 -1.0557
   23MOL   O50612870   6.951   1.451   5.070 -0.3257 -0.0119  0.3410
   23MOL   C50712871   6.865   1.468   5.179  0.3953  0.1206 -0.1679
   23MOL   C50812872   6.806   1.335   5.238 -0.3963 -1.4124  0.3021
   23MOL   O50912873   6.904   1.268   5.303  0.0270 -0.0104 -0.2870
   23MOL   C51012874   6.681   1.360   5.322 -0.1346 -0.5467 -0.2706
   23MOL   C51112875   6.555   1.381   5.241 -0.2422  0.5196  0.4767
   23MOL   C51212876   6.424   1.415   5.320  0.1871 -0.5128 -0.3673
   23MOL   O51312877   6.324   1.437   5.225  0.2683 -0.1504 -0.4765
   23MOL   C51412878   6.445   1.539   5.408 -0.9003  0.0826  0.9182
   23MOL   C51512879   6.316   1.578   5.479 -0.3326 -0.1524  0.2973
   23MOL   C51612880   6.554   1.495   5.509 -0.5488  0.2465  0.2844
   23MOL   C51712881   6.688   1.471   5.431  0.1372 -0.2371 -0.1340
   23MOL   H51812882   6.789   1.531   5.133 -1.5324 -2.5800 -0.8678
   23MOL   H51912883   6.911   1.515   5.265 -0.7111  1.5527 -0.3513
   23MOL   H52012884   6.772   1.277   5.152 -1.4975 -1.2337  0.6178
   23MOL   H52112885   6.986   1.276   5.257  0.1693  1.6967  0.2277
   23MOL   H52212886   6.665   1.274   5.387  0.1031 -1.5327 -1.5086
   23MOL   H52312887   6.583   1.466   5.179 -1.4793  0.9364  0.4828
   23MOL   H52412888   6.545   1.296   5.174 -3.8102 -0.6878  2.4064
   23MOL   H52512889   6.405   1.322   5.375  1.7789 -0.2958  0.5793
   23MOL   H52612890   6.345   1.404   5.139 -1.8070 -1.7340 -0.4248
   23MOL   H52712891   6.488   1.617   5.345 -1.4692 -0.2376  0.1364
   23MOL   H52812892   6.241   1.609   5.407 -1.5141  0.1451  1.6415
   23MOL   H52912893   6.292   1.487   5.535  0.6284 -1.0087 -0.6509
   23MOL   H53012894   6.516   1.405   5.557 -0.5485  0.8029  1.3460
   23MOL   H53112895   6.573   1.575   5.581  2.4619 -1.5627  1.5777
   23MOL   H53212896   6.764   1.446   5.505  0.8399 -0.1924 -0.8255
   23MOL   H53312897   6.735   1.565   5.399 -1.7333  0.8817  0.3640
   23MOL   O53412898   6.326   1.670   5.587 -0.5605  0.0514 -0.2441
   23MOL   C53512899   6.348   1.805   5.548  0.0500 -0.0379 -0.2339
   23MOL   C53612900   6.347   1.905   5.665  0.6372  0.0552 -0.7214
   23MOL   O53712901   6.212   1.891   5.708  0.6286 -0.2481 -0.4353
   23MOL   C53812902   6.443   1.872   5.780  0.1836 -0.1211 -0.1483
   23MOL   C53912903   6.396   1.932   5.918  0.7263  0.6868  0.3002
   23MOL   C54012904   6.490   1.893   6.026  0.1723  0.9437 -0.0128
   23MOL   O54112905   6.448   1.959   6.145  0.4770 -0.3779  0.2817
   23MOL   C54212906   6.633   1.938   5.993 -0.0369 -0.5259 -0.1999
   23MOL   C54312907   6.739   1.897   6.099  0.0620 -0.2599 -0.3632
   23MOL   C54412908   6.675   1.891   5.856  0.2130 -0.1906 -0.6763
   23MOL   C54512909   6.582   1.923   5.745 -0.6703 -0.1109 -0.1505
   23MOL   H54612910   6.276   1.827   5.470 -1.2111 -0.4437  0.8068
   23MOL   H54712911   6.449   1.807   5.505 -0.1027 -1.9345 -0.7377
   23MOL   H54812912   6.363   2.010   5.637 -1.1634  0.3675 -0.6442
   23MOL   H54912913   6.202   1.803   5.740  1.0725  0.6630  2.3909
   23MOL   H55012914   6.447   1.764   5.794 -4.0636 -0.3884 -0.2501
   23MOL   H55112915   6.387   2.041   5.919 -3.4984  0.4660 -1.2509
   23MOL   H55212916   6.298   1.886   5.932  0.4966  1.3891  1.0158
   23MOL   H55312917   6.485   1.785   6.042 -1.9719  1.2325  1.3688
   23MOL   H55412918   6.515   1.942   6.209  0.1919 -4.0711 -0.2433
   23MOL   H55512919   6.638   2.047   5.986 -1.5000 -0.4673 -0.5413
   23MOL   H55612920   6.730   1.933   6.201  0.2504 -1.2899  0.0213
   23MOL   H55712921   6.753   1.789   6.110  1.9832  0.0331  0.1760
   23MOL   H55812922   6.685   1.782   5.856 -0.4822 -0.2604 -1.7883
   23MOL   H55912923   6.777   1.930   5.846  0.2656  0.3739  1.6281
   23MOL   H56012924   6.619   1.876   5.654 -1.2932  1.1696 -1.0904
   23MOL   H56112925   6.580   2.032   5.737 -0.6909  0.1474  2.8941
   23MOL   H56212926   6.836   1.931   6.064 -0.1178  0.6707  0.0449
   24MOL     O112927   6.846   1.215   0.765  0.5618  0.0605 -0.4148
   24MOL     C212928   6.828   1.336   0.829 -0.0062 -0.1873 -0.1338
   24MOL     C312929   6.779   1.438   0.725 -0.4869  0.2573 -0.2251
   24MOL     O412930   6.882   1.450   0.633  0.1296  0.4750 -0.2301
   24MOL     C512931   6.654   1.393   0.636  0.0611  0.5372 -0.1737
   24MOL     C612932   6.640   1.477   0.516  0.1391  0.0228 -0.2312
   24MOL     C712933   6.515   1.440   0.426  0.7134 -0.4654 -0.0486
   24MOL     O812934   6.535   1.536   0.320 -0.4195 -0.0124 -0.0354
   24MOL     C912935   6.390   1.463   0.499  0.7773 -0.0566  0.4252
   24MOL    C1012936   6.259   1.432   0.427  0.7318  0.3216  0.1081
   24MOL    C1112937   6.397   1.379   0.627  1.1931 -0.2001  0.5600
   24MOL    C1212938   6.518   1.406   0.706 -0.2201 -0.6152  0.5551
   24MOL    H1312939   6.911   1.360   0.895  1.0044 -0.8000 -1.1545
   24MOL    H1412940   6.741   1.320   0.893 -0.2603 -0.7949 -0.6265
   24MOL    H1512941   6.755   1.538   0.762  0.2104  0.5697 -0.5988
   24MOL    H1612942   6.924   1.528   0.665 -3.5541  2.4663 -0.0243
   24MOL    H1712943   6.683   1.296   0.598 -0.2260  0.6634 -0.7244
   24MOL    H1812944   6.643   1.579   0.552 -2.0284 -0.5913  1.8609
   24MOL    H1912945   6.724   1.465   0.448 -0.3395 -0.1574 -0.8010
   24MOL    H2012946   6.518   1.340   0.382  1.6174  0.0014 -1.0778
   24MOL    H2112947   6.528   1.490   0.237 -3.4191  0.4364 -0.0825
   24MOL    H2212948   6.385   1.566   0.534  0.3708  0.0430  0.0710
   24MOL    H2312949   6.171   1.457   0.487 -0.8616 -1.6290 -1.3330
   24MOL    H2412950   6.260   1.494   0.337  3.0712  0.0537 -0.0639
   24MOL    H2512951   6.398   1.274   0.597  0.5142 -0.0400 -0.0667
   24MOL    H2612952   6.306   1.388   0.687 -0.0937 -1.7269 -1.0840
   24MOL    H2712953   6.526   1.336   0.790 -0.2409 -0.9424  0.2871
   24MOL    H2812954   6.499   1.506   0.744  0.0838 -0.3389 -0.0237
   24MOL    H2912955   6.869   1.243   0.678 -0.8806  0.2479 -0.7398
   24MOL    O3012956   6.248   1.294   0.388 -0.2746  0.2867 -0.6735
   24MOL    C3112957   6.131   1.261   0.315  0.7318  0.1563  0.7241
   24MOL    C3212958   6.164   1.181   0.193  0.4372 -0.4106  0.6479
   24MOL    O3312959   6.057   1.113   0.133  0.1673  0.5210 -0.1519
   24MOL    C3412960   6.228   1.261   0.076  0.0551 -0.5480  0.4855
   24MOL    C3512961   6.376   1.294   0.101 -0.6210  0.4933  0.2094
   24MOL    C3612962   6.458   1.371   7.625  0.2725  0.6078  0.6684
   24MOL    O3712963   6.579   1.422   0.054 -0.6326  0.2091 -0.0929
   24MOL    C3812964   6.377   1.474   7.542 -0.2161 -0.1209 -0.5756
   24MOL    C3912965   6.438   1.503   7.402  0.1205  0.3216 -0.1758
   24MOL    C4012966   6.229   1.437   7.523  1.3049 -0.3129 -0.3650
   24MOL    C4112967   6.159   1.392   0.025  0.2745  0.2280  0.1852
   24MOL    H4212968   6.070   1.349   0.294  1.7833  1.4340  2.8141
   24MOL    H4312969   6.081   1.203   0.393  0.0103  0.0355  0.1766
   24MOL    H4412970   6.235   1.112   0.239 -0.1882 -0.2296  1.9152
   24MOL    H4512971   6.058   1.019   0.133 -1.4853  0.4934 -0.1636
   24MOL    H4612972   6.232   1.183   7.629  2.9702 -1.0998  1.1160
   24MOL    H4712973   6.369   1.366   0.182 -0.9307  0.6656  0.0298
   24MOL    H4812974   6.423   1.207   0.148 -0.9141 -0.9601 -2.1179
   24MOL    H4912975   6.492   1.307   7.543 -0.7547  0.4353  0.3674
   24MOL    H5012976   6.648   1.358   0.057 -0.3965  0.4838  0.3934
   24MOL    H5112977   6.379   1.556   7.614  0.6855 -0.3364 -0.3492
   24MOL    H5212978   6.533   1.552   7.426  0.0525 -0.9545  2.8828
   24MOL    H5312979   6.449   1.410   7.347 -0.4600  0.8310 -1.1696
   24MOL    H5412980   6.213   1.363   7.445 -1.6213 -1.5127  1.3074
   24MOL    H5512981   6.164   1.517   7.487  0.4083  0.2831  2.4540
   24MOL    H5612982   6.054   1.372   0.008  0.2526 -0.1929  0.7857
   24MOL    H5712983   6.155   1.475   0.095 -0.7077  0.1984  0.1719
   24MOL    O5812984   6.353   1.591   7.333  0.4296  0.3228 -0.1221
   24MOL    C5912985   6.396   1.614   7.197 -0.7188  0.4358  0.3153
   24MOL    C6012986   6.280   1.684   7.124  0.0934 -0.2717 -0.0884
   24MOL    O6112987   6.289   1.818   7.150 -0.4766 -0.3161  0.3841
   24MOL    C6212988   6.283   1.652   6.967 -0.2680  0.4427  0.3523
   24MOL    C6312989   6.396   1.731   6.900  0.7479 -0.2975 -0.3988
   24MOL    C6412990   6.408   1.711   6.755  0.2604  0.3432 -0.0022
   24MOL    O6512991   6.515   1.798   6.721 -0.5855  0.2173  0.1353
   24MOL    C6612992   6.287   1.750   6.683 -0.0553 -0.3639 -0.4325
   24MOL    C6712993   6.313   1.717   6.542 -0.3908 -0.0631  0.9358
   24MOL    C6812994   6.168   1.675   6.740 -0.7786 -0.0707  0.1943
   24MOL    C6912995   6.151   1.693   6.889  0.0462 -0.2663  0.5094
   24MOL    H7012996   6.426   1.532   7.133 -1.7439  0.0732  0.2962
   24MOL    H7112997   6.489   1.669   7.182  0.1381 -0.9733  0.4058
   24MOL    H7212998   6.182   1.647   7.155 -1.4005  1.6122 -2.3662
   24MOL    H7312999   6.321   1.829   7.238  1.3397 -0.1380 -0.2717
   24MOL    H7413000   6.283   1.543   6.956  1.2350  0.1267  2.9909
   24MOL    H7513001   6.391   1.836   6.929  0.1677  0.3572 -2.8190
   24MOL    H7613002   6.497   1.704   6.929  1.3028 -0.2021 -2.1852
   24MOL    H7713003   6.443   1.611   6.732 -2.1432  0.0444 -2.6885
   24MOL    H7813004   6.485   1.887   6.717  2.5542  1.2146 -2.5153
   24MOL    H7913005   6.270   1.857   6.696  1.7066 -0.0778 -0.3890
   24MOL    H8013006   6.400   1.755   6.489 -1.5659  1.1351 -0.1590
   24MOL    H8113007   6.318   1.608   6.535 -0.8040  0.0317 -1.0326
   24MOL    H8213008   6.173   1.570   6.711  2.6006 -0.0662  0.5880
   24MOL    H8313009   6.075   1.705   6.693 -0.2447  0.7863 -0.3247
   24MOL    H8413010   6.063   1.642   6.926 -1.0146 -0.4491 -2.1953
   24MOL    H8513011   6.139   1.801   6.899 -2.8485 -0.6053  0.8873
   24MOL    O8613012   6.197   1.746   6.466  0.5743 -0.0432  0.3541
   24MOL    C8713013   6.199   1.694   6.332 -0.1675  0.3001 -0.4646
   24MOL    C8813014   6.078   1.735   6.247  0.3783 -0.3852  0.5349
   24MOL    O8913015   5.971   1.722   6.336  0.1641  0.6745  0.5797
   24MOL    C9013016   6.099   1.862   6.163 -0.1135  0.2126 -0.9181
   24MOL    C9113017   6.093   1.989   6.258 -0.2723 -0.3334  0.4920
   24MOL    C9213018   6.098   2.120   6.175 -0.3378  0.5528 -0.5075
   24MOL    O9313019   6.076   2.219   6.268 -0.4925 -0.1985 -0.2360
   24MOL    C9413020   6.003   2.132   6.056 -0.1946  0.0078  0.3284
   24MOL    C9513021   6.037   2.250   5.966 -0.2161  0.6349 -0.0533
   24MOL    C9613022   5.994   2.004   5.974  0.4464  0.3487  0.2488
   24MOL    C9713023   5.982   1.879   6.064 -0.2067  0.1283  0.3981
   24MOL    H9813024   6.203   1.585   6.331  0.5468  0.2928  0.9942
   24MOL    H9913025   6.287   1.719   6.273  0.9841  0.6928  1.3566
   24MOL   H10013026   6.054   1.653   6.179  1.4136 -1.2786  1.2337
   24MOL   H10113027   5.997   1.770   6.413 -0.3432  0.2270  1.0271
   24MOL   H10213028   6.189   1.847   6.103 -0.9396 -0.4927 -2.0099
   24MOL   H10313029   6.001   1.991   6.317 -0.2992  0.2692  0.4323
   24MOL   H10413030   6.176   1.984   6.328 -0.2232 -0.6031  0.4165
   24MOL   H10513031   6.196   2.129   6.127 -1.7215 -1.2644 -3.8533
   24MOL   H10613032   6.162   2.232   6.306  0.7692 -0.7196 -2.8343
   24MOL   H10713033   5.903   2.157   6.093  0.7170  1.4113  1.9219
   24MOL   H10813034   6.026   2.350   6.008 -0.8483  0.5899 -0.1157
   24MOL   H10913035   6.138   2.230   5.930 -0.4492  1.2711 -1.0660
   24MOL   H11013036   6.081   1.985   5.910  0.0432  0.3032 -0.2861
   24MOL   H11113037   5.910   2.001   5.905  0.3468  0.3652  0.3716
   24MOL   H11213038   5.975   1.789   6.002  0.7681 -0.2318  0.7982
   24MOL   H11313039   5.893   1.885   6.125 -1.4400  0.4183 -1.3910
   24MOL   O11413040   5.948   2.246   5.861  0.0854 -0.2495  0.1138
   24MOL   C11513041   5.983   2.350   5.773 -0.4875  0.2106 -0.1966
   24MOL   C11613042   5.909   2.329   5.629  0.2219 -0.4278 -0.5252
   24MOL   O11713043   5.909   2.442   5.540 -0.0776  0.1549 -0.3614
   24MOL   C11813044   5.966   2.209   5.545  0.1516  0.4775 -0.4313
   24MOL   C11913045   6.113   2.232   5.501  1.0113 -0.5433 -0.3973
   24MOL   C12013046   6.159   2.107   5.425 -0.7260  1.1966 -0.1722
   24MOL   O12113047   6.294   2.135   5.383 -0.3026  0.1365  0.5761
   24MOL   C12213048   6.069   2.076   5.299  1.0098 -0.0059  0.8203
   24MOL   C12313049   6.113   1.957   5.219 -0.1565  0.1112 -0.4037
   24MOL   C12413050   5.925   2.061   5.344 -0.3955  0.8469  0.1811
   24MOL   C12513051   5.874   2.180   5.429  0.2132 -0.4251 -0.0086
   24MOL   H12613052   6.087   2.372   5.749 -0.7749  0.0354 -1.6151
   24MOL   H12713053   5.937   2.432   5.828 -1.8770 -0.0884 -0.8794
   24MOL   H12813054   5.803   2.305   5.642  0.1647 -0.8101 -1.6212
   24MOL   H12913055   5.994   2.483   5.542 -1.4105  3.0688 -0.2003
   24MOL   H13013056   5.986   2.118   5.602  0.5049  2.2121  2.2681
   24MOL   H13113057   6.125   2.314   5.430 -0.3857  2.1919  2.3899
   24MOL   H13213058   6.180   2.247   5.586 -0.2741 -0.6758  0.6683
   24MOL   H13313059   6.151   2.021   5.492 -0.6267  1.5247  0.2661
   24MOL   H13413060   6.298   2.120   5.290  0.1046 -0.8845  0.7551
   24MOL   H13513061   6.082   2.170   5.246 -0.7498 -0.4439 -0.4273
   24MOL   H13613062   6.093   1.862   5.268 -2.4982  1.4821  1.4693
   24MOL   H13713063   6.054   1.951   5.128  0.7989  0.8171 -1.0742
   24MOL   H13813064   5.914   1.966   5.397 -1.1494  1.6534  1.4837
   24MOL   H13913065   5.868   2.045   5.252 -2.5069  1.2518  1.3870
   24MOL   H14013066   5.779   2.148   5.471  1.5778  0.0278  3.5643
   24MOL   H14113067   5.870   2.267   5.363  0.1593 -0.9805 -0.7416
   24MOL   O14213068   6.247   1.970   5.184 -0.5870  0.0525  0.4589
   24MOL   C14313069   6.297   1.857   5.101  0.6459 -0.4875 -0.2719
   24MOL   C14413070   6.443   1.870   5.083  0.2585 -0.1430 -0.3470
   24MOL   O14513071   6.511   1.846   5.204 -0.5979 -0.4281  0.1788
   24MOL   C14613072   6.500   1.775   4.972  0.6437  0.0009  0.2614
   24MOL   C14713073   6.447   1.632   4.968  0.0545  0.0344  0.4324
   24MOL   C14813074   6.504   1.543   4.858 -0.2628 -0.5881  0.0686
   24MOL   O14913075   6.457   1.404   4.872 -0.1677 -0.4393  0.5172
   24MOL   C15013076   6.659   1.554   4.849 -0.1989  0.3822  0.5794
   24MOL   C15113077   6.713   1.480   4.730  0.8238  0.0862 -0.0719
   24MOL   C15213078   6.696   1.702   4.844  0.2392 -0.2683  0.2280
   24MOL   C15313079   6.652   1.771   4.969 -0.1043 -0.5059  0.3980
   24MOL   H15413080   6.245   1.850   5.005 -2.1829 -0.3586  1.1929
   24MOL   H15513081   6.268   1.762   5.146 -1.0977 -0.7203 -1.8045
   24MOL   H15613082   6.473   1.972   5.059  0.1826  0.2273  1.0776
   24MOL   H15713083   6.460   1.888   5.271 -1.1857 -2.8358  1.3066
   24MOL   H15813084   6.463   1.808   4.875  1.5670  2.7114  0.7954
   24MOL   H15913085   6.467   1.596   5.069  2.6430 -1.1101 -0.4340
   24MOL   H16013086   6.338   1.620   4.962  0.1350  0.6563 -2.9983
   24MOL   H16113087   6.472   1.595   4.767 -0.2029  0.7231  0.7766
   24MOL   H16213088   6.501   1.355   4.804  2.2891  1.8897  0.3295
   24MOL   H16313089   6.704   1.508   4.936  1.2879  1.8218  0.5891
   24MOL   H16413090   6.820   1.465   4.742  0.5520 -0.4393  1.9291
   24MOL   H16513091   6.683   1.376   4.737  1.8938 -0.2121  0.0813
   24MOL   H16613092   6.671   1.753   4.751 -0.1670 -2.1892 -0.7272
   24MOL   H16713093   6.804   1.707   4.827  0.0551  2.4436 -0.4586
   24MOL   H16813094   6.700   1.867   4.988 -1.1903  0.1295 -0.0158
   24MOL   H16913095   6.682   1.715   5.058  0.8292  1.2261  1.1892
   24MOL   O17013096   6.669   1.544   4.602  0.0133 -0.1263 -1.2557
   24MOL   C17113097   6.669   1.445   4.497  0.6882  0.3309  0.1611
   24MOL   C17213098   6.817   1.399   4.463  0.4164 -0.1860 -0.3078
   24MOL   O17313099   6.819   1.273   4.406 -0.2673  0.3654  0.2118
   24MOL   C17413100   6.901   1.498   4.376  0.4388  0.3516  0.0394
   24MOL   C17513101   6.870   1.514   4.234  0.3214  0.4968  0.3986
   24MOL   C17613102   6.956   1.610   4.150 -0.0677  0.3110  0.5976
   24MOL   O17713103   6.927   1.589   4.015 -0.1453 -0.0525 -0.0866
   24MOL   C17813104   7.107   1.588   4.175  0.3103  0.0367 -0.5667
   24MOL   C17913105   7.199   1.693   4.106 -0.1965 -0.1774  1.0715
   24MOL   C18013106   7.131   1.589   4.323 -0.2287 -0.1860  0.0965
   24MOL   C18113107   7.053   1.482   4.395  0.1815 -0.6114  0.5263
   24MOL   H18213108   6.626   1.495   4.410  2.3501  1.7169  0.0928
   24MOL   H18313109   6.612   1.358   4.527 -1.5415  2.8324  3.4990
   24MOL   H18413110   6.856   1.380   4.563 -1.9565  4.1967  1.5366
   24MOL   H18513111   6.801   1.209   4.473  0.7827  0.8350  0.9574
   24MOL   H18613112   6.891   1.597   4.420 -1.2693 -0.2811  1.1382
   24MOL   H18713113   6.877   1.417   4.185  2.4095  1.7154 -1.8392
   24MOL   H18813114   6.763   1.533   4.217  0.2653 -0.3252 -0.1853
   24MOL   H18913115   6.923   1.712   4.165 -1.7779 -0.3022  1.1610
   24MOL   H19013116   6.983   1.652   3.972 -0.5953  0.1578 -0.3724
   24MOL   H19113117   7.133   1.487   4.143  3.7107  0.4565  0.6720
   24MOL   H19213118   7.195   1.784   4.166  0.9290 -1.0572  2.5199
   24MOL   H19313119   7.304   1.662   4.112  0.0826  0.5817  0.2286
   24MOL   H19413120   7.121   1.687   4.369  1.3162  0.6368 -1.2651
   24MOL   H19513121   7.239   1.574   4.331 -0.0821  0.8739  0.1025
   24MOL   H19613122   7.069   1.502   4.501 -1.0522  0.5808  0.5028
   24MOL   H19713123   7.088   1.382   4.370 -0.3138 -0.5545 -0.4281
   24MOL   O19813124   7.171   1.717   3.974  0.0460  0.0988  0.1169
   24MOL   C19913125   7.214   1.844   3.917  0.2565  0.0753  0.1644
   24MOL   C20013126   7.191   1.836   3.765  0.6693 -0.5044  0.1570
   24MOL   O20113127   7.053   1.846   3.741  0.4912 -0.0657 -0.0018
   24MOL   C20213128   7.266   1.950   3.694  0.1164  0.3057  0.0367
   24MOL   C20313129   7.262   2.089   3.775  0.5915  0.0094 -0.0545
   24MOL   C20413130   7.347   2.202   3.711  0.4003  0.0438 -0.2576
   24MOL   O20513131   7.343   2.307   3.800 -0.0805 -0.4479  0.2236
   24MOL   C20613132   7.300   2.236   3.568  0.0117  0.2214 -0.2029
   24MOL   C20713133   7.398   2.338   3.505 -0.3608 -0.0340 -0.1396
   24MOL   C20813134   7.297   2.100   3.480  0.2815 -0.1868 -1.5026
   24MOL   C20913135   7.217   1.988   3.549  0.2496 -0.5476  0.2466
   24MOL   H21013136   7.317   1.867   3.943 -0.1744  1.4972  0.6463
   24MOL   H21113137   7.140   1.914   3.955 -2.2359 -1.4769 -1.6812
   24MOL   H21213138   7.227   1.740   3.727 -2.0376 -1.5293  0.0962
   24MOL   H21313139   7.035   1.797   3.662 -1.0848 -2.0695  1.5516
   24MOL   H21413140   7.371   1.921   3.697 -0.1437 -0.8455 -1.4999
   24MOL   H21513141   7.157   2.117   3.762  0.5410 -0.7044 -1.2725
   24MOL   H21613142   7.279   2.074   3.881 -1.6565 -0.2678  0.2962
   24MOL   H21713143   7.450   2.167   3.707  0.2556 -0.4344  0.1753
   24MOL   H21813144   7.388   2.385   3.770 -1.3056  0.8613  1.7093
   24MOL   H21913145   7.202   2.282   3.581  1.2045  3.1359 -0.9119
   24MOL   H22013146   7.498   2.296   3.510 -1.0945 -2.0022 -1.4604
   24MOL   H22113147   7.375   2.345   3.399 -2.2963 -0.5659  0.2168
   24MOL   H22213148   7.398   2.065   3.457  1.0195  1.2327 -0.4880
   24MOL   H22313149   7.250   2.132   3.387  0.1965  3.0002 -0.4179
   24MOL   H22413150   7.231   1.892   3.498  3.4315 -0.7844  1.4460
   24MOL   H22513151   7.112   2.013   3.563 -0.5508 -1.8687 -3.0034
   24MOL   O22613152   7.386   2.459   3.575 -0.1746 -0.0184  0.1212
   24MOL   C22713153   7.464   2.565   3.531 -0.4914 -0.0555  0.0235
   24MOL   C22813154   7.399   2.701   3.552 -0.4268  0.2490 -0.8061
   24MOL   O22913155   7.272   2.710   3.475 -0.1697  0.4106 -0.6440
   24MOL   C23013156   7.378   2.743   3.704  0.1233 -0.3136  0.3661
   24MOL   C23113157   7.245   2.704   3.765  0.3617  0.0424 -0.3532
   24MOL   C23213158   7.255   2.737   3.918  0.4006 -0.0116  0.4155
   24MOL   O23313159   7.157   2.671   3.995  0.7191 -0.3287  0.5100
   24MOL   C23413160   7.246   2.891   3.941  0.2963  0.6247 -0.1365
   24MOL   C23513161   7.238   2.934   4.089  0.3650  0.0517 -0.6786
   24MOL   C23613162   7.364   2.952   3.864  0.4280 -0.2811  0.2107
   24MOL   C23713163   7.389   2.898   3.720 -0.5641  0.8301  0.0004
   24MOL   H23813164   7.486   2.551   3.425 -0.2244 -0.2204  0.1016
   24MOL   H23913165   7.552   2.569   3.595 -0.1604  0.5256 -0.4579
   24MOL   H24013166   7.469   2.773   3.510 -0.3932  0.6909  0.0104
   24MOL   H24113167   7.222   2.631   3.490 -0.2404  0.5688 -0.0119
   24MOL   H24213168   7.450   2.692   3.768 -0.9621 -2.0846  0.2299
   24MOL   H24313169   7.168   2.768   3.722  1.0449  1.4542  0.4703
   24MOL   H24413170   7.209   2.607   3.730 -1.0232  0.6331 -0.6148
   24MOL   H24513171   7.347   2.701   3.963  0.0981  0.3540  1.3407
   24MOL   H24613172   7.127   2.597   3.944 -4.0411  2.3184 -0.8190
   24MOL   H24713173   7.149   2.914   3.896 -0.9859 -2.0826  1.1324
   24MOL   H24813174   7.137   2.910   4.121 -0.3565  1.2152 -2.0465
   24MOL   H24913175   7.304   2.884   4.161 -1.0581 -0.5465  0.2443
   24MOL   H25013176   7.459   2.936   3.916  1.9083  1.6209 -1.8517
   24MOL   H25113177   7.351   3.060   3.865 -0.0574 -0.3396  1.0725
   24MOL   H25213178   7.491   2.905   3.683 -0.1451 -2.2428  0.4014
   24MOL   H25313179   7.331   2.954   3.646  0.7871 -0.1076 -1.8240
   24MOL   O25413180   7.251   3.072   4.093  0.1806  0.1643  0.1986
   24MOL   C25513181   7.294   3.135   4.214  0.1363  0.1174  0.2160
   24MOL   C25613182   7.379   3.257   4.185 -0.2009 -0.3689  0.1606
   24MOL   O25713183   7.419   3.338   4.290 -0.1763 -0.4922 -0.5069
   24MOL   C25813184   7.493   3.237   4.077  0.1972 -0.3143 -0.3674
   24MOL   C25913185   7.606   3.146   4.128 -0.0501 -0.2318  0.6487
   24MOL   C26013186   0.083   3.115   4.026 -0.3176  0.2094 -0.3572
   24MOL   O26113187   0.191   3.032   4.078 -0.2126  0.6726 -0.0411
   24MOL   C26213188   0.139   3.249   3.965 -0.8290  0.0722  0.3730
   24MOL   C26313189   0.232   3.212   3.858 -0.6674 -0.4794  0.1288
   24MOL   C26413190   0.032   3.347   3.931  0.3847 -0.6235  0.7894
   24MOL   C26513191   7.561   3.370   4.037 -0.5137  0.3039 -1.1329
   24MOL   H26613192   7.337   3.057   4.277  0.4767 -2.8253 -3.5218
   24MOL   H26713193   7.205   3.161   4.272 -0.1822 -1.4879  0.4719
   24MOL   H26813194   7.313   3.330   4.138  1.1341 -0.5484 -2.0835
   24MOL   H26913195   7.395   3.301   4.374  2.0518  2.2886  1.4561
   24MOL   H27013196   7.444   3.192   3.991 -0.5193 -0.4727  0.1215
   24MOL   H27113197   0.028   3.176   4.220  2.0274  0.4804 -0.6929
   24MOL   H27213198   7.569   3.059   4.181  0.2912 -1.5394 -1.2176
   24MOL   H27313199   0.031   3.059   3.948 -0.0586  1.6602 -1.6064
   24MOL   H27413200   0.183   2.947   4.037  0.6995  0.7976 -0.4843
   24MOL   H27513201   0.192   3.295   4.048  0.8893 -2.3693  0.6901
   24MOL   H27613202   0.269   3.309   3.824 -0.2516 -0.5313  0.4399
   24MOL   H27713203   0.317   3.171   3.912  0.3362  1.0843 -0.2175
   24MOL   H27813204   7.615   3.322   3.836  1.6505 -0.1403  0.0232
   24MOL   H27913205   0.074   3.443   3.901 -0.3681 -0.1336  1.2981
   24MOL   H28013206   7.489   3.436   3.988 -1.7811  0.4731  0.9238
   24MOL   H28113207   7.599   3.431   4.119  0.9581 -3.5000  1.1362
   24MOL   O28213208   0.170   3.137   3.754 -0.5573 -0.2062  0.2563
   24MOL   C28313209   0.263   3.074   3.666 -1.0782 -0.3363  0.3909
   24MOL   C28413210   0.189   3.017   3.547 -1.0850 -0.1710  0.1650
   24MOL   O28513211   0.140   2.886   3.586  0.0341 -0.4102 -0.2586
   24MOL   C28613212   0.073   3.102   3.491 -0.3468  0.0850  0.3398
   24MOL   C28713213   0.015   3.060   3.358 -1.0691 -0.4453 -0.1126
   24MOL   C28813214   7.531   3.147   3.312 -0.2145 -0.4755 -0.1188
   24MOL   O28913215   7.487   3.088   3.187  0.3448  0.3393 -0.4037
   24MOL   C29013216   7.574   3.295   3.303 -0.3902  0.1439  0.6217
   24MOL   C29113217   7.470   3.388   3.230 -0.2144 -0.3580 -0.7152
   24MOL   C29213218   0.010   3.344   3.439  0.1826  0.1481  0.5991
   24MOL   C29313219   0.123   3.246   3.474 -0.8162  0.6071 -0.1686
   24MOL   H29413220   0.310   3.001   3.733 -0.1177 -0.0479  0.0396
   24MOL   H29513221   0.341   3.147   3.646 -2.5488  0.8759 -1.0595
   24MOL   H29613222   0.267   3.001   3.472  0.7620  1.5023  1.6547
   24MOL   H29713223   0.213   2.826   3.581 -1.2665 -2.1059  0.3268
   24MOL   H29813224   7.626   3.103   3.568  0.2160  0.0296  0.9079
   24MOL   H29913225   0.105   3.068   3.298  0.0677 -0.2748  1.5852
   24MOL   H30013226   7.624   2.953   3.364  1.1061 -1.1810 -4.0536
   24MOL   H30113227   7.441   3.128   3.370 -0.3158 -1.9481 -0.7518
   24MOL   H30213228   7.473   2.995   3.196 -0.2243  0.6421  2.1366
   24MOL   H30313229   0.027   3.287   3.232 -0.8468 -1.1280  0.2245
   24MOL   H30413230   7.441   3.342   3.136 -0.5054 -0.0275 -0.7888
   24MOL   H30513231   7.377   3.398   3.287 -1.1790  0.6025 -2.4366
   24MOL   H30613232   7.571   3.344   3.524 -0.9697 -0.2403 -0.3136
   24MOL   H30713233   0.062   3.439   3.445 -2.3168  1.5678  0.5682
   24MOL   H30813234   0.166   3.287   3.566  0.3700 -3.0099  0.9756
   24MOL   H30913235   0.210   3.251   3.408  0.5076 -3.3242  1.1222
   24MOL   O31013236   7.530   3.514   3.212 -0.0750  0.2736  0.0437
   24MOL   C31113237   7.459   3.620   3.145  0.1257 -0.0087 -0.3590
   24MOL   C31213238   7.339   3.688   3.214 -0.0364 -0.3607  0.2015
   24MOL   O31313239   7.400   3.747   3.334  0.2013 -0.2981  0.0650
   24MOL   C31413240   7.267   3.800   3.133  0.3513  0.2870  0.2174
   24MOL   C31513241   7.171   3.884   3.220  0.0074  0.5770 -1.1349
   24MOL   C31613242   7.105   3.999   3.150  0.0070 -0.2955  0.3061
   24MOL   O31713243   7.013   4.045   3.242 -0.4208  0.1415 -0.1085
   24MOL   C31813244   7.024   3.950   3.024 -0.0018  0.4918 -0.4841
   24MOL   C31913245   6.977   4.061   2.933  0.6431  0.5677  0.3179
   24MOL   C32013246   7.113   3.862   2.936  0.1776 -0.2905 -0.5015
   24MOL   C32113247   7.190   3.745   3.007  0.6154  0.2299 -0.7042
   24MOL   H32213248   7.428   3.583   3.047  1.4799  1.0739 -1.2155
   24MOL   H32313249   7.540   3.692   3.128  0.3141 -0.1065  0.1267
   24MOL   H32413250   7.269   3.610   3.244 -1.4753  0.2487 -1.5171
   24MOL   H32513251   7.408   3.680   3.400 -0.9703 -1.3521 -0.8189
   24MOL   H32613252   7.339   3.871   3.092  0.9405  0.8019  2.1098
   24MOL   H32713253   7.100   3.819   3.271  0.5973 -0.2039 -1.2909
   24MOL   H32813254   7.224   3.929   3.304 -1.3975 -0.4485  0.3132
   24MOL   H32913255   7.179   4.073   3.122  0.6776 -0.5111  1.4845
   24MOL   H33013256   6.962   4.116   3.205 -0.8145  0.0705  0.2869
   24MOL   H33113257   6.938   3.888   3.051  1.5808 -1.2552  0.6264
   24MOL   H33213258   6.911   4.134   2.979 -1.5546 -1.5219  0.5650
   24MOL   H33313259   7.068   4.114   2.904 -0.6712  1.9196 -1.4658
   24MOL   H33413260   7.188   3.928   2.893 -0.3978  0.9695  0.4010
   24MOL   H33513261   7.053   3.807   2.864 -1.0669 -0.3628  0.5685
   24MOL   H33613262   7.248   3.687   2.936 -0.5173 -0.1824 -1.3087
   24MOL   H33713263   7.117   3.669   3.037  0.6412  0.5547  0.1828
   24MOL   O33813264   6.914   4.010   2.817  0.5265  0.1654 -0.0822
   24MOL   C33913265   6.841   4.102   2.737 -0.3902 -1.0376  0.1588
   24MOL   C34013266   6.711   4.037   2.686 -0.5098 -0.0299  0.0829
   24MOL   O34113267   6.748   3.974   2.566  0.0086  0.9970  0.1967
   24MOL   C34213268   6.640   3.943   2.779  0.0474  0.7229  0.3120
   24MOL   C34313269   6.511   3.880   2.720 -0.3254 -0.3703 -0.0513
   24MOL   C34413270   6.448   3.787   2.821 -0.5093 -0.2339  0.0856
   24MOL   O34513271   6.320   3.753   2.774  0.1274 -0.4424 -0.8427
   24MOL   C34613272   6.416   3.856   2.949  0.0019 -0.3840 -0.5077
   24MOL   C34713273   6.364   3.756   3.060 -0.1635 -0.3140 -0.2227
   24MOL   C34813274   6.545   3.921   3.014 -0.8351  0.1673  0.3635
   24MOL   C34913275   6.606   4.016   2.910  0.0376 -0.7879 -0.2887
   24MOL   H35013276   6.911   4.144   2.665 -0.7833 -3.1534 -1.4849
   24MOL   H35113277   6.820   4.189   2.800  0.0255 -0.4999 -0.4337
   24MOL   H35213278   6.641   4.115   2.657 -2.8453 -1.5509  1.4205
   24MOL   H35313279   6.790   3.894   2.594  1.4037  2.1442  1.4659
   24MOL   H35413280   6.716   3.867   2.798  0.2089  0.6714 -0.5019
   24MOL   H35513281   6.449   3.959   2.677  1.9943  1.3226 -0.3743
   24MOL   H35613282   6.556   3.819   2.641 -0.7158 -1.5609  0.6325
   24MOL   H35713283   6.519   3.708   2.844  1.7248  2.0047  0.9963
   24MOL   H35813284   6.256   3.739   2.842  1.1942  2.9753  0.9450
   24MOL   H35913285   6.338   3.929   2.928  0.0463 -0.2385 -0.1787
   24MOL   H36013286   6.424   3.665   3.053 -0.5033 -0.7310  1.8479
   24MOL   H36113287   6.386   3.792   3.160 -1.7004 -0.2084  0.0925
   24MOL   H36213288   6.624   3.851   3.041  1.1064  2.2719  0.3675
   24MOL   H36313289   6.529   3.973   3.108 -0.7721  0.5925  0.1410
   24MOL   H36413290   6.689   4.070   2.955  0.1153 -0.6091 -0.6403
   24MOL   H36513291   6.529   4.092   2.891 -0.1546 -0.9791 -0.2777
   24MOL   O36613292   6.229   3.729   3.054  0.6387 -0.1364  1.0417
   24MOL   C36713293   6.148   3.829   3.112 -0.0291 -0.4968  0.0047
   24MOL   C36813294   6.005   3.769   3.138 -0.0196  0.0993 -0.9749
   24MOL   O36913295   5.931   3.863   3.207 -0.0427  0.0923  0.0686
   24MOL   C37013296   5.941   3.728   3.010  0.7101  0.8187  0.2639
   24MOL   C37113297   5.910   3.842   2.917  0.2449  0.3921  0.4250
   24MOL   C37213298   5.811   3.814   2.804  0.7710 -0.6422  0.5024
   24MOL   O37313299   5.756   3.935   2.752 -0.4709  0.2176 -0.4677
   24MOL   C37413300   5.691   3.727   2.847  0.6925 -0.1228  0.4590
   24MOL   C37513301   5.595   3.688   2.729 -0.2575 -0.1939 -0.4620
   24MOL   C37613302   5.730   3.600   2.925 -0.8452  0.2765  0.1863
   24MOL   C37713303   5.818   3.646   3.045  0.6665  0.4496 -0.0973
   24MOL   H37813304   6.147   3.916   3.046 -2.6771 -0.6700 -0.2080
   24MOL   H37913305   6.184   3.876   3.203  0.1293  2.4174 -1.4647
   24MOL   H38013306   6.015   3.682   3.204  0.1059  0.9832  0.1878
   24MOL   H38113307   5.846   3.879   3.167 -0.5155  0.8974  1.3567
   24MOL   H38213308   6.005   3.659   2.954  0.2535  1.6610 -1.3356
   24MOL   H38313309   5.878   3.928   2.977 -0.0271 -0.1801  1.1122
   24MOL   H38413310   6.004   3.885   2.883  1.9905 -1.8908  2.2698
   24MOL   H38513311   5.867   3.759   2.729 -1.9420 -0.9759 -1.3593
   24MOL   H38613312   5.707   3.982   2.818  0.3065  1.2610 -0.6330
   24MOL   H38713313   5.640   3.780   2.927 -1.8412  0.1476 -1.2784
   24MOL   H38813314   5.557   3.777   2.680 -0.6909 -0.6134 -0.8945
   24MOL   H38913315   5.665   3.641   2.661 -0.0992 -0.6895  0.0353
   24MOL   H39013316   5.787   3.544   2.851 -2.3417 -0.6715 -0.2816
   24MOL   H39113317   5.648   3.535   2.956 -0.3739 -0.7431 -0.6891
   24MOL   H39213318   5.837   3.555   3.103 -0.0473 -0.3592 -1.1002
   24MOL   H39313319   5.754   3.708   3.107 -0.2229 -0.2693 -0.2838
   24MOL   O39413320   5.483   3.606   2.765  0.0255 -0.2785  0.3510
   24MOL   C39513321   5.365   3.681   2.771 -0.6486 -0.2088  0.4373
   24MOL   C39613322   5.250   3.569   2.774  0.2927 -0.2998  0.4397
   24MOL   O39713323   5.136   3.611   2.841 -0.6162 -0.1985 -0.3703
   24MOL   C39813324   5.210   3.506   2.640  0.2424 -0.3444  0.0290
   24MOL   C39913325   5.122   3.381   2.658 -0.1180  0.6314  0.2277
   24MOL   C40013326   5.088   3.302   2.531 -0.2479  0.0558  0.4395
   24MOL   O40113327   5.022   3.180   2.564  0.3798  0.8816  0.7512
   24MOL   C40213328   5.213   3.265   2.452  0.1261 -0.1029 -0.0612
   24MOL   C40313329   5.179   3.202   2.313 -0.6333  0.3820  0.0732
   24MOL   C40413330   5.290   3.391   2.419 -0.8234  0.7567 -0.2543
   24MOL   C40513331   5.333   3.474   2.549  0.4971  0.0941 -0.2969
   24MOL   H40613332   5.350   3.745   2.684 -0.0638  1.0769  1.2617
   24MOL   H40713333   5.367   3.742   2.861  0.3425 -0.5983  0.6826
   24MOL   H40813334   5.284   3.488   2.838  2.2381 -0.6345 -0.9977
   24MOL   H40913335   5.156   3.685   2.896 -0.3467 -1.1825  0.8948
   24MOL   H41013336   5.144   3.565   2.576 -0.1272 -1.1096 -0.3060
   24MOL   H41113337   5.188   3.312   2.711  0.6277 -1.7264 -3.5491
   24MOL   H41213338   5.034   3.402   2.718  0.4556  0.5004  1.1229
   24MOL   H41313339   5.019   3.366   2.474  0.7318  0.3444 -0.4341
   24MOL   H41413340   5.045   3.151   2.651 -2.7801 -0.2208  1.2699
   24MOL   H41513341   5.279   3.208   2.517  1.5462  0.7251 -0.7549
   24MOL   H41613342   5.085   3.148   2.326 -0.4866  0.4916  1.7475
   24MOL   H41713343   5.149   3.274   2.237  1.3452 -0.1061 -1.2163
   24MOL   H41813344   5.241   3.448   2.340 -0.9011 -0.1513 -0.8686
   24MOL   H41913345   5.386   3.361   2.376 -1.1453  0.2662 -0.6329
   24MOL   H42013346   5.387   3.563   2.518  0.8277 -0.2211 -0.6243
   24MOL   H42113347   5.405   3.417   2.608 -1.1720  1.2597  2.9374
   24MOL   O42213348   5.289   3.145   2.251 -0.3822 -0.5041 -0.6665
   24MOL   C42313349   5.305   3.008   2.276  0.1968  0.7204 -0.7554
   24MOL   C42413350   5.424   2.977   2.374 -0.2232  0.2050  0.2869
   24MOL   O42513351   5.444   2.837   2.374  0.5084  0.3359 -0.0724
   24MOL   C42613352   5.556   3.059   2.345  0.1196 -0.9847 -0.0831
   24MOL   C42713353   5.639   2.984   2.240 -0.6290 -0.1855 -0.1731
   24MOL   C42813354   5.767   3.062   2.213 -0.2831  0.0808 -0.3751
   24MOL   O42913355   5.822   2.984   2.112  0.3801  0.5600 -0.7042
   24MOL   C43013356   5.862   3.074   2.334 -0.8928  0.6250  0.4546
   24MOL   C43113357   5.991   3.137   2.292 -0.1453 -0.1933 -0.5880
   24MOL   C43213358   5.783   3.144   2.438  0.2030  0.8723  0.1887
   24MOL   C43313359   5.648   3.086   2.471 -0.2385 -0.0169  0.3922
   24MOL   H43413360   5.341   2.973   2.179  0.3059  2.0201 -1.1992
   24MOL   H43513361   5.210   2.960   2.297  0.9197 -1.2341 -1.8044
   24MOL   H43613362   5.385   2.993   2.475 -2.3658  2.9038 -0.9178
   24MOL   H43713363   5.366   2.793   2.403 -0.7878 -0.7420 -4.6769
   24MOL   H43813364   5.530   3.159   2.310  1.8872 -0.6705 -0.5801
   24MOL   H43913365   5.660   2.883   2.275  0.3269 -0.2825 -1.0014
   24MOL   H44013366   5.581   2.978   2.148 -1.4655  3.5307  0.0404
   24MOL   H44113367   5.735   3.161   2.181  1.1936  1.1007  1.2040
   24MOL   H44213368   5.916   2.981   2.122  0.1851  0.6659  1.3484
   24MOL   H44313369   5.899   2.974   2.359 -1.5745 -0.6473 -3.3134
   24MOL   H44413370   5.976   3.233   2.242  0.0152  0.3264  0.3453
   24MOL   H44513371   6.036   3.150   2.391 -1.8059  1.7613 -0.0438
   24MOL   H44613372   5.766   3.243   2.396  0.3546  1.4589  1.4981
   24MOL   H44713373   5.834   3.160   2.532  1.2147  4.2435 -0.8849
   24MOL   H44813374   5.595   3.141   2.549  1.4886  2.2448  0.0284
   24MOL   H44913375   5.680   2.994   2.519  0.6885 -0.5060 -1.1217
   24MOL   O45013376   6.078   3.055   2.224  0.4398  0.0054 -0.0413
   24MOL   C45113377   6.208   3.108   2.198  0.3218  0.2620 -0.3173
   24MOL   C45213378   6.304   2.991   2.145  0.3454 -0.0305  0.3161
   24MOL   O45313379   6.355   2.921   2.254 -0.2546  0.5426 -0.2717
   24MOL   C45413380   6.245   2.913   2.023  0.0916 -0.6008  0.0220
   24MOL   C45513381   6.138   2.809   2.055 -0.6801  0.1867  0.0564
   24MOL   C45613382   6.078   2.746   1.927  0.2091  0.3380  0.1662
   24MOL   O45713383   5.994   2.637   1.961 -0.1951  0.2950  0.4828
   24MOL   C45813384   6.187   2.689   1.836 -0.1402  0.4109  1.3371
   24MOL   C45913385   6.131   2.637   1.704 -0.2965  0.4490 -0.6605
   24MOL   C46013386   6.299   2.790   1.812  0.8434  0.0296 -0.0111
   24MOL   C46113387   6.357   2.850   1.938  0.2828  0.3881  0.3140
   24MOL   H46213388   6.263   3.160   2.277  2.2457  0.4949 -1.7482
   24MOL   H46313389   6.188   3.180   2.118 -1.7714  0.0859  0.0363
   24MOL   H46413390   6.391   3.034   2.096  1.6020 -1.2012  1.4684
   24MOL   H46513391   6.442   2.954   2.269 -0.1333  0.0120  0.1890
   24MOL   H46613392   6.195   2.985   1.957  0.8468  1.1026  1.2515
   24MOL   H46713393   6.174   2.732   2.124 -0.8512 -0.3913 -0.5011
   24MOL   H46813394   6.054   2.853   2.108  1.8692  4.6165  0.6609
   24MOL   H46913395   6.024   2.826   1.877 -2.7442 -0.5960  1.7374
   24MOL   H47013396   6.032   2.580   2.027  0.3916 -4.3920 -3.6098
   24MOL   H47113397   6.227   2.601   1.887 -0.3587 -0.1590  0.5313
   24MOL   H47213398   6.033   2.589   1.704  0.4637 -1.1363 -0.4053
   24MOL   H47313399   6.128   2.711   1.624 -0.8194  0.9375 -0.2041
   24MOL   H47413400   6.264   2.870   1.747 -0.7189  1.4299  2.4803
   24MOL   H47513401   6.372   2.739   1.748  1.0332 -0.3452  0.5017
   24MOL   H47613402   6.433   2.924   1.911 -0.9937  1.6617  0.1462
   24MOL   H47713403   6.419   2.781   1.995 -0.4753 -1.1709 -0.7107
   24MOL   O47813404   6.227   2.537   1.663 -0.0895 -0.2280 -0.1329
   24MOL   C47913405   6.187   2.462   1.550 -0.6909  0.0360  0.3260
   24MOL   C48013406   6.298   2.358   1.519 -0.5839 -0.3786  0.4369
   24MOL   O48113407   6.250   2.249   1.595 -0.6885 -0.4422 -0.5310
   24MOL   C48213408   6.308   2.314   1.370  0.2691  0.3928 -0.1750
   24MOL   C48313409   6.368   2.177   1.349 -0.6507 -0.3084  0.4891
   24MOL   C48413410   6.382   2.144   1.201 -0.4868 -0.0574  0.1905
   24MOL   O48513411   6.433   2.008   1.191 -0.3848 -0.4569  0.3166
   24MOL   C48613412   6.470   2.244   1.123 -0.2842 -0.3581  0.5169
   24MOL   C48713413   6.486   2.211   0.970  0.1289  0.1515 -0.9286
   24MOL   C48813414   6.411   2.382   1.143  0.0938  0.7038 -0.1421
   24MOL   C48913415   6.387   2.421   1.283 -0.3969 -0.5282  0.1986
   24MOL   H49013416   6.169   2.539   1.475  2.9287  0.6925  0.0591
   24MOL   H49113417   6.090   2.414   1.561 -0.5309 -0.2865  0.3559
   24MOL   H49213418   6.402   2.375   1.547 -0.1120 -3.8579  1.1232
   24MOL   H49313419   6.166   2.225   1.560 -1.0619  2.8606 -2.1146
   24MOL   H49413420   6.209   2.293   1.328  0.6324 -3.0666  0.5448
   24MOL   H49513421   6.462   2.173   1.405  0.6696 -1.9179 -1.7392
   24MOL   H49613422   6.326   2.089   1.397  1.6726 -1.6344  0.1900
   24MOL   H49713423   6.283   2.143   1.155  0.0622 -0.0769 -1.0089
   24MOL   H49813424   6.441   1.992   1.098 -0.7511 -1.2105  0.4151
   24MOL   H49913425   6.567   2.256   1.170 -0.4324 -0.4004  0.8367
   24MOL   H50013426   6.533   2.113   0.956  0.5683  0.5676 -2.4246
   24MOL   H50113427   6.383   2.197   0.936  0.5670 -2.8997 -1.1515
   24MOL   H50213428   6.328   2.391   1.074 -0.1872  0.0435  0.1036
   24MOL   H50313429   6.484   2.445   1.092 -0.0285  1.8849  1.1159
   24MOL   H50413430   6.336   2.517   1.285 -0.9004 -0.8034  0.4308
   24MOL   H50513431   6.476   2.444   1.342 -0.3063  1.1235 -0.5551
   24MOL   O50613432   6.553   2.309   0.898  0.2036  0.5355 -0.5525
   24MOL   C50713433   6.573   2.284   0.762  0.3195 -0.1241 -0.3976
   24MOL   C50813434   6.633   2.421   0.714  0.9593  0.2914  0.6982
   24MOL   O50913435   6.763   2.430   0.767 -0.1316  0.0998 -0.0891
   24MOL   C51013436   6.635   2.430   0.559 -0.2987  0.1565 -0.1449
   24MOL   C51113437   6.731   2.326   0.493  0.6532  0.1520 -0.3980
   24MOL   C51213438   6.702   2.332   0.342 -0.2009 -0.3481  0.7291
   24MOL   O51313439   6.776   2.227   0.282  0.7026 -0.3426 -0.2000
   24MOL   C51413440   6.737   2.468   0.278  0.4812 -0.4784  0.4530
   24MOL   C51513441   6.697   2.472   0.126  0.1477  0.3208  0.4739
   24MOL   C51613442   6.677   2.590   0.355 -0.0458 -0.3476 -1.1046
   24MOL   C51713443   6.673   2.579   0.510  0.4377 -0.0531  0.1329
   24MOL   H51813444   6.474   2.276   0.716 -0.3773  0.4794  0.9600
   24MOL   H51913445   6.630   2.193   0.747 -1.8231 -1.4550 -0.7115
   24MOL   H52013446   6.563   2.495   0.752  0.6096 -0.1488  0.9136
   24MOL   H52113447   6.752   2.459   0.856 -0.8706 -0.0064 -0.1404
   24MOL   H52213448   6.534   2.421   0.520  0.1976 -0.0790 -1.4015
   24MOL   H52313449   6.838   2.334   0.515  0.6715 -0.5074 -0.2348
   24MOL   H52413450   6.707   2.225   0.524 -1.0859 -0.2569 -2.9135
   24MOL   H52513451   6.595   2.314   0.329 -0.6664  1.9063  1.1516
   24MOL   H52613452   6.779   2.239   0.189 -1.2872 -1.3547 -0.4262
   24MOL   H52713453   6.846   2.475   0.284  0.6519  1.2025 -3.2071
   24MOL   H52813454   6.589   2.455   0.125  0.0589  0.8979  0.1976
   24MOL   H52913455   6.725   2.565   0.077  0.6524 -0.5365 -0.8978
   24MOL   H53013456   6.575   2.585   0.317  0.3756 -0.8983 -2.1848
   24MOL   H53113457   6.712   2.687   0.322  0.1539  0.1141  0.4286
   24MOL   H53213458   6.591   2.646   0.536  0.4044  0.0407 -0.2039
   24MOL   H53313459   6.766   2.618   0.553 -0.5644  0.3603  1.9422
   24MOL   O53413460   6.774   2.370   0.060  0.2161 -0.3990 -0.1025
   24MOL   C53513461   6.706   2.322   7.580  0.6147  0.4472  0.0657
   24MOL   C53613462   6.813   2.289   7.470 -0.3916 -0.5161  0.3274
   24MOL   O53713463   6.751   2.229   7.354  0.5037 -0.1245 -0.0724
   24MOL   C53813464   6.892   2.408   7.415  0.6866 -0.1264  0.5302
   24MOL   C53913465   6.816   2.511   7.336 -0.4490 -0.3135  0.2272
   24MOL   C54013466   6.895   2.627   7.275  0.6495 -0.4945  0.3228
   24MOL   O54113467   6.796   2.684   7.184 -0.5830  0.1965 -0.5036
   24MOL   C54213468   7.019   2.582   7.195  0.5574  0.4611  0.1809
   24MOL   C54313469   7.110   2.684   7.137 -0.6083 -0.1559  0.1106
   24MOL   C54413470   7.100   2.484   7.283 -0.2779 -0.8875 -0.1082
   24MOL   C54513471   7.009   2.357   7.322  0.0965  0.0470 -0.0475
   24MOL   H54613472   6.623   2.381   7.540  0.0535 -0.8053 -0.6590
   24MOL   H54713473   6.665   2.226   7.612  1.6912  0.0035  0.1303
   24MOL   H54813474   6.876   2.218   7.522  0.7338 -0.2864 -0.6960
   24MOL   H54913475   6.807   2.161   7.319  0.2825  0.3944 -1.4232
   24MOL   H55013476   6.944   2.446   7.502  0.3475  1.4587  0.0606
   24MOL   H55113477   6.767   2.463   7.252 -2.2820  1.9895 -0.1059
   24MOL   H55213478   6.731   2.540   7.399  0.1696  0.9167  0.5240
   24MOL   H55313479   6.915   2.707   7.346 -2.3800  2.2281 -1.7634
   24MOL   H55413480   6.831   2.768   7.160  0.5465 -1.0274 -3.4554
   24MOL   H55513481   6.978   2.525   7.112  1.4181  1.3241 -0.8556
   24MOL   H55613482   7.100   2.742   7.045  2.6950  0.7186  0.2484
   24MOL   H55713483   7.138   2.755   7.215  1.1641 -0.5434 -0.1416
   24MOL   H55813484   7.137   2.520   7.379  0.8764 -2.7366  0.1659
   24MOL   H55913485   7.195   2.454   7.238 -0.3161 -3.2122  1.2548
   24MOL   H56013486   7.082   2.300   7.379  1.0058  2.7100  1.5700
   24MOL   H56113487   6.988   2.289   7.241 -3.1637  1.4329 -0.4572
   24MOL   H56213488   7.206   2.633   7.131  1.1162  2.7945  1.5515
   25MOL     O113489   6.215   4.556   1.215  0.0735  0.3052  0.6885
   25MOL     C213490   6.337   4.488   1.226 -0.8283 -0.4019 -0.3175
   25MOL     C313491   6.316   4.376   1.337 -0.3844 -0.0697  0.3048
   25MOL     O413492   6.184   4.328   1.310 -0.2687 -0.4904  0.0023
   25MOL     C513493   6.421   4.268   1.314 -0.0644 -0.2995  0.1529
   25MOL     C613494   6.370   4.156   1.221 -0.6302  0.4032  0.7926
   25MOL     C713495   6.471   4.054   1.195  0.2776 -0.0220 -0.3804
   25MOL     O813496   6.411   3.959   1.107 -0.4739 -0.2259 -0.2597
   25MOL     C913497   6.519   3.988   1.333  0.1352 -0.0873  0.1124
   25MOL    C1013498   6.638   3.886   1.318  0.1105  0.2002 -0.3856
   25MOL    C1113499   6.551   4.095   1.438 -0.4217  0.3625 -0.0529
   25MOL    C1213500   6.450   4.211   1.453 -0.1056  0.0732 -0.6293
   25MOL    H1313501   6.408   4.566   1.255 -0.4337 -0.4910 -1.0231
   25MOL    H1413502   6.358   4.442   1.129 -0.7361 -0.8220 -0.0989
   25MOL    H1513503   6.328   4.419   1.436  0.8529 -1.1637  0.6378
   25MOL    H1613504   6.142   4.394   1.257 -3.2642 -2.7421 -0.5666
   25MOL    H1713505   6.505   4.331   1.286 -0.1305 -0.7211 -1.0624
   25MOL    H1813506   6.280   4.106   1.256 -1.0246  0.4071 -0.2076
   25MOL    H1913507   6.343   4.209   1.130  1.4898  0.8806  0.4079
   25MOL    H2013508   6.555   4.095   1.138 -0.1776  1.2152 -0.1799
   25MOL    H2113509   6.349   3.907   1.156 -1.5177  3.5889  2.7432
   25MOL    H2213510   6.431   3.935   1.371  0.3666  1.0780  2.2934
   25MOL    H2313511   6.622   3.827   1.228  0.3956  0.4280 -0.5869
   25MOL    H2413512   6.737   3.929   1.304  0.1600 -0.1579 -1.1325
   25MOL    H2513513   6.650   4.133   1.413  0.6775 -2.1858  0.3157
   25MOL    H2613514   6.574   4.046   1.533 -0.9061  2.3681  1.1272
   25MOL    H2713515   6.491   4.283   1.524 -2.5003  0.8975 -0.0496
   25MOL    H2813516   6.356   4.177   1.495 -0.7624  0.6056 -1.6573
   25MOL    H2913517   6.179   4.585   1.297  0.6848  1.9641  0.3893
   25MOL    O3013518   6.646   3.784   1.414 -0.4956  0.3576  0.1616
   25MOL    C3113519   6.740   3.682   1.397 -0.4097 -0.9048  0.0402
   25MOL    C3213520   6.763   3.615   1.534  0.2708 -0.2704 -0.1080
   25MOL    O3313521   6.634   3.587   1.587 -0.5280 -0.0990  0.5482
   25MOL    C3413522   6.859   3.492   1.550 -0.2429 -0.0185 -0.8102
   25MOL    C3513523   6.832   3.388   1.453  0.3074  0.0596  0.0223
   25MOL    C3613524   6.933   3.278   1.475  0.2327  0.2360  0.7707
   25MOL    O3713525   6.913   3.180   1.376  0.0087  0.1183 -0.1463
   25MOL    C3813526   6.928   3.217   1.617  0.0430 -0.0025  0.0357
   25MOL    C3913527   7.041   3.113   1.635  0.2033  0.4953  0.0456
   25MOL    C4013528   6.953   3.332   1.724  0.3719  0.0078  0.6327
   25MOL    C4113529   6.854   3.445   1.693 -0.5370 -0.3594 -0.0067
   25MOL    H4213530   6.834   3.732   1.372 -1.0424  0.5954  0.6212
   25MOL    H4313531   6.704   3.615   1.318  0.6882 -1.3077 -0.1374
   25MOL    H4413532   6.787   3.680   1.619 -1.6220 -0.9717  0.9976
   25MOL    H4513533   6.586   3.653   1.540  0.8892 -1.1701 -2.5602
   25MOL    H4613534   6.952   3.543   1.527  0.1473 -0.2169  0.3275
   25MOL    H4713535   6.730   3.352   1.466 -0.0534  1.0892  0.0751
   25MOL    H4813536   6.846   3.416   1.349 -2.2887  1.2206 -0.0466
   25MOL    H4913537   7.023   3.335   1.453 -0.3846  0.1921 -2.1223
   25MOL    H5013538   6.998   3.158   1.341  0.3008  1.7007 -0.4594
   25MOL    H5113539   6.830   3.175   1.638  0.3681  0.0912  1.7796
   25MOL    H5213540   7.024   3.026   1.572 -0.6770  0.6411  0.0702
   25MOL    H5313541   7.132   3.156   1.595  0.6529 -1.1700 -0.7532
   25MOL    H5413542   7.051   3.380   1.715  0.2992 -0.0770 -0.7541
   25MOL    H5513543   6.937   3.306   1.829 -1.6553 -1.3391  0.0173
   25MOL    H5613544   6.873   3.522   1.768  1.6297  0.0901 -0.9948
   25MOL    H5713545   6.755   3.409   1.722 -1.5805  0.8632 -1.9822
   25MOL    O5813546   7.063   3.078   1.768  0.2326 -0.0681 -0.3112
   25MOL    C5913547   6.989   2.960   1.817 -0.0695  0.3049  1.0439
   25MOL    C6013548   6.862   2.993   1.894  0.7543 -0.0824  0.6364
   25MOL    O6113549   6.758   2.901   1.847  0.7024 -0.1208  0.2351
   25MOL    C6213550   6.865   2.998   2.050 -0.5021  0.8307  0.6494
   25MOL    C6313551   6.713   3.022   2.102  0.3186 -0.3592 -0.0943
   25MOL    C6413552   6.702   3.035   2.251 -0.1958  0.3534 -0.0070
   25MOL    O6513553   6.572   3.068   2.277  0.6012  0.2484  0.0188
   25MOL    C6613554   6.792   3.150   2.297  0.8092  0.7236  0.1854
   25MOL    C6713555   6.772   3.173   2.453  0.2604  0.1623  0.2108
   25MOL    C6813556   6.932   3.107   2.263 -0.1455  0.1796 -0.6446
   25MOL    C6913557   6.955   3.104   2.113 -0.0192  0.4025  1.0897
   25MOL    H7013558   7.053   2.915   1.892 -0.2581  0.5136  1.3302
   25MOL    H7113559   6.971   2.893   1.733 -2.3685  3.3080 -0.9564
   25MOL    H7213560   6.835   3.093   1.858  2.0945  0.2583  0.5660
   25MOL    H7313561   6.698   2.951   1.795  1.5439  0.1843 -0.4583
   25MOL    H7413562   6.901   2.901   2.085 -1.5577  0.5643  1.0493
   25MOL    H7513563   6.676   3.112   2.053  1.1825 -1.1234 -2.2247
   25MOL    H7613564   6.665   2.929   2.070  0.7795 -0.4182 -0.6246
   25MOL    H7713565   6.739   2.946   2.301 -0.1412  1.0215  1.1758
   25MOL    H7813566   6.542   3.133   2.216 -0.5618  0.1461  0.4709
   25MOL    H7913567   6.761   3.241   2.247 -0.0047  0.0734 -0.4965
   25MOL    H8013568   6.669   3.176   2.489 -0.0959  0.8487 -0.8499
   25MOL    H8113569   6.820   3.088   2.501 -0.1851  0.4787  1.2175
   25MOL    H8213570   6.967   3.014   2.308  0.0223  0.7816  0.4905
   25MOL    H8313571   7.001   3.175   2.313 -0.2459  2.0524 -2.9985
   25MOL    H8413572   7.061   3.093   2.090  0.5567 -0.0235  3.7653
   25MOL    H8513573   6.925   3.203   2.076 -0.7714 -0.6812 -1.2993
   25MOL    O8613574   6.847   3.278   2.506 -0.0022 -0.1217 -0.0532
   25MOL    C8713575   6.806   3.407   2.479  0.3856  0.2461 -0.2011
   25MOL    C8813576   6.856   3.505   2.595 -0.1167 -0.4190 -0.2333
   25MOL    O8913577   6.810   3.637   2.570  0.2713  0.2792 -0.1920
   25MOL    C9013578   6.827   3.461   2.742  0.5752  0.3997 -0.4665
   25MOL    C9113579   6.682   3.419   2.762 -0.2147 -0.9869  0.4573
   25MOL    C9213580   6.645   3.383   2.903 -0.3042  0.0681  0.0242
   25MOL    O9313581   6.509   3.355   2.914  0.1590 -0.1961  0.4108
   25MOL    C9413582   6.685   3.483   3.005  0.1787  0.2302 -0.4662
   25MOL    C9513583   6.664   3.447   3.155  0.2612 -0.1549 -0.5319
   25MOL    C9613584   6.834   3.530   2.989  0.6471 -0.4340 -0.3618
   25MOL    C9713585   6.866   3.567   2.843 -0.1719 -0.4928 -0.5790
   25MOL    H9813586   6.698   3.419   2.471  0.4845  1.1813 -0.1385
   25MOL    H9913587   6.847   3.436   2.382 -1.1588  1.8003 -0.4002
   25MOL   H10013588   6.964   3.513   2.582  0.1568 -2.2861  0.7836
   25MOL   H10113589   6.835   3.659   2.482  2.8553  1.9250  0.8582
   25MOL   H10213590   6.888   3.371   2.753 -0.3128 -0.0202  1.2462
   25MOL   H10313591   6.617   3.498   2.724 -0.0564 -0.5851  1.0145
   25MOL   H10413592   6.655   3.340   2.692 -1.6980  1.2755 -1.6195
   25MOL   H10513593   6.702   3.290   2.911  0.2251  0.3533 -0.4262
   25MOL   H10613594   6.491   3.272   2.957  1.6155 -1.9691 -2.2266
   25MOL   H10713595   6.621   3.570   2.993  1.3652  0.9421 -1.9398
   25MOL   H10813596   6.560   3.423   3.175  0.7266 -2.0079 -0.2064
   25MOL   H10913597   6.718   3.352   3.160 -0.8625 -0.7322  0.8797
   25MOL   H11013598   6.906   3.457   3.027  0.1532 -1.8059 -1.9622
   25MOL   H11113599   6.852   3.618   3.050  0.2663 -0.9718  0.5312
   25MOL   H11213600   6.969   3.597   2.824 -0.4174  0.0324 -1.0649
   25MOL   H11313601   6.803   3.652   2.820  0.0056 -1.1379 -3.6198
   25MOL   O11413602   6.720   3.542   3.248  0.1238  0.4146  0.2140
   25MOL   C11513603   6.695   3.512   3.384  0.5251  0.0969 -0.4616
   25MOL   C11613604   6.790   3.601   3.475  0.8750  0.2223  0.6143
   25MOL   O11713605   6.919   3.566   3.431 -0.2251  0.2061 -0.3390
   25MOL   C11813606   6.772   3.758   3.460 -0.1767  0.5239 -0.4842
   25MOL   C11913607   6.849   3.838   3.565 -0.5699  0.0052 -0.0850
   25MOL   C12013608   6.846   3.987   3.546  0.0129 -0.7824 -0.6524
   25MOL   O12113609   6.929   4.044   3.643 -0.4030 -0.0027  0.2914
   25MOL   C12213610   6.697   4.031   3.568  0.2444  0.1631 -0.7875
   25MOL   C12313611   6.685   4.186   3.564  0.5459  0.0034  0.1869
   25MOL   C12413612   6.609   3.964   3.461  0.1091  0.0354  0.2503
   25MOL   C12513613   6.623   3.813   3.456 -0.1152 -0.1330  0.0378
   25MOL   H12613614   6.712   3.406   3.404  1.2477  0.2838 -0.1070
   25MOL   H12713615   6.593   3.535   3.415  0.9266 -0.4982  1.3434
   25MOL   H12813616   6.782   3.557   3.574  1.4648 -2.0576 -0.3276
   25MOL   H12913617   6.915   3.611   3.347  1.7377  0.4339 -0.3267
   25MOL   H13013618   6.805   3.797   3.364  1.3815 -0.9911 -0.5868
   25MOL   H13113619   6.819   3.819   3.668 -3.5845 -2.0514 -1.2991
   25MOL   H13213620   6.952   3.802   3.567  0.5325  2.9603 -1.4507
   25MOL   H13313621   6.880   4.003   3.444 -0.5499 -2.7621 -1.1676
   25MOL   H13413622   7.013   4.056   3.602 -0.4754  1.5063  0.5764
   25MOL   H13513623   6.662   3.998   3.666  0.2651  2.8769  0.1701
   25MOL   H13613624   6.751   4.233   3.636  0.1148  0.4359  0.3050
   25MOL   H13713625   6.718   4.217   3.465  1.5639 -0.3804  0.4022
   25MOL   H13813626   6.635   4.003   3.363  0.7263 -0.1895  0.3208
   25MOL   H13913627   6.505   3.993   3.473 -0.1258 -0.7078  0.0360
   25MOL   H14013628   6.574   3.792   3.361 -0.8206 -0.7357  0.5265
   25MOL   H14113629   6.558   3.780   3.536  0.0801  2.3656  1.2581
   25MOL   O14213630   6.544   4.206   3.584  0.9148  0.1338  0.3956
   25MOL   C14313631   6.506   4.344   3.604 -0.2066  0.5619 -0.1377
   25MOL   C14413632   6.386   4.361   3.509 -0.0681  0.2766 -0.3840
   25MOL   O14513633   6.288   4.284   3.567 -0.5023 -0.0693  0.5157
   25MOL   C14613634   6.328   4.510   3.494  0.7130  0.3476  0.0481
   25MOL   C14713635   6.421   4.605   3.417 -0.0419 -0.5392  0.3440
   25MOL   C14813636   6.369   4.749   3.419  0.0379 -0.1819  0.1010
   25MOL   O14913637   6.476   4.831   3.360  0.1146 -0.1134 -0.1278
   25MOL   C15013638   6.350   4.813   3.560  0.2942 -0.0162  0.2664
   25MOL   C15113639   6.297   4.954   3.563  0.1379  0.6455  0.2226
   25MOL   C15213640   6.250   4.719   3.638  0.4695 -0.3462 -0.8830
   25MOL   C15313641   6.305   4.572   3.634  0.3394 -0.4087  1.0342
   25MOL   H15413642   6.585   4.415   3.576 -0.2715  0.9942  0.7830
   25MOL   H15513643   6.498   4.364   3.710  0.6891  2.0542 -0.3235
   25MOL   H15613644   6.400   4.322   3.408 -0.8630 -0.9475 -0.0298
   25MOL   H15713645   6.327   4.215   3.620 -0.1255  0.2489  0.6553
   25MOL   H15813646   6.232   4.506   3.442  0.7697 -0.0639 -0.0239
   25MOL   H15913647   6.528   4.596   3.438  0.3018  2.6343  0.1719
   25MOL   H16013648   6.414   4.562   3.317 -0.6707 -0.2893  0.2783
   25MOL   H16113649   6.279   4.765   3.361 -0.1972  0.0259  0.5250
   25MOL   H16213650   6.432   4.911   3.337  1.3821  0.9913  1.2188
   25MOL   H16313651   6.445   4.807   3.614  1.5985  2.1328 -1.6971
   25MOL   H16413652   6.360   5.022   3.505 -2.8270  2.2888 -1.1474
   25MOL   H16513653   6.212   4.970   3.497  0.7077 -1.1705 -0.9953
   25MOL   H16613654   6.151   4.720   3.593 -0.2437 -2.0674  0.6163
   25MOL   H16713655   6.240   4.757   3.740 -2.0600 -0.6508 -0.9774
   25MOL   H16813656   6.239   4.506   3.691  0.2769 -1.4093 -0.1833
   25MOL   H16913657   6.399   4.574   3.689  1.0842  1.4586 -0.2582
   25MOL   O17013658   6.284   4.988   3.697 -0.5829 -0.2826 -0.2812
   25MOL   C17113659   6.238   5.122   3.712 -0.2064 -0.2396 -0.4310
   25MOL   C17213660   6.171   5.132   3.849  0.6186  0.3691 -0.3800
   25MOL   O17313661   6.203   5.257   3.904  0.3120  0.2637 -0.4053
   25MOL   C17413662   6.013   5.132   3.836 -0.2448 -0.1478  0.2434
   25MOL   C17513663   5.958   5.146   3.978 -0.8406 -0.8148  0.3008
   25MOL   C17613664   5.801   5.138   3.972 -1.0330  0.7079  0.5196
   25MOL   O17713665   5.763   5.161   4.107  0.0294 -0.0383 -0.0770
   25MOL   C17813666   5.761   5.000   3.920  0.1172  0.5083 -0.1104
   25MOL   C17913667   5.612   4.975   3.920 -0.3979  0.2863  0.4625
   25MOL   C18013668   5.814   4.991   3.772  0.6203 -0.5450 -0.3573
   25MOL   C18113669   5.966   5.003   3.772  0.0672 -1.2831  0.2402
   25MOL   H18213670   6.168   5.166   3.641 -1.0904  2.1261  1.8546
   25MOL   H18313671   6.324   5.190   3.712 -1.0080  0.7887  1.2616
   25MOL   H18413672   6.209   5.047   3.906  0.2231  0.5283  0.1261
   25MOL   H18513673   6.295   5.252   3.926  0.3176 -1.5549 -0.7602
   25MOL   H18613674   5.971   5.215   3.779  1.2847 -0.2638 -1.1196
   25MOL   H18713675   6.013   5.087   4.050  0.1016 -0.8657 -0.4595
   25MOL   H18813676   5.984   5.246   4.013  1.1458 -0.8446 -1.0364
   25MOL   H18913677   5.746   5.213   3.914  1.1190  2.0719  0.2036
   25MOL   H19013678   5.813   5.239   4.125 -0.9613  0.7958 -0.9081
   25MOL   H19113679   5.809   4.924   3.983 -1.1545 -0.4949 -0.3299
   25MOL   H19213680   5.574   4.986   4.021 -0.1041  1.1417  0.4832
   25MOL   H19313681   5.554   5.044   3.859  0.7927  1.3485  0.5110
   25MOL   H19413682   5.780   5.060   3.696  0.2579  1.6122  1.7120
   25MOL   H19513683   5.800   4.890   3.733 -0.6191 -0.5758  0.1678
   25MOL   H19613684   5.987   5.010   3.665 -0.3901 -1.4026  0.1402
   25MOL   H19713685   6.023   4.917   3.807  2.1664  0.1660  0.4768
   25MOL   O19813686   5.593   4.845   3.880  0.0830  0.1866  0.2836
   25MOL   C19913687   5.473   4.783   3.926  0.4641 -1.0713 -0.4823
   25MOL   C20013688   5.510   4.634   3.931  0.1042  0.8569  0.0501
   25MOL   O20113689   5.570   4.617   4.058  0.0956  0.2135  0.2806
   25MOL   C20213690   5.378   4.545   3.929 -0.3743 -0.2097  0.1120
   25MOL   C20313691   5.310   4.528   3.790  0.2308 -0.0225  0.0524
   25MOL   C20413692   5.188   4.433   3.790 -0.6410  0.3037  0.3841
   25MOL   O20513693   5.138   4.427   3.655  0.1556 -0.3221 -0.4448
   25MOL   C20613694   5.077   4.491   3.888  0.2246  0.2499 -0.1725
   25MOL   C20713695   4.946   4.417   3.878  0.1632  0.5712 -0.1862
   25MOL   C20813696   5.140   4.493   4.031  0.0219  0.0864 -0.1553
   25MOL   C20913697   5.263   4.582   4.030 -0.2319  0.6215  0.4229
   25MOL   H21013698   5.398   4.796   3.848  0.5711 -0.6275 -0.5157
   25MOL   H21113699   5.427   4.821   4.018  0.8721  1.2945 -1.2246
   25MOL   H21213700   5.585   4.597   3.860  0.5414 -0.4493  1.1577
   25MOL   H21313701   5.596   4.526   4.064 -0.0801  0.1883  0.6224
   25MOL   H21413702   5.403   4.443   3.959  1.1306  0.2174  0.3985
   25MOL   H21513703   5.294   4.628   3.749 -0.2833  0.0641  0.4660
   25MOL   H21613704   5.385   4.491   3.719  1.5472  0.3723  1.2058
   25MOL   H21713705   5.207   4.333   3.828 -3.5166 -0.2441  0.4842
   25MOL   H21813706   5.108   4.337   3.648 -2.4288  0.5435 -0.7997
   25MOL   H21913707   5.055   4.595   3.862 -2.8970  0.0974  1.6605
   25MOL   H22013708   4.918   4.407   3.773 -0.8563  1.0726  0.0334
   25MOL   H22113709   4.960   4.320   3.925 -2.5858  0.3285  0.1739
   25MOL   H22213710   5.169   4.392   4.057  2.4153  0.7174 -0.2123
   25MOL   H22313711   5.069   4.533   4.103 -0.1104 -0.5707  0.0809
   25MOL   H22413712   5.307   4.598   4.129 -1.7922 -1.6344  1.5352
   25MOL   H22513713   5.225   4.679   3.997  0.0635  1.2315  1.8236
   25MOL   O22613714   4.849   4.488   3.959  0.2315 -0.8542 -0.5145
   25MOL   C22713715   4.722   4.430   3.944 -0.2394 -0.1240 -0.2477
   25MOL   C22813716   4.628   4.533   4.006  0.1944  0.1345 -0.2128
   25MOL   O22913717   4.649   4.652   3.940 -0.1685 -0.2423  0.0677
   25MOL   C23013718   4.478   4.496   3.990  1.1200 -0.3121 -0.4821
   25MOL   C23113719   4.435   4.488   3.840  0.2493  0.3036  0.0416
   25MOL   C23213720   4.286   4.452   3.828 -0.2742  0.4000 -0.2362
   25MOL   O23313721   4.260   4.452   3.694  0.0018 -0.5077 -0.3899
   25MOL   C23413722   4.193   4.562   3.896  0.2007  0.4837  0.3138
   25MOL   C23513723   4.040   4.529   3.888  0.1151 -1.0646  0.5000
   25MOL   C23613724   4.242   4.570   4.044  0.7207  0.6739 -0.4276
   25MOL   C23713725   4.393   4.602   4.061  0.2966 -0.1024 -0.3953
   25MOL   H23813726   4.725   4.332   3.992 -1.4162 -0.0880 -0.1061
   25MOL   H23913727   4.702   4.413   3.838 -3.1385  1.0098  0.0826
   25MOL   H24013728   4.649   4.545   4.112 -1.3843  0.8256  0.0307
   25MOL   H24113729   4.741   4.645   3.920 -0.3678 -0.6836 -0.6788
   25MOL   H24213730   4.453   4.405   4.044  0.5615  0.2145  0.1579
   25MOL   H24313731   4.469   4.580   3.793 -0.2269  0.1363 -0.6284
   25MOL   H24413732   4.494   4.413   3.788  0.3809  0.5511 -0.1644
   25MOL   H24513733   4.261   4.356   3.872 -2.3344  0.2752 -1.5719
   25MOL   H24613734   4.229   4.366   3.671  0.4324 -0.5811 -0.6828
   25MOL   H24713735   4.208   4.662   3.856  0.7048 -0.3808 -1.7234
   25MOL   H24813736   4.010   4.531   3.783  0.2661  1.5298  0.4679
   25MOL   H24913737   4.015   4.430   3.927 -0.3112 -2.3683 -2.8779
   25MOL   H25013738   4.215   4.478   4.098  0.1544  0.3968 -1.1840
   25MOL   H25113739   4.174   4.638   4.094 -0.0703 -0.1871 -0.3158
   25MOL   H25213740   4.422   4.604   4.166 -0.4073 -0.5417 -0.1899
   25MOL   H25313741   4.412   4.702   4.024  1.8712  1.4228  4.1514
   25MOL   O25413742   3.962   4.632   3.948 -0.4531 -0.2001 -0.1360
   25MOL   C25513743   3.827   4.589   3.960 -0.2543 -0.6478 -0.0304
   25MOL   C25613744   3.745   4.713   3.963 -0.0393 -0.6413 -0.1092
   25MOL   O25713745   3.799   4.790   4.066 -0.2968 -0.3948 -0.0805
   25MOL   C25813746   3.735   4.794   3.823  0.6100  0.2674 -0.4958
   25MOL   C25913747   3.866   4.839   3.757  0.1269  0.8167 -0.1028
   25MOL   C26013748   3.834   4.913   3.630 -0.5767 -0.5645 -1.2016
   25MOL   O26113749   3.958   4.947   3.568 -0.2222 -0.5661  0.5510
   25MOL   C26213750   3.760   5.039   3.662  0.2519  0.7173 -0.4960
   25MOL   C26313751   3.738   5.125   3.533 -0.0356 -0.7969  0.1471
   25MOL   C26413752   3.625   5.002   3.724 -0.3244  1.1094  0.0331
   25MOL   C26513753   3.648   4.915   3.848 -0.3280 -0.5990 -0.5100
   25MOL   H26613754   3.792   4.524   4.041  0.8120  0.3356  1.2433
   25MOL   H26713755   3.796   4.529   3.875  0.0910  1.0919 -1.3992
   25MOL   H26813756   3.644   4.692   3.997 -1.1206  1.8053 -1.6614
   25MOL   H26913757   3.891   4.767   4.075 -0.1570  0.1257 -0.1577
   25MOL   H27013758   3.684   4.731   3.750  0.6920  1.5342 -1.6519
   25MOL   H27113759   3.925   4.904   3.821 -0.2888 -0.8147  1.9735
   25MOL   H27213760   3.934   4.756   3.737  1.5439  1.5820  1.4379
   25MOL   H27313761   3.783   4.851   3.556 -0.4590  1.4888 -3.0478
   25MOL   H27413762   4.001   4.864   3.556 -0.4867 -0.7042  0.5838
   25MOL   H27513763   3.811   5.102   3.734 -0.8441  0.4340  0.5381
   25MOL   H27613764   3.833   5.156   3.488 -0.1539 -0.1034  0.3788
   25MOL   H27713765   3.680   5.074   3.456  0.0442 -0.9190  0.1679
   25MOL   H27813766   3.556   4.962   3.650 -0.0563  0.3883  0.1671
   25MOL   H27913767   3.568   5.088   3.759 -1.4824  0.9738 -1.4738
   25MOL   H28013768   3.547   4.890   3.880 -0.3070 -0.3976 -0.2855
   25MOL   H28113769   3.695   4.978   3.923 -0.5275  0.7757 -1.5049
   25MOL   O28213770   3.669   5.242   3.568  0.5304 -0.5546 -0.2658
   25MOL   C28313771   3.762   5.345   3.616 -0.1450  0.7174  0.2712
   25MOL   C28413772   3.674   5.467   3.627  0.5816  0.4643  0.4696
   25MOL   O28513773   3.624   5.487   3.497  0.2462 -0.6608  0.0205
   25MOL   C28613774   3.560   5.454   3.730 -0.6486  0.2867 -0.3465
   25MOL   C28713775   3.450   5.563   3.731 -0.0359  0.8158  0.2727
   25MOL   C28813776   3.336   5.536   3.833  0.1247 -1.1204 -0.0410
   25MOL   O28913777   3.248   5.649   3.835  0.2222  0.0399  0.0250
   25MOL   C29013778   3.385   5.508   3.972  0.1055  0.3032  1.0454
   25MOL   C29113779   3.260   5.492   4.068 -0.1738  0.5547  0.1037
   25MOL   C29213780   3.488   5.399   3.974  0.9477  0.0751 -0.1047
   25MOL   C29313781   3.609   5.424   3.876  0.2739  0.1252  0.7465
   25MOL   H29413782   3.835   5.361   3.537 -0.1912  1.5802  0.3932
   25MOL   H29513783   3.820   5.326   3.707  0.7983 -1.1085 -0.6828
   25MOL   H29613784   3.744   5.547   3.651  0.9157 -0.1725  1.6728
   25MOL   H29713785   3.596   5.401   3.468  0.8542 -0.6448 -0.6392
   25MOL   H29813786   3.499   5.367   3.703 -0.9156  0.6180 -0.8178
   25MOL   H29913787   3.506   5.651   3.763  1.9152 -0.3100  0.0169
   25MOL   H30013788   3.415   5.593   3.632 -0.6867 -2.6319 -0.5879
   25MOL   H30113789   3.276   5.457   3.789 -0.9486 -1.5458  2.1332
   25MOL   H30213790   3.165   5.604   3.844  0.6162 -0.7279 -0.1014
   25MOL   H30313791   3.427   5.597   4.018  0.7707  0.5482 -0.0128
   25MOL   H30413792   3.280   5.452   4.167  1.6321 -1.4913 -1.0300
   25MOL   H30513793   3.201   5.582   4.083  0.2720  0.8525  0.0687
   25MOL   H30613794   3.430   5.312   3.944  0.6476  0.7613 -1.6044
   25MOL   H30713795   3.517   5.394   4.078 -2.0494  0.4374  0.8032
   25MOL   H30813796   3.667   5.332   3.876 -0.4494 -0.3494 -1.1633
   25MOL   H30913797   3.680   5.497   3.916  1.5716 -0.9902  0.4949
   25MOL   O31013798   3.184   5.390   4.011 -0.1258 -0.6841  0.1925
   25MOL   C31113799   3.048   5.400   4.064  0.0431  0.1769  0.1482
   25MOL   C31213800   2.968   5.318   3.968  0.2336 -0.1815 -0.1224
   25MOL   O31313801   2.995   5.346   3.835 -0.0517  0.7414 -0.1793
   25MOL   C31413802   2.978   5.166   3.988 -0.7897 -0.4124  0.1218
   25MOL   C31513803   2.938   5.112   4.122  0.3582  0.0629 -0.2003
   25MOL   C31613804   2.927   4.959   4.114  0.5182  0.0857  0.1464
   25MOL   O31713805   2.888   4.910   4.236 -0.1068 -0.1612  0.1980
   25MOL   C31813806   3.058   4.894   4.077  0.0599 -0.3277 -0.3507
   25MOL   C31913807   3.041   4.739   4.061 -0.5373  0.4890  0.6722
   25MOL   C32013808   3.108   4.961   3.944 -0.4462  0.0011 -0.6773
   25MOL   C32113809   3.120   5.112   3.952 -0.1284  0.5706 -0.5026
   25MOL   H32213810   2.999   5.496   4.050 -0.7806 -0.4935 -1.7616
   25MOL   H32313811   3.033   5.378   4.170  0.7243  1.9752  0.6393
   25MOL   H32413812   2.862   5.341   3.982 -0.2003 -1.5521 -0.9653
   25MOL   H32513813   3.089   5.335   3.828 -0.0819 -3.0127  3.1612
   25MOL   H32613814   2.906   5.124   3.918 -2.5168  1.6210  0.6113
   25MOL   H32713815   3.003   5.147   4.202 -0.5570 -0.9375  1.0116
   25MOL   H32813816   2.842   5.149   4.158 -0.0161 -0.2686 -0.8376
   25MOL   H32913817   2.852   4.924   4.042  1.0075 -0.1190 -0.2668
   25MOL   H33013818   2.938   4.948   4.306  1.1648  0.7108 -1.1589
   25MOL   H33113819   3.130   4.906   4.158  0.4547 -0.0564 -0.7351
   25MOL   H33213820   3.014   4.702   4.159 -0.5892 -1.7542 -0.1591
   25MOL   H33313821   2.957   4.702   4.003 -1.4281  2.4918  0.6377
   25MOL   H33413822   3.038   4.933   3.866 -2.0008  0.2828  0.5896
   25MOL   H33513823   3.213   4.932   3.930  0.1058  1.3299  0.5591
   25MOL   H33613824   3.159   5.156   3.861  0.4051  1.8224  0.3107
   25MOL   H33713825   3.188   5.143   4.032 -0.4523  2.3820 -0.9077
   25MOL   O33813826   3.156   4.688   4.013  0.3438 -0.4028 -0.1773
   25MOL   C33913827   3.167   4.545   3.995  0.4602 -0.1597  0.8437
   25MOL   C34013828   3.291   4.502   3.903 -0.5335  0.6962  0.6520
   25MOL   O34113829   3.400   4.562   3.970 -0.2982  0.0109 -0.0848
   25MOL   C34213830   3.312   4.351   3.884  1.2249  0.4198  0.0044
   25MOL   C34313831   3.441   4.315   3.802  0.5187  0.4861  0.2579
   25MOL   C34413832   3.467   4.165   3.820 -0.4705  0.3864  0.3220
   25MOL   O34513833   3.575   4.115   3.753 -0.3390 -0.7817  0.0635
   25MOL   C34613834   3.347   4.091   3.762  0.5080  0.6261 -0.3712
   25MOL   C34713835   3.360   3.936   3.801  0.0480  0.7438 -0.1753
   25MOL   C34813836   3.206   4.133   3.811  0.6355  0.4927 -0.5547
   25MOL   C34913837   3.191   4.280   3.822  0.1359 -0.4907  0.5791
   25MOL   H35013838   3.075   4.512   3.947  0.2998  1.7452 -0.2114
   25MOL   H35113839   3.167   4.505   4.097 -0.6820 -2.7222 -0.1390
   25MOL   H35213840   3.279   4.545   3.804 -0.3467 -1.1882 -0.2094
   25MOL   H35313841   3.393   4.657   3.971  1.0100  0.1163  0.1947
   25MOL   H35413842   3.332   4.326   3.988  0.3085  2.7120  0.7505
   25MOL   H35513843   3.423   4.342   3.698  1.9527 -0.1319 -0.1703
   25MOL   H35613844   3.520   4.374   3.849  0.6751  0.6728 -0.2385
   25MOL   H35713845   3.485   4.137   3.924  1.7053  1.3264  0.2330
   25MOL   H35813846   3.557   4.023   3.741 -0.5154 -0.8297  0.6696
   25MOL   H35913847   3.348   4.083   3.653  0.5217 -0.2789 -0.3121
   25MOL   H36013848   3.343   3.922   3.907 -4.2335 -1.7681 -1.0867
   25MOL   H36113849   3.275   3.895   3.748  0.0503  0.1239  0.3042
   25MOL   H36213850   3.190   4.084   3.908  1.2806 -2.3297 -1.8142
   25MOL   H36313851   3.137   4.086   3.741  1.0218 -1.9120  0.6200
   25MOL   H36413852   3.100   4.308   3.876 -0.5829  0.2996 -1.0056
   25MOL   H36513853   3.180   4.316   3.720 -0.6879  0.8331  1.1223
   25MOL   O36613854   3.480   3.882   3.753 -0.2774 -0.4509 -0.0412
   25MOL   C36713855   3.521   3.748   3.808 -0.1274 -1.0045  0.2934
   25MOL   C36813856   3.655   3.777   3.886 -0.0601 -0.4877  0.4508
   25MOL   O36913857   3.627   3.843   4.012  0.7201 -0.5774 -0.3011
   25MOL   C37013858   3.752   3.653   3.904  0.2535  0.4849 -0.3944
   25MOL   C37113859   3.684   3.545   3.994  0.5651 -0.4006 -0.3842
   25MOL   C37213860   3.775   3.420   4.013 -0.0148  0.5588 -0.7879
   25MOL   O37313861   3.712   3.326   4.099  0.3493 -0.0719 -0.3017
   25MOL   C37413862   3.921   3.454   4.050  0.1519 -0.0954 -0.1535
   25MOL   C37513863   4.018   3.330   4.052  0.4014  0.1812 -0.5582
   25MOL   C37613864   3.984   3.577   3.971  0.2133  0.6326 -0.3615
   25MOL   C37713865   3.889   3.696   3.949  0.9927 -0.1473 -0.6015
   25MOL   H37813866   3.535   3.674   3.729 -0.2666 -1.1905  0.4419
   25MOL   H37913867   3.452   3.705   3.880 -0.5134 -1.1530 -0.1628
   25MOL   H38013868   3.704   3.855   3.827 -1.9521  0.6646  0.3419
   25MOL   H38113869   3.568   3.784   4.057 -0.3103  1.1528  0.7139
   25MOL   H38213870   3.783   3.608   3.810  3.0294  0.7419  0.3473
   25MOL   H38313871   3.659   3.600   4.085  1.0588  1.5901 -1.4162
   25MOL   H38413872   3.584   3.530   3.952  0.4348 -0.3292 -0.1017
   25MOL   H38513873   3.777   3.369   3.917  2.1538 -1.9700  0.5130
   25MOL   H38613874   3.768   3.266   4.145  0.6417  0.9198  0.6479
   25MOL   H38713875   3.916   3.488   4.154 -2.6339  0.2227 -0.3612
   25MOL   H38813876   4.104   3.360   4.112 -0.9691  0.6779  1.2161
   25MOL   H38913877   3.971   3.254   4.114  0.8251  1.0162  0.8052
   25MOL   H39013878   4.015   3.531   3.877 -2.0343  0.5725 -1.1167
   25MOL   H39113879   4.071   3.617   4.023  0.7742 -0.0455 -0.7741
   25MOL   H39213880   3.943   3.758   3.877 -0.1185  1.6166  0.0528
   25MOL   H39313881   3.877   3.752   4.042  1.2168 -2.0446  0.5854
   25MOL   O39413882   4.058   3.294   3.920  0.2107 -0.4278  0.9081
   25MOL   C39513883   4.145   3.188   3.912 -0.2715  0.3336  0.0240
   25MOL   C39613884   4.074   3.056   3.944 -0.0914  0.8257  0.5643
   25MOL   O39713885   3.945   3.053   3.871 -0.5276  0.3140 -0.1660
   25MOL   C39813886   4.157   2.926   3.914  0.0591  0.2552  0.5514
   25MOL   C39913887   4.089   2.802   3.965 -0.1587  0.0506  0.5289
   25MOL   C40013888   4.163   2.672   3.922 -0.1047 -0.3549  0.4365
   25MOL   O40113889   4.101   2.568   3.992 -0.1525  0.1597  0.4879
   25MOL   C40213890   4.308   2.680   3.971  0.0295  0.0283  0.3982
   25MOL   C40313891   4.392   2.558   3.926 -0.2083 -0.8153  0.6971
   25MOL   C40413892   4.385   2.806   3.927 -0.4529 -0.0120  0.4103
   25MOL   C40513893   4.304   2.936   3.963 -0.1482  0.3658  0.2593
   25MOL   H40613894   4.232   3.214   3.971  0.0226  2.5055 -1.3091
   25MOL   H40713895   4.177   3.190   3.808 -3.3600  1.7878 -0.9703
   25MOL   H40813896   4.049   3.052   4.050  0.2752 -1.6585  0.5830
   25MOL   H40913897   3.902   3.137   3.882  0.2574  0.7390 -0.2454
   25MOL   H41013898   4.157   2.920   3.805  1.3945 -0.7757  0.5940
   25MOL   H41113899   4.086   2.802   4.074  0.8657 -0.2219  0.5574
   25MOL   H41213900   3.988   2.791   3.924 -0.1111  0.4580  0.2993
   25MOL   H41313901   4.158   2.659   3.814  2.8061 -0.0671  0.2123
   25MOL   H41413902   4.111   2.586   4.084  3.0801  0.3212  0.1732
   25MOL   H41513903   4.299   2.689   4.079 -0.2553 -0.4683  0.4176
   25MOL   H41613904   4.341   2.463   3.941 -0.5075 -1.0418 -1.5768
   25MOL   H41713905   4.421   2.561   3.820 -0.2836 -0.3620  0.6888
   25MOL   H41813906   4.388   2.808   3.818  1.7785  0.6655  0.4701
   25MOL   H41913907   4.483   2.804   3.974  0.9742 -0.3057 -2.5044
   25MOL   H42013908   4.342   3.029   3.919  0.1703  0.8267  1.4746
   25MOL   H42113909   4.305   2.949   4.072  2.5686  3.3501 -0.0165
   25MOL   O42213910   4.512   2.555   4.001  0.0857 -0.2812 -0.1747
   25MOL   C42313911   4.593   2.445   3.952 -0.4859 -0.0518 -0.6201
   25MOL   C42413912   4.678   2.374   4.066  0.1005 -0.3606  0.0443
   25MOL   O42513913   4.599   2.265   4.101  0.0777 -0.0840 -0.2307
   25MOL   C42613914   4.814   2.326   4.017 -0.5402  0.3034  0.2253
   25MOL   C42713915   4.906   2.450   3.993  0.0554 -0.7689 -0.2965
   25MOL   C42813916   5.050   2.400   3.953  0.4263  0.3358 -0.5758
   25MOL   O42913917   5.122   2.517   3.925  0.1940 -0.1921 -0.1738
   25MOL   C43013918   5.053   2.310   3.830  0.9429  0.2151 -0.5817
   25MOL   C43113919   5.191   2.269   3.782  0.4963  0.2056 -0.1209
   25MOL   C43213920   4.953   2.193   3.847 -0.8345 -0.6275  0.4589
   25MOL   C43313921   4.812   2.232   3.894  0.1152  0.3956 -0.0822
   25MOL   H43413922   4.660   2.500   3.886 -0.3674 -1.7909 -1.9812
   25MOL   H43513923   4.537   2.369   3.898 -2.6376  0.8185  0.3179
   25MOL   H43613924   4.695   2.445   4.147 -0.4566  0.8617 -0.8905
   25MOL   H43713925   4.532   2.290   4.162  0.6890  0.3286  0.2746
   25MOL   H43813926   4.869   2.264   4.089  0.1430  1.3266  0.5907
   25MOL   H43913927   4.871   2.507   3.907  3.6212  1.3059 -0.4886
   25MOL   H44013928   4.907   2.515   4.080 -0.1668 -0.5944 -0.4243
   25MOL   H44113929   5.103   2.348   4.034 -1.2364 -1.0794 -0.3595
   25MOL   H44213930   5.120   2.571   4.002  1.5255 -0.8934  0.3646
   25MOL   H44313931   4.999   2.372   3.758 -1.8809 -1.2618  0.1799
   25MOL   H44413932   5.257   2.355   3.774  0.3769  0.1965 -1.2942
   25MOL   H44513933   5.246   2.204   3.851  2.1389 -1.2737 -2.7380
   25MOL   H44613934   5.000   2.118   3.911 -0.0181 -0.3538  0.1855
   25MOL   H44713935   4.956   2.139   3.752  0.2180  1.1040 -0.5095
   25MOL   H44813936   4.754   2.142   3.916  2.0692 -1.0709 -0.7912
   25MOL   H44913937   4.757   2.269   3.808 -1.2892  2.2471  1.5803
   25MOL   O45013938   5.187   2.199   3.656  0.5301  0.4934 -1.2437
   25MOL   C45113939   5.313   2.207   3.584  1.1350  0.2679 -0.8982
   25MOL   C45213940   5.328   2.086   3.499 -0.5481  0.2346  0.1131
   25MOL   O45313941   5.218   2.086   3.419 -0.6165  0.1020 -0.6886
   25MOL   C45413942   5.449   2.084   3.406 -0.4082  0.0831 -0.6077
   25MOL   C45513943   5.459   1.944   3.335  0.4421  0.1039  0.7993
   25MOL   C45613944   5.584   1.932   3.241 -0.5437 -0.4072  1.2593
   25MOL   O45713945   5.573   1.809   3.184 -0.3559 -0.4153  0.1746
   25MOL   C45813946   5.712   1.949   3.322 -0.5834 -0.0145  0.9217
   25MOL   C45913947   5.843   1.932   3.243 -0.1167 -0.4573 -0.9286
   25MOL   C46013948   5.712   2.083   3.396 -0.0758 -0.2796  0.3768
   25MOL   C46113949   5.585   2.107   3.481  0.5523 -0.1175 -0.2245
   25MOL   H46213950   5.394   2.217   3.656 -1.6147 -0.1931  2.3985
   25MOL   H46313951   5.312   2.300   3.527  1.0984  1.1340  0.4800
   25MOL   H46413952   5.340   2.001   3.567  2.9031 -0.4938 -1.2802
   25MOL   H46513953   5.150   2.131   3.467  1.3235  1.4423  0.8990
   25MOL   H46613954   5.437   2.163   3.332  1.0074 -0.2351 -1.1979
   25MOL   H46713955   5.460   1.860   3.404  0.6909  1.3850  2.3739
   25MOL   H46813956   5.366   1.936   3.278  1.5666 -3.0665 -0.6573
   25MOL   H46913957   5.588   2.015   3.171 -0.5804  0.7399  2.5963
   25MOL   H47013958   5.484   1.782   3.169 -1.3141  2.2127  0.8401
   25MOL   H47113959   5.705   1.867   3.394 -2.1141 -1.5137 -0.8820
   25MOL   H47213960   5.839   1.841   3.184  1.6975 -0.5489 -0.9289
   25MOL   H47313961   5.848   2.020   3.179  0.2253  0.4106  0.2793
   25MOL   H47413962   5.720   2.167   3.327  0.4482 -0.9154 -0.3306
   25MOL   H47513963   5.799   2.086   3.462  0.1830 -0.0955  0.0293
   25MOL   H47613964   5.579   2.211   3.512 -0.5532  0.7419 -3.2327
   25MOL   H47713965   5.595   2.045   3.571 -0.8409  0.0478  0.0560
   25MOL   O47813966   5.963   1.943   3.317  0.0987  0.0831  0.1548
   25MOL   C47913967   6.075   1.921   3.235  0.0396  0.3270  0.1400
   25MOL   C48013968   6.191   2.002   3.276 -0.4796  0.6300  0.3067
   25MOL   O48113969   6.149   2.136   3.250 -0.0886 -0.2156 -0.0096
   25MOL   C48213970   6.244   1.986   3.426 -0.4876 -0.1194 -0.2162
   25MOL   C48313971   6.388   2.042   3.436 -0.3302 -0.5752 -0.4255
   25MOL   C48413972   6.431   2.040   3.582 -0.7041 -0.1333 -0.4229
   25MOL   O48513973   6.566   2.083   3.574  0.2262  0.0021 -0.2016
   25MOL   C48613974   6.423   1.899   3.647  0.2765 -0.0251 -0.2697
   25MOL   C48713975   6.466   1.899   3.793  0.1474  0.7564 -0.4727
   25MOL   C48813976   6.283   1.851   3.638  0.3365  0.5866 -0.0761
   25MOL   C48913977   6.242   1.847   3.488 -0.1295 -0.0350  0.3636
   25MOL   H49013978   6.065   1.935   3.128 -1.4334  2.0821  0.4757
   25MOL   H49113979   6.098   1.815   3.243  2.5038  0.7094 -1.4175
   25MOL   H49213980   6.282   1.982   3.220 -0.0507 -1.2162  1.6295
   25MOL   H49313981   6.079   2.169   3.305 -0.3484  1.7857 -1.4940
   25MOL   H49413982   6.187   2.059   3.483  1.4452 -0.2143  1.9060
   25MOL   H49513983   6.438   1.979   3.363  1.6186  0.7663 -0.2987
   25MOL   H49613984   6.378   2.142   3.395 -0.1190 -0.1877  0.4579
   25MOL   H49713985   6.375   2.110   3.644 -2.1342 -1.7302  0.1315
   25MOL   H49813986   6.610   2.071   3.657 -2.0281  0.0705  1.0588
   25MOL   H49913987   6.490   1.834   3.591  0.2632 -1.5254  1.4470
   25MOL   H50013988   6.392   1.953   3.852 -3.6652 -2.7801 -1.7597
   25MOL   H50113989   6.452   1.797   3.830 -0.4844  0.7941 -0.6046
   25MOL   H50213990   6.220   1.921   3.693 -0.3839  0.8128 -1.1833
   25MOL   H50313991   6.264   1.757   3.689  1.5466 -0.2439 -1.1207
   25MOL   H50413992   6.140   1.808   3.492 -0.4913  0.9101  0.5502
   25MOL   H50513993   6.318   1.785   3.441  0.7467  1.1845  0.1587
   25MOL   O50613994   6.604   1.942   3.805  0.2050 -0.0427  0.0192
   25MOL   C50713995   6.625   1.991   3.938  0.7582  0.0364 -0.2878
   25MOL   C50813996   6.760   2.052   3.967 -0.0386  0.9766 -0.1661
   25MOL   O50913997   6.863   1.957   3.980 -0.3895 -0.6218  0.2157
   25MOL   C51013998   6.805   2.172   3.879 -0.2941  0.6541 -0.1709
   25MOL   C51113999   6.934   2.243   3.926 -0.6771 -0.4141  0.1263
   25MOL   C51214000   6.973   2.351   3.821 -0.3831 -0.6293  0.2408
   25MOL   O51314001   7.085   2.420   3.866  0.0811  0.1062  0.3141
   25MOL   C51414002   6.864   2.452   3.790 -0.9992 -0.6839 -0.2904
   25MOL   C51514003   6.895   2.556   3.679 -0.2736 -0.6152 -0.1624
   25MOL   C51614004   6.733   2.382   3.755 -0.0175 -0.7224 -0.5152
   25MOL   C51714005   6.692   2.279   3.865 -0.4070 -0.2636 -0.5074
   25MOL   H51814006   6.594   1.917   4.012 -0.2765  0.7088 -0.0372
   25MOL   H51914007   6.541   2.059   3.949 -0.9276 -1.7146 -1.8917
   25MOL   H52014008   6.755   2.097   4.067 -0.0375  0.5731  0.0163
   25MOL   H52114009   6.890   1.918   3.898 -0.8655 -0.7831  0.1369
   25MOL   H52214010   6.828   2.126   3.783 -0.2675 -0.4870  0.3659
   25MOL   H52314011   6.922   2.290   4.023  0.0567  0.8340 -0.3737
   25MOL   H52414012   7.014   2.171   3.943  0.8850  1.3163  0.2197
   25MOL   H52514013   7.001   2.307   3.725  0.1233  0.0108  0.0896
   25MOL   H52614014   7.149   2.350   3.873  0.7003  0.7996  1.8254
   25MOL   H52714015   6.845   2.503   3.884  2.8576 -1.0795  0.7898
   25MOL   H52814016   6.804   2.613   3.658  0.2494  1.4037  2.7035
   25MOL   H52914017   6.960   2.636   3.715  0.6661 -0.7242 -1.6173
   25MOL   H53014018   6.748   2.331   3.660 -0.3283  0.6064 -1.2913
   25MOL   H53114019   6.653   2.456   3.744  0.5628  0.2915  1.7272
   25MOL   H53214020   6.594   2.238   3.842 -0.2040 -1.8395  1.3393
   25MOL   H53314021   6.681   2.336   3.957  0.7942  0.6560 -0.9088
   25MOL   O53414022   6.955   2.494   3.570 -0.1461  0.0315 -0.0344
   25MOL   C53514023   6.951   2.574   3.450 -0.5229  0.5318 -0.0781
   25MOL   C53614024   7.013   2.489   3.340 -0.2082 -0.1817  0.6925
   25MOL   O53714025   7.135   2.453   3.391 -0.1154 -0.6670  0.0509
   25MOL   C53814026   6.928   2.362   3.285 -1.0877 -0.0313 -0.2227
   25MOL   C53914027   6.902   2.251   3.387  0.5055  0.2521 -0.8930
   25MOL   C54014028   6.821   2.135   3.323 -0.1637 -0.5564 -0.6906
   25MOL   O54114029   6.797   2.018   3.407  0.3716 -0.3018  0.6586
   25MOL   C54214030   6.899   2.082   3.197 -0.6980 -0.3623 -0.3956
   25MOL   C54314031   6.834   1.969   3.125 -0.4215  0.0242  0.5953
   25MOL   C54414032   6.932   2.187   3.093  0.3646  0.2083  0.4728
   25MOL   C54514033   6.998   2.310   3.164 -0.9216 -0.3070  0.1422
   25MOL   H54614034   7.011   2.665   3.458 -0.6603  0.6357 -0.2290
   25MOL   H54714035   6.852   2.610   3.424 -1.7115 -1.1476  1.9291
   25MOL   H54814036   7.029   2.559   3.258  0.7244  0.5902  1.5261
   25MOL   H54914037   7.117   2.408   3.473 -2.1789 -0.5905 -0.3206
   25MOL   H55014038   6.827   2.396   3.260 -1.3063 -0.0549  0.6190
   25MOL   H55114039   6.997   2.213   3.426  0.2134  0.7683  0.3539
   25MOL   H55214040   6.850   2.291   3.474  1.9182 -0.3593  0.2669
   25MOL   H55314041   6.718   2.157   3.297 -0.8220 -2.4489  0.2831
   25MOL   H55414042   6.717   2.035   3.454  0.5981 -0.6951  1.2029
   25MOL   H55514043   6.994   2.037   3.225  0.8403  2.1899 -1.3367
   25MOL   H55614044   6.900   1.941   3.043 -0.2532  0.1088  0.7016
   25MOL   H55714045   6.830   1.874   3.179  0.8269  0.3082  1.2262
   25MOL   H55814046   6.848   2.210   3.027  0.9192 -2.7653 -1.3771
   25MOL   H55914047   7.001   2.138   3.025  0.4221  0.2282  0.5179
   25MOL   H56014048   7.013   2.379   3.081  0.2494  0.0594  0.6491
   25MOL   H56114049   7.098   2.281   3.194 -0.6527  0.8265  0.3857
   25MOL   H56214050   6.736   1.993   3.085  0.3933 -1.5994 -2.5926
   26MOL     O114051   0.754   6.582   2.443  0.6016  1.0742  0.2861
   26MOL     C214052   0.774   6.720   2.417 -0.4725  0.1301 -0.6776
   26MOL     C314053   0.767   6.778   2.564  0.0053 -0.5512  0.5393
   26MOL     O414054   0.647   6.717   2.620 -0.3571  0.4689  0.5708
   26MOL     C514055   0.895   6.743   2.651 -0.0922  0.0505 -0.2292
   26MOL     C614056   0.870   6.791   2.795  0.9617 -0.0664  0.2263
   26MOL     C714057   0.975   6.761   2.898  0.1874 -0.5241 -0.1097
   26MOL     O814058   0.945   6.802   3.031 -0.5855  0.0016 -0.0745
   26MOL     C914059   1.115   6.814   2.855  0.4577  0.3708  0.0847
   26MOL    C1014060   1.235   6.772   2.942 -0.4597 -0.5408  0.5528
   26MOL    C1114061   1.139   6.767   2.709 -0.0718  1.0601 -0.4411
   26MOL    C1214062   1.027   6.810   2.612 -0.0983 -0.6609 -0.3062
   26MOL    H1314063   0.697   6.753   2.348  0.4039  0.8301 -1.3317
   26MOL    H1414064   0.866   6.730   2.360  0.8906  0.5315  1.5477
   26MOL    H1514065   0.752   6.886   2.567 -1.1143 -0.6977  0.6782
   26MOL    H1614066   0.564   6.743   2.584  0.4346  1.2447 -0.7109
   26MOL    H1714067   0.922   6.638   2.660 -0.1332  0.1059  0.5340
   26MOL    H1814068   0.856   6.899   2.789 -2.0057 -0.4063  0.3480
   26MOL    H1914069   0.772   6.760   2.830  0.8390 -1.0512 -0.9766
   26MOL    H2014070   0.991   6.653   2.908 -3.5888 -1.0318  0.9646
   26MOL    H2114071   0.981   6.734   3.086  0.1072  0.6854  0.3314
   26MOL    H2214072   1.109   6.922   2.870 -0.6866  0.5375 -1.4151
   26MOL    H2314073   1.213   6.805   3.043  0.9486 -0.5613  0.8791
   26MOL    H2414074   1.244   6.664   2.940  0.2020 -0.4790 -0.3551
   26MOL    H2514075   1.166   6.661   2.712  2.0668  1.6116  1.3037
   26MOL    H2614076   1.222   6.826   2.670 -0.6492  1.2984 -1.3247
   26MOL    H2714077   1.063   6.786   2.512 -0.6601 -1.4744 -0.3183
   26MOL    H2814078   1.009   6.916   2.629 -2.0908 -0.6301 -2.2637
   26MOL    H2914079   0.698   6.586   2.519  0.4043  0.5495  0.1650
   26MOL    O3014080   1.358   6.827   2.906  0.6887 -0.1407 -0.2337
   26MOL    C3114081   1.454   6.838   3.007 -0.6064  0.4416 -0.4031
   26MOL    C3214082   1.507   6.706   3.066 -0.0481 -0.1082 -0.4464
   26MOL    O3314083   1.427   6.655   3.169 -0.6849  0.0213 -0.2927
   26MOL    C3414084   1.564   6.593   2.980  0.2492  0.4007  0.0978
   26MOL    C3514085   1.464   6.517   2.885  0.0723  0.0264 -0.1769
   26MOL    C3614086   1.540   6.409   2.797 -0.1743 -0.5898 -0.1757
   26MOL    O3714087   1.459   6.342   2.701  0.4063  0.6683 -0.3511
   26MOL    C3814088   1.606   6.304   2.891 -0.1553  0.7021 -0.0714
   26MOL    C3914089   1.681   6.183   2.821 -0.9841 -0.7011 -0.6642
   26MOL    C4014090   1.708   6.386   2.977 -0.5541  0.3731 -0.7440
   26MOL    C4114091   1.643   6.490   3.067  0.0057 -0.3496  0.7528
   26MOL    H4214092   1.409   6.902   3.083 -0.3358 -0.7933  0.8279
   26MOL    H4314093   1.543   6.893   2.977  0.9412 -1.7818 -0.0259
   26MOL    H4414094   1.596   6.751   3.111 -0.9494  1.5325 -0.2551
   26MOL    H4514095   1.406   6.566   3.143  1.5741 -0.9151  0.9462
   26MOL    H4614096   1.632   6.641   2.910 -2.5707  0.7261 -2.5060
   26MOL    H4714097   1.377   6.475   2.935 -1.7974  2.4855 -1.2289
   26MOL    H4814098   1.433   6.591   2.811  1.2540 -2.2601 -3.0506
   26MOL    H4914099   1.621   6.460   2.745  0.3963 -2.9946 -1.7311
   26MOL    H5014100   1.464   6.385   2.617  1.0727  0.0321 -0.6494
   26MOL    H5114101   1.527   6.263   2.954  0.6307 -2.1495 -0.8709
   26MOL    H5214102   1.722   6.125   2.903  0.5989  1.8130  0.4041
   26MOL    H5314103   1.612   6.116   2.770 -0.2892  0.1935 -2.8618
   26MOL    H5414104   1.787   6.412   2.907  0.3901 -1.8353 -0.5614
   26MOL    H5514105   1.750   6.314   3.048  0.3743  1.8146  0.1804
   26MOL    H5614106   1.727   6.542   3.112  0.9110 -0.6619 -0.5442
   26MOL    H5714107   1.584   6.437   3.142  0.9697 -1.6931  0.5763
   26MOL    O5814108   1.791   6.233   2.734 -0.1125 -0.4776 -0.2740
   26MOL    C5914109   1.875   6.141   2.669 -1.2894  0.0520 -0.2498
   26MOL    C6014110   1.923   6.201   2.538  0.3195 -0.4260  0.8323
   26MOL    O6114111   2.036   6.133   2.477  0.0070  0.8164 -1.2004
   26MOL    C6214112   1.813   6.208   2.426 -0.4842 -1.2756 -0.1562
   26MOL    C6314113   1.700   6.305   2.457  0.0863 -0.1810  0.1483
   26MOL    C6414114   1.593   6.326   2.350 -0.2374 -0.4706 -0.7654
   26MOL    O6514115   1.499   6.415   2.402  0.2051  0.0895 -0.1528
   26MOL    C6614116   1.529   6.191   2.299 -0.2989 -0.4102  0.0298
   26MOL    C6714117   1.446   6.225   2.179  0.5044 -0.2844  1.1855
   26MOL    C6814118   1.638   6.079   2.280 -0.8167  0.1768  0.0315
   26MOL    C6914119   1.745   6.069   2.395 -0.5961  0.7768 -0.1104
   26MOL    H7014120   1.827   6.044   2.654  1.0406 -1.0285 -0.8822
   26MOL    H7114121   1.961   6.121   2.732 -1.1834  2.9134  0.5546
   26MOL    H7214122   1.968   6.299   2.558  0.5850 -0.3979  0.1417
   26MOL    H7314123   2.114   6.140   2.530 -0.8285 -1.8351  0.4702
   26MOL    H7414124   1.864   6.240   2.334 -2.1295  1.8373 -0.0672
   26MOL    H7514125   1.655   6.266   2.549 -0.2513 -1.6129 -0.6085
   26MOL    H7614126   1.738   6.403   2.484 -1.0292 -0.2319  2.0787
   26MOL    H7714127   1.635   6.377   2.264  0.3929  2.5277  1.2371
   26MOL    H7814128   1.540   6.500   2.412 -0.6945  0.3476  1.6370
   26MOL    H7914129   1.468   6.163   2.385  1.9226  0.3088  1.8818
   26MOL    H8014130   1.387   6.314   2.201 -1.9695 -2.0481  2.0533
   26MOL    H8114131   1.508   6.253   2.094 -0.8598  1.0112  0.5862
   26MOL    H8214132   1.696   6.119   2.197 -0.8497 -0.3554 -0.2520
   26MOL    H8314133   1.599   5.978   2.263 -0.9141  0.1950  0.1493
   26MOL    H8414134   1.831   6.007   2.370 -1.0576  0.6102 -1.3238
   26MOL    H8514135   1.698   6.023   2.482  0.0969 -0.5813 -0.4354
   26MOL    O8614136   1.368   6.113   2.140 -0.1106 -0.2406 -0.6120
   26MOL    C8714137   1.328   6.108   2.007  0.1103  0.1285  0.7997
   26MOL    C8814138   1.284   5.958   1.991  0.1077  0.8847 -0.3555
   26MOL    O8914139   1.182   5.937   2.085 -0.0900  0.4475  0.5339
   26MOL    C9014140   1.232   5.930   1.847  0.4347  0.6440 -1.1438
   26MOL    C9114141   1.090   5.988   1.813  0.0636 -0.0158 -0.3513
   26MOL    C9214142   1.038   5.960   1.663 -0.5087  0.6178 -0.2371
   26MOL    O9314143   0.901   5.990   1.656 -0.0624  0.5527  0.1590
   26MOL    C9414144   1.048   5.808   1.630  1.0672  0.1901  0.5987
   26MOL    C9514145   0.998   5.773   1.487  0.1667 -0.5968  0.6020
   26MOL    C9614146   1.198   5.770   1.655 -0.1886  0.3365 -0.2609
   26MOL    C9714147   1.230   5.783   1.804 -0.2133  0.2541 -0.1852
   26MOL    H9814148   1.415   6.114   1.942  0.7060 -2.6997  1.2733
   26MOL    H9914149   1.252   6.180   1.976  1.1939 -0.1262 -2.6035
   26MOL   H10014150   1.371   5.898   2.017 -1.6734 -1.6756 -0.0963
   26MOL   H10114151   1.210   5.989   2.159  1.7379 -0.2561  0.3723
   26MOL   H10214152   1.297   5.988   1.781  0.0405  1.3873 -0.8816
   26MOL   H10314153   1.032   5.952   1.898  0.8922  2.7019  1.4259
   26MOL   H10414154   1.085   6.093   1.844  1.0825  0.0152 -0.2686
   26MOL   H10514155   1.097   6.018   1.592  0.7807 -1.4569 -0.8954
   26MOL   H10614156   0.849   5.960   1.728 -1.0470 -1.8006 -1.4912
   26MOL   H10714157   0.984   5.750   1.697 -1.0405  0.9512 -0.6961
   26MOL   H10814158   0.895   5.806   1.474  0.3224  0.0623  0.9915
   26MOL   H10914159   1.057   5.837   1.422  0.4045 -0.1217  1.2742
   26MOL   H11014160   1.270   5.826   1.596 -1.2954 -0.9045 -2.8590
   26MOL   H11114161   1.210   5.666   1.625  2.0989  0.5351 -0.1990
   26MOL   H11214162   1.322   5.729   1.826 -0.8610 -1.4852 -1.6572
   26MOL   H11314163   1.157   5.719   1.853  0.3927 -0.8439 -0.7073
   26MOL   O11414164   1.016   5.631   1.463  0.1003  0.0829 -0.4302
   26MOL   C11514165   1.127   5.607   1.372  0.0092 -0.9226 -0.9864
   26MOL   C11614166   1.069   5.562   1.238  0.3940 -0.4467 -1.2203
   26MOL   O11714167   0.998   5.668   1.187 -0.3486 -0.2006  0.2375
   26MOL   C11814168   1.173   5.522   1.133  0.2669 -0.5366 -0.3987
   26MOL   C11914169   1.121   5.502   0.989 -0.2098 -0.2751  0.6443
   26MOL   C12014170   1.228   5.455   0.878  0.5064 -0.1928  0.4495
   26MOL   O12114171   1.154   5.400   0.772  0.1427 -0.4011  0.0659
   26MOL   C12214172   1.334   5.357   0.933  0.5192 -0.2251  0.2359
   26MOL   C12314173   1.446   5.340   0.837 -0.6219  0.5540 -0.3946
   26MOL   C12414174   1.386   5.404   1.072 -0.3834  0.3573  0.3814
   26MOL   C12514175   1.271   5.415   1.175  0.6388 -0.1514  0.1954
   26MOL   H12614176   1.179   5.523   1.418  2.2576  1.5993  1.2758
   26MOL   H12714177   1.202   5.685   1.360 -0.1899 -0.7787 -1.3319
   26MOL   H12814178   0.999   5.480   1.250 -1.9763  1.6493 -0.2790
   26MOL   H12914179   0.931   5.683   1.252 -2.4480 -0.9949 -1.6409
   26MOL   H13014180   1.234   5.611   1.117 -0.4840 -0.1402 -1.1152
   26MOL   H13114181   1.044   5.425   0.993  1.8434 -2.3298  1.7942
   26MOL   H13214182   1.080   5.594   0.947  1.5556  0.9711  1.5767
   26MOL   H13314183   1.285   5.541   0.842  2.5253 -0.9444  1.7097
   26MOL   H13414184   1.064   5.413   0.796  0.9359 -0.2492  3.2677
   26MOL   H13514185   1.277   5.266   0.950 -0.7817  1.0506  2.9498
   26MOL   H13614186   1.406   5.314   0.739 -1.3715 -1.7020  0.4685
   26MOL   H13714187   1.505   5.431   0.829 -1.7441  1.2106 -1.3088
   26MOL   H13814188   1.417   5.508   1.063  0.0606  0.1710 -0.2810
   26MOL   H13914189   1.464   5.337   1.109 -1.4885 -1.3939 -0.4049
   26MOL   H14014190   1.324   5.444   1.265 -0.3738  1.6211  0.2395
   26MOL   H14114191   1.212   5.323   1.182 -2.6297  1.4824 -3.6263
   26MOL   O14214192   1.529   5.224   0.868 -0.2859 -0.3830  0.1572
   26MOL   C14314193   1.656   5.234   0.802 -0.9224  0.6993 -0.3527
   26MOL   C14414194   1.703   5.093   0.772 -0.0215 -0.1498  0.9678
   26MOL   O14514195   1.751   5.031   0.889  0.0856 -0.4983  0.1639
   26MOL   C14614196   1.600   4.983   0.709  0.0134 -0.5096  0.0988
   26MOL   C14714197   1.549   5.037   0.579 -0.1649 -0.8362 -0.0650
   26MOL   C14814198   1.442   4.941   0.524  0.8166  0.3735 -0.1959
   26MOL   O14914199   1.404   5.018   0.404  0.1239 -0.0127 -0.2219
   26MOL   C15014200   1.322   4.915   0.607  0.2497  0.5879 -0.3011
   26MOL   C15114201   1.218   4.826   0.544  0.8610 -0.0904 -0.4850
   26MOL   C15214202   1.378   4.850   0.746 -0.4559  0.8002 -0.4924
   26MOL   C15314203   1.482   4.944   0.805  0.5288 -0.3471 -0.4737
   26MOL   H15414204   1.727   5.294   0.859 -0.6641 -1.1471  1.3434
   26MOL   H15514205   1.640   5.287   0.708 -2.1031 -1.9183 -1.6806
   26MOL   H15614206   1.790   5.100   0.707  0.6296 -0.3922  1.8054
   26MOL   H15714207   1.677   5.017   0.945 -0.0584 -0.6184 -0.0563
   26MOL   H15814208   1.653   4.894   0.677 -3.1156 -2.2992 -0.2618
   26MOL   H15914209   1.501   5.132   0.603  1.2958 -0.4920  1.5577
   26MOL   H16014210   1.636   5.061   0.519 -0.8441  1.5847 -0.1260
   26MOL   H16114211   1.482   4.845   0.493 -1.2145 -1.1053  1.5801
   26MOL   H16214212   1.354   5.089   0.442  1.1268  0.0616  1.0024
   26MOL   H16314213   1.277   5.013   0.620  2.0883  1.6447 -1.5414
   26MOL   H16414214   1.185   4.880   0.455 -0.2126 -0.1013 -0.1032
   26MOL   H16514215   1.258   4.731   0.510 -0.5893 -1.8877  2.6196
   26MOL   H16614216   1.424   4.756   0.717 -0.0417  1.3986 -1.8447
   26MOL   H16714217   1.308   4.826   0.826  0.7887 -0.4831  0.2276
   26MOL   H16814218   1.518   4.894   0.895 -2.2221 -0.8589  0.3874
   26MOL   H16914219   1.423   5.030   0.835  0.4991 -0.1435 -1.1058
   26MOL   O17014220   1.110   4.802   0.633 -0.0914 -0.3784 -0.6624
   26MOL   C17114221   0.994   4.767   0.568 -0.0472 -0.2269 -0.2607
   26MOL   C17214222   0.880   4.768   0.670  0.0590  0.4453 -0.5784
   26MOL   O17314223   0.906   4.650   0.743  0.7294  0.0996 -0.0930
   26MOL   C17414224   0.873   4.896   0.753 -0.9717  0.0047  0.1944
   26MOL   C17514225   0.776   4.881   0.881 -0.4736  0.0328  0.8334
   26MOL   C17614226   0.784   5.014   0.962  0.4376  0.2310 -0.0318
   26MOL   O17714227   0.683   4.999   1.066 -0.2850 -0.3450  0.2396
   26MOL   C17814228   0.737   5.128   0.876 -0.3407 -0.5886  0.3398
   26MOL   C17914229   0.719   5.269   0.941  0.4371  1.1337  0.2745
   26MOL   C18014230   0.831   5.141   0.749  0.2154  0.4300  0.3083
   26MOL   C18114231   0.842   5.019   0.663 -0.6888 -0.1146  0.5884
   26MOL   H18214232   0.994   4.669   0.519 -3.5655 -0.2037 -0.4316
   26MOL   H18314233   0.974   4.840   0.490 -0.3345 -0.8170 -0.7524
   26MOL   H18414234   0.781   4.760   0.624  0.0250  2.3909 -0.8955
   26MOL   H18514235   0.962   4.673   0.815 -2.1030  1.1420  1.8614
   26MOL   H18614236   0.968   4.909   0.804 -1.5137 -1.7633  1.7114
   26MOL   H18714237   0.672   4.860   0.854  0.0532  0.0693 -1.3039
   26MOL   H18814238   0.811   4.802   0.947 -1.5908 -0.8291  0.4224
   26MOL   H18914239   0.882   5.026   1.008  0.8235 -1.0632 -0.4992
   26MOL   H19014240   0.637   5.082   1.066 -0.5865 -0.4929  2.7459
   26MOL   H19114241   0.635   5.114   0.838  0.1734 -1.5558 -0.7105
   26MOL   H19214242   0.816   5.292   0.983  0.0488  1.1095  1.1849
   26MOL   H19314243   0.681   5.337   0.864  0.6759  1.8905  0.8329
   26MOL   H19414244   0.930   5.165   0.789 -0.0405  1.4669  0.3384
   26MOL   H19514245   0.804   5.220   0.679  1.7743  0.1138 -0.6730
   26MOL   H19614246   0.926   5.030   0.594 -0.9784  0.8255  0.3904
   26MOL   H19714247   0.746   5.005   0.613 -1.8225  0.7506  2.4846
   26MOL   O19814248   0.625   5.258   1.046  0.2634  0.2363  0.1909
   26MOL   C19914249   0.584   5.385   1.101 -0.0948  0.8113 -0.1875
   26MOL   C20014250   0.676   5.443   1.211 -0.0232 -0.6479  0.4469
   26MOL   O20114251   0.678   5.585   1.205  0.6896 -0.1937 -0.1025
   26MOL   C20214252   0.639   5.399   1.354  0.0548 -0.6522  0.0968
   26MOL   C20314253   0.742   5.464   1.452 -0.0426  0.0523 -0.4225
   26MOL   C20414254   0.745   5.408   1.596 -0.1684  0.1139 -0.0712
   26MOL   O20514255   0.869   5.454   1.650  0.0199  0.0904  0.3694
   26MOL   C20614256   0.754   5.258   1.598  0.7987 -0.3831  0.4646
   26MOL   C20714257   0.741   5.210   1.739 -0.8273  0.2790  1.1940
   26MOL   C20814258   0.639   5.193   1.517 -0.0942  0.3475 -0.6376
   26MOL   C20914259   0.646   5.245   1.371  0.1079 -0.3687 -0.7209
   26MOL   H21014260   0.483   5.376   1.141 -0.2195  0.5626 -0.5605
   26MOL   H21114261   0.589   5.452   1.016 -0.0123  2.0961  0.8090
   26MOL   H21214262   0.779   5.419   1.184  0.0078 -2.0733  1.7292
   26MOL   H21314263   0.590   5.611   1.227  0.0684 -0.6443 -1.9683
   26MOL   H21414264   0.538   5.436   1.369 -0.7986 -1.2330 -3.7219
   26MOL   H21514265   0.843   5.458   1.411  1.4103  2.1824  2.7183
   26MOL   H21614266   0.723   5.571   1.452  1.0255  0.2423 -0.2687
   26MOL   H21714267   0.668   5.455   1.657 -0.1219 -1.6256  1.3500
   26MOL   H21814268   0.917   5.477   1.572  1.3880 -0.9051  0.8996
   26MOL   H21914269   0.848   5.216   1.560  1.5124  0.3799  1.3441
   26MOL   H22014270   0.813   5.254   1.808 -2.0708 -3.4172  5.0840
   26MOL   H22114271   0.643   5.231   1.781 -0.6213 -0.1470  1.9091
   26MOL   H22214272   0.545   5.211   1.568  0.0678  1.2558 -0.6423
   26MOL   H22314273   0.653   5.085   1.528 -1.3070  0.3630  1.2837
   26MOL   H22414274   0.565   5.206   1.310  0.1459 -0.5477 -0.6577
   26MOL   H22514275   0.737   5.214   1.319 -0.6353  0.0625 -2.3138
   26MOL   O22614276   0.755   5.065   1.752  0.7199 -0.5148 -0.9005
   26MOL   C22714277   0.764   5.035   1.895  0.4080 -0.6638  0.6147
   26MOL   C22814278   0.744   4.892   1.923 -0.0104  0.0316 -0.3628
   26MOL   O22914279   0.613   4.857   1.935  0.5578 -0.2235  0.3219
   26MOL   C23014280   0.825   4.786   1.833  0.8451 -0.2879  0.4457
   26MOL   C23114281   0.785   4.783   1.684  0.0086  0.0164 -0.4780
   26MOL   C23214282   0.866   4.681   1.602  0.3045 -0.3821 -0.0799
   26MOL   O23314283   0.831   4.688   1.468  0.5101  0.9978  0.3594
   26MOL   C23414284   0.845   4.543   1.651 -0.3398  0.4140  0.4118
   26MOL   C23514285   0.926   4.442   1.569  0.1359  0.2082 -0.0679
   26MOL   C23614286   0.883   4.539   1.802  0.1329  0.2959 -0.1852
   26MOL   C23714287   0.803   4.641   1.883 -0.0877  0.5667 -0.0491
   26MOL   H23814288   0.695   5.101   1.947  0.8043  1.3644 -1.3434
   26MOL   H23914289   0.860   5.064   1.936  0.5119 -0.7250  0.4154
   26MOL   H24014290   0.784   4.880   2.024  0.8463 -1.9415 -0.9243
   26MOL   H24114291   0.562   4.897   1.865 -0.7555  0.2903  1.5461
   26MOL   H24214292   0.927   4.824   1.836  0.8440 -0.0209 -1.7247
   26MOL   H24314293   0.678   4.770   1.668 -0.0566  0.2558 -0.2383
   26MOL   H24414294   0.808   4.877   1.632 -1.1122 -0.2511 -1.4778
   26MOL   H24514295   0.972   4.704   1.617  0.1854 -0.5316  1.0844
   26MOL   H24614296   0.738   4.680   1.453  0.4321  1.7432  0.4266
   26MOL   H24714297   0.741   4.510   1.640 -0.0127 -0.2439 -0.7606
   26MOL   H24814298   0.888   4.430   1.467  1.1238 -0.9772 -0.3126
   26MOL   H24914299   1.032   4.464   1.558  0.2524 -1.5808 -3.3858
   26MOL   H25014300   0.989   4.562   1.804  0.1261  0.4394 -1.2746
   26MOL   H25114301   0.877   4.437   1.839  1.4291  0.0694 -0.5777
   26MOL   H25214302   0.835   4.630   1.987 -2.0122 -0.1395  0.4813
   26MOL   H25314303   0.696   4.621   1.886  0.0986 -0.3407  2.0979
   26MOL   O25414304   0.896   4.308   1.605  0.4787 -0.5468  0.3554
   26MOL   C25514305   0.996   4.232   1.672 -0.3413  0.0101  0.1052
   26MOL   C25614306   0.946   4.082   1.684  0.0200  0.0051 -0.2332
   26MOL   O25714307   0.828   4.090   1.763  0.0158 -0.0256  0.0707
   26MOL   C25814308   0.924   3.989   1.557  0.4579 -0.0037  0.2464
   26MOL   C25914309   0.899   3.851   1.617 -0.6087  0.4491  0.4443
   26MOL   C26014310   0.878   3.748   1.503 -0.0712  0.0007  0.3090
   26MOL   O26114311   0.867   3.619   1.566  0.0980  0.0868 -0.9225
   26MOL   C26214312   0.999   3.738   1.405 -0.0159  0.2547 -0.0329
   26MOL   C26314313   0.971   3.648   1.282  0.1286 -0.4235  0.8549
   26MOL   C26414314   1.021   3.883   1.346  0.4896 -0.2483  0.2417
   26MOL   C26514315   1.039   3.986   1.455 -0.7591  0.2559  0.0317
   26MOL   H26614316   1.017   4.282   1.767  0.0073  2.9282 -1.4408
   26MOL   H26714317   1.084   4.231   1.607 -0.8696 -0.6489 -0.6030
   26MOL   H26814318   1.002   4.016   1.751  0.1602  1.7519  1.4182
   26MOL   H26914319   0.791   4.177   1.757  0.3976  0.0967 -0.5543
   26MOL   H27014320   0.832   4.014   1.504  0.5607  1.3448  0.6917
   26MOL   H27114321   0.987   3.820   1.672 -0.2175  1.2164  0.2445
   26MOL   H27214322   0.816   3.846   1.688 -1.3770 -0.6348 -0.4928
   26MOL   H27314323   0.785   3.768   1.451 -0.4469 -0.2818  0.8651
   26MOL   H27414324   0.779   3.586   1.561  0.2393 -0.2071 -1.6964
   26MOL   H27514325   1.084   3.705   1.464  0.7760  0.6459 -0.9543
   26MOL   H27614326   0.969   3.543   1.309  0.5264 -0.3164  1.2968
   26MOL   H27714327   0.875   3.677   1.238  0.2947 -1.0300  0.0888
   26MOL   H27814328   0.954   3.924   1.271 -1.5485  2.2934  3.2882
   26MOL   H27914329   1.119   3.886   1.298  0.3303  0.2320 -0.0612
   26MOL   H28014330   1.058   4.087   1.419  1.2109  0.1758  0.7854
   26MOL   H28114331   1.127   3.966   1.516  0.9125  1.3526 -1.9536
   26MOL   O28214332   1.081   3.676   1.202  0.2031  0.3401 -0.1312
   26MOL   C28314333   1.193   3.589   1.215 -0.8165 -0.1562 -0.5349
   26MOL   C28414334   1.274   3.583   1.085 -0.1598  0.7733 -0.0643
   26MOL   O28514335   1.397   3.539   1.125 -1.0294 -0.7114 -0.1537
   26MOL   C28614336   1.207   3.484   0.990  0.2688 -0.9448 -0.0002
   26MOL   C28714337   1.302   3.418   0.890  0.6493 -0.2150 -0.6773
   26MOL   C28814338   1.220   3.331   0.794 -0.5953  0.0291 -0.1571
   26MOL   O28914339   1.311   3.278   0.708  0.1317 -0.4069  0.2957
   26MOL   C29014340   1.121   3.407   0.722 -0.6830  0.3869 -0.3586
   26MOL   C29114341   1.041   3.317   0.622 -0.2612 -0.4241 -0.1003
   26MOL   C29214342   1.024   3.452   0.826  0.2098 -0.2785 -0.3889
   26MOL   C29314343   1.094   3.553   0.916  0.7632  0.1705  0.3749
   26MOL   H29414344   1.160   3.492   1.251  0.3080 -0.5910 -0.6660
   26MOL   H29514345   1.250   3.645   1.289 -1.5245  2.2262 -1.7157
   26MOL   H29614346   1.275   3.677   1.030  1.6279  1.4697  1.1359
   26MOL   H29714347   1.460   3.600   1.088 -3.1928  0.4943 -2.0139
   26MOL   H29814348   1.148   3.408   1.042 -0.5142 -0.8509 -0.7524
   26MOL   H29914349   1.359   3.499   0.846 -0.1000  0.3102 -0.6982
   26MOL   H30014350   1.379   3.366   0.947  0.4229  1.0654  0.8539
   26MOL   H30114351   1.176   3.245   0.843  0.9324 -0.2390  0.7799
   26MOL   H30214352   1.259   3.214   0.661  1.0025 -2.5778  2.2004
   26MOL   H30314353   1.172   3.485   0.665 -2.2299  0.5320 -1.5862
   26MOL   H30414354   1.089   3.264   0.539  0.5477  0.7451 -0.3921
   26MOL   H30514355   0.992   3.234   0.673  1.5411 -1.5805 -0.1714
   26MOL   H30614356   0.985   3.363   0.876 -0.1325 -0.1940 -0.4984
   26MOL   H30714357   0.933   3.498   0.787  0.6757  2.3682  1.5446
   26MOL   H30814358   1.023   3.596   0.986 -0.4852 -1.8631  0.4041
   26MOL   H30914359   1.123   3.645   0.865 -0.0125  0.7621  0.9968
   26MOL   O31014360   0.946   3.403   0.565  0.3856  0.4072  0.2410
   26MOL   C31114361   0.830   3.331   0.523  1.0120 -0.1298 -0.7081
   26MOL   C31214362   0.740   3.431   0.451  0.0450  0.2112  0.3161
   26MOL   O31314363   0.718   3.531   0.540 -0.4996  0.0238 -0.5243
   26MOL   C31414364   0.819   3.491   0.325  0.9826 -0.5693 -0.5271
   26MOL   C31514365   0.730   3.597   0.261 -0.4110 -1.0114  0.0158
   26MOL   C31614366   0.803   3.660   0.143  0.0118  0.1419 -0.1524
   26MOL   O31714367   0.712   3.751   0.091 -0.2354  0.2644 -0.5587
   26MOL   C31814368   0.859   3.551   0.037  0.4377  0.1581 -0.4801
   26MOL   C31914369   0.942   3.615   7.558 -0.0683  0.2529  0.3046
   26MOL   C32014370   0.940   3.449   0.114 -0.6101  0.6790  0.2381
   26MOL   C32114371   0.873   3.381   0.234 -0.1092 -1.3251  0.6270
   26MOL   H32214372   0.777   3.282   0.604 -0.1633  0.7059 -0.9682
   26MOL   H32314373   0.867   3.247   0.463  1.5787  0.4788 -1.2205
   26MOL   H32414374   0.647   3.378   0.430 -0.4572  0.8170  1.0099
   26MOL   H32514375   0.798   3.556   0.583 -0.6262  0.3554 -0.4808
   26MOL   H32614376   0.907   3.539   0.367  1.4037 -1.4847 -0.3499
   26MOL   H32714377   0.637   3.554   0.223 -1.2580 -0.7226  1.7157
   26MOL   H32814378   0.696   3.678   0.326 -1.4461 -1.5554  0.1651
   26MOL   H32914379   0.889   3.717   0.178 -1.1223  1.1437  1.0476
   26MOL   H33014380   0.734   3.764   7.629 -1.4649 -0.3028 -0.9522
   26MOL   H33114381   0.776   3.502   7.615  1.1952 -1.0332 -0.5867
   26MOL   H33214382   1.033   3.662   7.596 -0.4796  0.4708  1.0273
   26MOL   H33314383   0.961   3.544   7.477  0.5866  0.8313 -0.0533
   26MOL   H33414384   1.030   3.496   0.153 -0.7521 -0.4778  2.0398
   26MOL   H33514385   0.964   3.374   0.039  0.9409  0.9264  0.4762
   26MOL   H33614386   0.950   3.313   0.272 -0.5194 -0.6752  2.6430
   26MOL   H33714387   0.789   3.322   0.196  0.7476 -2.2197  0.0768
   26MOL   O33814388   0.868   3.708   7.482  0.2693  0.1411  0.5424
   26MOL   C33914389   0.947   3.799   7.408  0.3214 -0.0079 -0.2428
   26MOL   C34014390   0.999   3.922   7.485  0.7145  0.5899 -0.2353
   26MOL   O34114391   1.132   3.885   7.501 -0.5249 -0.6768  0.4106
   26MOL   C34214392   0.995   4.060   7.415 -0.1931 -0.6404  0.4417
   26MOL   C34314393   1.076   4.161   7.492  0.3747  0.2199  0.2960
   26MOL   C34414394   1.067   4.304   7.437  0.5929 -0.3050 -0.1590
   26MOL   O34514395   1.145   4.385   7.527  0.2676  0.6362  0.4035
   26MOL   C34614396   0.915   4.340   7.448 -0.0586 -0.1670  0.2543
   26MOL   C34714397   0.874   4.489   7.439  0.1364 -0.0538  0.3219
   26MOL   C34814398   0.839   4.250   7.350 -0.1197 -0.0394 -0.1415
   26MOL   C34914399   0.847   4.107   7.390  0.6036  0.3483 -0.2230
   26MOL   H35014400   0.880   3.837   7.331 -0.6266  0.0389  0.5956
   26MOL   H35114401   1.028   3.762   7.345 -0.7786 -4.0201  0.5552
   26MOL   H35214402   0.960   3.927   7.586  1.6801 -1.2973  0.2384
   26MOL   H35314403   1.173   3.886   7.416 -2.1078  0.8173 -0.3568
   26MOL   H35414404   1.038   4.051   7.316 -2.1304  0.0401 -0.4773
   26MOL   H35514405   1.048   4.163   7.598 -2.2521  0.0933 -0.3507
   26MOL   H35614406   1.182   4.136   7.497  0.9863  2.1603 -2.1858
   26MOL   H35714407   1.103   4.289   7.336  0.7767 -0.3381 -0.0880
   26MOL   H35814408   1.231   4.346   7.538  0.3260  1.2024  2.1716
   26MOL   H35914409   0.877   4.312   7.546  0.3153  0.7966  0.6817
   26MOL   H36014410   0.785   4.495   7.502 -2.2715 -1.0728 -2.8301
   26MOL   H36114411   0.957   4.546   7.480  0.7258 -0.5267 -0.2058
   26MOL   H36214412   0.874   4.274   7.249  2.2560 -1.2847  0.3785
   26MOL   H36314413   0.733   4.275   7.349  0.4505  2.6883  1.5675
   26MOL   H36414414   0.802   4.038   7.318  1.0000 -1.0459  0.8426
   26MOL   H36514415   0.791   4.098   7.483 -0.5313  2.0878 -0.7140
   26MOL   O36614416   0.846   4.539   7.313  0.2428 -0.1940 -0.1269
   26MOL   C36714417   0.843   4.682   7.310 -0.0009 -0.0243  0.1623
   26MOL   C36814418   0.843   4.725   7.160  0.0285  0.0230  0.1585
   26MOL   O36914419   0.730   4.660   7.105 -0.3967 -0.2283 -0.3532
   26MOL   C37014420   0.831   4.873   7.133  0.1575  0.0222 -0.9593
   26MOL   C37114421   0.798   4.918   6.984  0.2090 -0.2933  0.1047
   26MOL   C37214422   0.791   5.074   6.974 -0.3899 -0.1100  0.2374
   26MOL   O37314423   0.772   5.100   6.836 -0.0998  0.1404 -0.2339
   26MOL   C37414424   0.927   5.146   7.019  0.0624 -0.9997 -0.1597
   26MOL   C37514425   0.921   5.305   7.009  0.8215  0.3005  0.3982
   26MOL   C37614426   0.961   5.102   7.162 -0.3112 -0.0838 -0.6532
   26MOL   C37714427   0.966   4.945   7.166 -0.3695  0.1556 -0.5232
   26MOL   H37814428   0.927   4.726   7.363 -0.0731  0.1846  0.1026
   26MOL   H37914429   0.750   4.703   7.363 -0.4903 -1.7357  0.0172
   26MOL   H38014430   0.933   4.686   7.112 -0.3269  2.0443 -2.2408
   26MOL   H38114431   0.743   4.574   7.142 -2.5909  0.2505  1.5991
   26MOL   H38214432   0.757   4.916   7.201  0.0741 -1.2945 -0.2032
   26MOL   H38314433   0.887   4.891   6.927  1.2582  2.4521  0.3717
   26MOL   H38414434   0.707   4.869   6.950  0.5996 -0.1556 -1.1713
   26MOL   H38514435   0.708   5.118   7.030  1.5255  1.8523  1.5802
   26MOL   H38614436   0.680   5.088   6.815 -0.2711  1.2144 -0.1571
   26MOL   H38714437   1.009   5.110   6.958  2.0387  0.0872  1.8068
   26MOL   H38814438   1.020   5.349   7.013  0.4159  1.0774  2.8392
   26MOL   H38914439   0.905   5.328   6.904 -2.5531 -1.3134  0.4669
   26MOL   H39014440   0.877   5.135   7.224 -1.0883  0.7735 -2.1528
   26MOL   H39114441   1.059   5.142   7.186  0.2642 -0.8474 -1.7213
   26MOL   H39214442   1.001   4.922   7.267 -0.9347 -0.7743 -0.5339
   26MOL   H39314443   1.038   4.909   7.093  1.5780  2.5722  0.1479
   26MOL   O39414444   0.838   5.371   7.100 -0.3622  0.0170  0.7125
   26MOL   C39514445   0.828   5.507   7.082  0.2649  0.5774  0.1740
   26MOL   C39614446   0.713   5.554   7.166 -0.3457  1.0453 -0.1384
   26MOL   O39714447   0.730   5.691   7.190 -0.3579  0.8442 -0.1800
   26MOL   C39814448   0.580   5.509   7.124 -0.6330  0.5118 -0.2667
   26MOL   C39914449   0.470   5.610   7.167  0.3877 -0.0090  0.1072
   26MOL   C40014450   0.329   5.566   7.120  0.6333  0.3352  0.1016
   26MOL   O40114451   0.234   5.652   7.182 -0.0781  0.5128  0.0016
   26MOL   C40214452   0.285   5.413   7.135 -0.2680 -0.5056 -0.4921
   26MOL   C40314453   0.161   5.370   7.052 -0.2551 -0.2487 -0.0063
   26MOL   C40414454   0.411   5.323   7.103  0.0084  0.3609  0.0687
   26MOL   C40514455   0.540   5.362   7.174  0.5440 -0.3493  0.3789
   26MOL   H40614456   0.814   5.539   6.979  2.7500  0.5420 -0.1917
   26MOL   H40714457   0.913   5.564   7.119  0.7236  0.8697 -1.3121
   26MOL   H40814458   0.728   5.502   7.261 -0.0659 -0.6438 -1.0813
   26MOL   H40914459   0.765   5.703   7.277 -0.8300 -1.0855  0.3015
   26MOL   H41014460   0.586   5.503   7.015 -1.6268  0.7420 -0.3350
   26MOL   H41114461   0.461   5.624   7.275 -0.7293 -1.0338  0.1652
   26MOL   H41214462   0.493   5.707   7.125  0.0079  0.7767  1.6917
   26MOL   H41314463   0.341   5.596   7.016  2.4694  0.7305  0.4177
   26MOL   H41414464   0.215   5.718   7.116 -0.1633  0.4134 -0.0732
   26MOL   H41514465   0.261   5.400   7.240 -0.1644  0.0652 -0.3954
   26MOL   H41614466   0.165   5.407   6.950  2.5447  0.0693  0.1811
   26MOL   H41714467   0.178   5.263   7.058 -0.1561 -0.1504  1.7309
   26MOL   H41814468   0.430   5.328   6.996 -3.1499  0.6889 -0.5407
   26MOL   H41914469   0.394   5.218   7.127 -3.0031  0.2866 -2.0671
   26MOL   H42014470   0.624   5.293   7.175  1.9081  1.2666  2.5156
   26MOL   H42114471   0.532   5.371   7.283  0.4063 -2.4704  0.5530
   26MOL   O42214472   0.030   5.393   7.118 -0.0688 -0.0860  0.7157
   26MOL   C42314473   7.598   5.518   7.105  0.3319 -0.2321  0.8003
   26MOL   C42414474   7.526   5.565   7.230  0.2856  0.4484 -0.1088
   26MOL   O42514475   7.623   5.590   7.328  0.1329  0.2408  0.5311
   26MOL   C42614476   7.434   5.687   7.205 -0.1722  1.4106  0.2030
   26MOL   C42714477   7.501   5.824   7.167 -0.1051  0.3765 -0.1607
   26MOL   C42814478   7.410   5.951   7.150  0.2039  0.1761  0.4252
   26MOL   O42914479   7.505   6.059   7.153  0.1416 -0.1260 -0.0750
   26MOL   C43014480   7.303   5.967   7.265  0.3213 -0.0155  0.5111
   26MOL   C43114481   7.195   6.069   7.224  0.3352 -0.4986  0.1623
   26MOL   C43214482   7.247   5.826   7.304  0.7875  0.6083  0.0328
   26MOL   C43314483   7.342   5.709   7.321 -0.0130  0.1949  0.3144
   26MOL   H43414484   7.530   5.496   7.023 -0.5076 -1.0472  1.7026
   26MOL   H43514485   0.036   5.596   7.070 -0.5811  1.1121  1.9441
   26MOL   H43614486   7.461   5.488   7.271  0.5080  0.1679 -0.2817
   26MOL   H43714487   0.071   5.618   7.283 -0.7863  1.6343 -0.2270
   26MOL   H43814488   7.369   5.661   7.121 -0.3470 -0.2436  0.8352
   26MOL   H43914489   7.574   5.847   7.244  0.6230 -1.4404 -0.2695
   26MOL   H44014490   7.555   5.809   7.073 -2.4220 -0.7290 -1.3624
   26MOL   H44114491   7.351   5.959   7.059 -1.8922  3.9120  1.9963
   26MOL   H44214492   7.589   6.041   7.114  1.2248  0.3723  1.9551
   26MOL   H44314493   7.364   6.003   7.348 -1.4023 -0.3457  1.9389
   26MOL   H44414494   7.247   6.164   7.210 -1.1034  0.4583  1.1149
   26MOL   H44514495   7.134   6.047   7.136 -1.2774  1.4682  0.7277
   26MOL   H44614496   7.166   5.798   7.236 -0.0779  0.1511  1.2443
   26MOL   H44714497   7.193   5.830   7.398  1.7616  0.8464  0.5858
   26MOL   H44814498   7.285   5.618   7.340  0.0135 -0.1564 -1.2090
   26MOL   H44914499   7.405   5.724   7.408  1.8192  0.6284 -1.0599
   26MOL   O45014500   7.107   6.075   7.334 -0.2201  0.1360  0.4770
   26MOL   C45114501   7.151   6.146   7.451 -0.0762 -0.1803 -0.1347
   26MOL   C45214502   7.018   6.182   7.532  0.2729  0.2607 -1.0630
   26MOL   O45314503   7.069   6.206   0.037 -0.1505  0.1222  0.7233
   26MOL   C45414504   6.918   6.290   7.482 -0.7803 -0.4682  0.0794
   26MOL   C45514505   6.815   6.329   7.589 -0.0857  0.3691  0.2006
   26MOL   C45614506   6.712   6.437   7.553 -0.0366  0.0563 -0.3954
   26MOL   O45714507   6.626   6.440   0.032 -0.4618 -0.1011  0.0381
   26MOL   C45814508   6.640   6.405   7.421 -0.0315  0.2756  0.2324
   26MOL   C45914509   6.556   6.533   7.386 -0.5631 -0.0093 -0.1588
   26MOL   C46014510   6.738   6.366   7.305 -0.7764 -1.3416 -1.3833
   26MOL   C46114511   6.841   6.265   7.352  1.2323 -0.1395 -0.3827
   26MOL   H46214512   7.222   6.226   7.430 -1.2105 -0.0781 -3.8635
   26MOL   H46314513   7.213   6.074   7.506 -0.6387 -1.4296 -1.1206
   26MOL   H46414514   6.951   6.096   7.536  0.7106 -0.0259  1.4107
   26MOL   H46514515   7.092   6.118   0.064  0.6766 -0.1630 -0.8539
   26MOL   H46614516   6.986   6.371   7.456 -1.5236  0.1301 -0.0336
   26MOL   H46714517   6.768   6.234   7.613 -1.5095  0.3601 -2.3744
   26MOL   H46814518   6.856   6.352   0.057 -1.8048  1.2419  0.7278
   26MOL   H46914519   6.760   6.535   7.554 -1.7399  0.9287  1.6570
   26MOL   H47014520   6.673   6.384   0.092  1.1906  1.6796  0.4584
   26MOL   H47114521   6.575   6.320   7.444 -0.1953  0.1959 -0.5219
   26MOL   H47214522   6.475   6.551   7.457 -1.2807 -2.6226 -0.2941
   26MOL   H47314523   6.616   6.624   7.383 -1.0472  0.3342  0.4210
   26MOL   H47414524   6.787   6.455   7.266 -0.0536  0.2560  2.9149
   26MOL   H47514525   6.686   6.335   7.215 -1.3273  0.7071 -1.7943
   26MOL   H47614526   6.905   6.248   7.265 -1.9232 -0.8734 -2.6170
   26MOL   H47714527   6.790   6.169   7.363 -1.3339  1.0860 -1.2090
   26MOL   O47814528   6.483   6.508   7.270 -0.3414 -0.1622 -0.1761
   26MOL   C47914529   6.442   6.626   7.203  0.1255  0.6386  0.0241
   26MOL   C48014530   6.547   6.671   7.099  0.5823 -0.1090 -0.3320
   26MOL   O48114531   6.651   6.736   7.173  0.4485  0.2911 -0.4240
   26MOL   C48214532   6.599   6.565   6.995 -0.3230  0.3904  0.6517
   26MOL   C48314533   6.693   6.643   6.890  0.5527  0.2731 -0.4081
   26MOL   C48414534   6.716   6.565   6.762  0.1240 -0.4103 -0.1259
   26MOL   O48514535   6.808   6.629   6.669  0.3042  0.5550 -0.4135
   26MOL   C48614536   6.579   6.528   6.695 -0.0639 -0.0794 -0.3738
   26MOL   C48714537   6.596   6.448   6.562 -0.0976 -0.8228 -0.1918
   26MOL   C48814538   6.501   6.434   6.792 -0.2844  0.0891 -0.7675
   26MOL   C48914539   6.472   6.499   6.925  0.5472 -0.2437 -0.4658
   26MOL   H49014540   6.429   6.707   7.274 -1.5916 -0.2750  0.7740
   26MOL   H49114541   6.345   6.614   7.155  0.9978 -0.3652 -1.5247
   26MOL   H49214542   6.483   6.737   7.042  1.4250 -0.4497 -1.7018
   26MOL   H49314543   6.609   6.796   7.233  0.1139 -1.3063  0.9787
   26MOL   H49414544   6.657   6.486   7.042 -1.0780 -0.2643  0.4936
   26MOL   H49514545   6.658   6.746   6.882  0.5387  0.3794  0.9135
   26MOL   H49614546   6.791   6.659   6.934  1.0711  0.6971 -1.7029
   26MOL   H49714547   6.769   6.472   6.783 -1.1112 -0.8593  1.1031
   26MOL   H49814548   6.768   6.713   6.651 -0.2245  0.4247  0.1592
   26MOL   H49914549   6.513   6.614   6.685 -0.5444 -0.0614  2.4616
   26MOL   H50014550   6.674   6.497   6.504  1.5170 -0.1573  2.4703
   26MOL   H50114551   6.621   6.343   6.577  0.2681 -0.4784  1.7167
   26MOL   H50214552   6.565   6.347   6.804 -1.0434 -1.0626 -4.4352
   26MOL   H50314553   6.411   6.398   6.742  0.1513 -2.3461  0.1460
   26MOL   H50414554   6.442   6.418   6.991 -0.0041  1.2882  1.2156
   26MOL   H50514555   6.389   6.570   6.920  0.6566 -0.0102  0.9740
   26MOL   O50614556   6.466   6.472   6.492  0.2304 -0.2745  0.2988
   26MOL   C50714557   6.470   6.462   6.353  0.5318 -0.2626  0.3027
   26MOL   C50814558   6.326   6.479   6.299  0.0041  0.2283 -0.1894
   26MOL   O50914559   6.292   6.599   6.360  0.1456 -0.1969 -0.6060
   26MOL   C51014560   6.324   6.472   6.147  0.3605  0.4294  0.0355
   26MOL   C51114561   6.384   6.596   6.078 -0.2119  0.5639 -0.3600
   26MOL   C51214562   6.371   6.578   5.927  0.4213  0.0294  0.4668
   26MOL   O51314563   6.415   6.697   5.865 -0.4575 -0.0694 -0.0123
   26MOL   C51414564   6.227   6.553   5.875  0.1861 -0.2990 -0.3716
   26MOL   C51514565   6.229   6.515   5.726  0.1684 -0.7758 -0.3384
   26MOL   C51614566   6.166   6.436   5.951 -0.4573 -0.4647 -0.4998
   26MOL   C51714567   6.180   6.442   6.103 -1.2459 -0.2737 -0.2291
   26MOL   H51814568   6.502   6.359   6.337 -2.6222 -0.9531 -2.0230
   26MOL   H51914569   6.535   6.543   6.320 -2.5596  1.5499 -1.5983
   26MOL   H52014570   6.264   6.397   6.336 -0.4261  0.4071 -0.5100
   26MOL   H52114571   6.330   6.586   6.446 -1.3421  4.0600  0.8425
   26MOL   H52214572   6.394   6.393   6.119 -2.1464 -1.8756  0.0427
   26MOL   H52314573   6.338   6.688   6.114  1.2647  0.3657  2.1407
   26MOL   H52414574   6.491   6.603   6.099  0.2545  0.8152 -2.6453
   26MOL   H52514575   6.431   6.492   5.897 -1.4591 -1.6210  1.2543
   26MOL   H52614576   6.358   6.708   5.790  0.1171  1.9049 -0.1826
   26MOL   H52714577   6.171   6.643   5.899 -0.4566 -0.6302 -0.6253
   26MOL   H52814578   6.275   6.593   5.666 -3.5991  2.7761  1.2093
   26MOL   H52914579   6.292   6.428   5.708  1.1186 -0.7141  2.4851
   26MOL   H53014580   6.224   6.351   5.916 -0.0562  0.1581 -1.3873
   26MOL   H53114581   6.061   6.426   5.923 -0.6355 -1.9429  0.6529
   26MOL   H53214582   6.158   6.341   6.137  1.4055 -0.8357 -0.0888
   26MOL   H53314583   6.110   6.507   6.156 -0.0251  0.1069  0.9335
   26MOL   O53414584   6.095   6.500   5.672 -0.1973 -0.0432 -0.3963
   26MOL   C53514585   6.097   6.439   5.540  0.3940 -0.4329 -0.3168
   26MOL   C53614586   5.963   6.466   5.486  0.6013 -0.2586  0.0770
   26MOL   O53714587   5.952   6.602   5.442 -0.3240  0.3971  0.2448
   26MOL   C53814588   5.919   6.374   5.370  0.3567  0.1971 -0.3112
   26MOL   C53914589   6.011   6.375   5.249  0.5003 -0.5088  0.9664
   26MOL   C54014590   5.964   6.263   5.146 -0.0557  0.3435  0.0992
   26MOL   O54114591   6.064   6.253   5.046  0.0879 -0.8122 -0.0159
   26MOL   C54214592   5.818   6.295   5.095 -0.0456 -0.4583 -0.2713
   26MOL   C54314593   5.769   6.180   5.004  0.4752 -0.0916  0.3009
   26MOL   C54414594   5.734   6.307   5.218  0.3793 -0.3161  0.3676
   26MOL   C54514595   5.783   6.407   5.323  0.3664 -0.5016 -0.0082
   26MOL   H54614596   6.113   6.333   5.556  0.5778 -0.4011 -0.2834
   26MOL   H54714597   6.184   6.460   5.478  0.0291  1.2459 -0.3001
   26MOL   H54814598   5.890   6.442   5.563 -0.2142  1.0361 -0.2721
   26MOL   H54914599   6.003   6.657   5.500 -0.6539 -0.7126  1.6145
   26MOL   H55014600   5.924   6.272   5.410 -0.2937 -1.0831 -3.3352
   26MOL   H55114601   6.010   6.476   5.209 -1.9186  0.3351  3.0019
   26MOL   H55214602   6.115   6.352   5.273  0.1473 -2.0584  1.0255
   26MOL   H55314603   5.964   6.166   5.196 -1.7965 -0.9083 -2.2413
   26MOL   H55414604   6.024   6.212   4.971  1.3354 -0.3471 -0.9489
   26MOL   H55514605   5.831   6.388   5.039  1.4246 -0.2649  0.3736
   26MOL   H55614606   5.822   6.180   4.908 -1.1189  0.3488 -0.5931
   26MOL   H55714607   5.779   6.078   5.043  1.7035 -0.3825 -0.7275
   26MOL   H55814608   5.720   6.213   5.272 -1.5930  1.1081  2.4238
   26MOL   H55914609   5.635   6.325   5.177 -0.0665  0.7567  1.8913
   26MOL   H56014610   5.703   6.403   5.397  3.2939 -3.0518  3.2493
   26MOL   H56114611   5.776   6.508   5.284  3.8000 -0.3235 -0.3398
   26MOL   H56214612   5.663   6.190   4.979  0.5608 -0.4434 -0.2337
   27MOL     O114613   7.016   6.256   6.603  0.4454 -0.6637 -0.7488
   27MOL     C214614   6.888   6.212   6.561  0.3465 -0.4659  0.0785
   27MOL     C314615   6.893   6.090   6.467 -0.3088 -0.3924  0.7323
   27MOL     O414616   6.949   5.990   6.546  0.8369  0.3226  0.3252
   27MOL     C514617   6.764   6.032   6.414 -0.2855 -0.1569 -0.5552
   27MOL     C614618   6.707   6.127   6.309 -1.0402 -0.4687 -0.8351
   27MOL     C714619   6.582   6.063   6.252 -0.2294  0.3165  0.1376
   27MOL     O814620   6.522   6.156   6.178 -0.1451  0.0150  0.1841
   27MOL     C914621   6.480   6.017   6.355  0.2745  0.0242  0.0244
   27MOL    C1014622   6.364   5.944   6.303 -0.2884  0.5836  0.0838
   27MOL    C1114623   6.548   5.923   6.457 -0.8424  0.4639 -0.7477
   27MOL    C1214624   6.662   5.998   6.520 -0.7678 -0.0123  0.4359
   27MOL    H1314625   6.837   6.298   6.518 -0.9352 -0.5304  1.4229
   27MOL    H1414626   6.822   6.184   6.643 -1.0756 -1.6616 -1.4331
   27MOL    H1514627   6.962   6.110   6.385  0.0563 -2.9573  0.3866
   27MOL    H1614628   7.002   6.041   6.606  1.3008 -0.2668  0.4217
   27MOL    H1714629   6.786   5.937   6.364 -0.4877 -1.5648  1.9693
   27MOL    H1814630   6.672   6.213   6.365 -0.8801 -2.1785  2.0228
   27MOL    H1914631   6.775   6.155   6.228 -1.1464  0.4676 -0.5958
   27MOL    H2014632   6.602   5.985   6.180  0.0976  3.4096 -3.2522
   27MOL    H2114633   6.439   6.116   6.158  1.0783 -2.5430  0.0572
   27MOL    H2214634   6.452   6.107   6.411  1.4418  0.0262  0.6138
   27MOL    H2314635   6.397   5.849   6.261 -0.1736  1.4450 -1.8068
   27MOL    H2414636   6.294   5.904   6.377  0.2770 -0.0718  0.2668
   27MOL    H2514637   6.582   5.834   6.406  3.2153  1.0805  0.6955
   27MOL    H2614638   6.477   5.889   6.533 -1.7184 -1.2029 -2.2881
   27MOL    H2714639   6.713   5.935   6.593 -0.6897  0.5648  0.8824
   27MOL    H2814640   6.624   6.086   6.571 -1.4714 -1.1173  1.8703
   27MOL    H2914641   6.993   6.321   6.668 -0.4091 -1.7822  0.0859
   27MOL    O3014642   6.304   6.019   6.198  0.5579 -0.0754  0.0139
   27MOL    C3114643   6.200   5.945   6.126  0.2221  0.5496 -0.2626
   27MOL    C3214644   6.153   6.039   6.015 -0.0871 -0.3215  0.3177
   27MOL    O3314645   6.264   6.046   5.931 -0.1635  0.7136  1.0574
   27MOL    C3414646   6.025   6.001   5.948  0.2074 -0.0513  0.2100
   27MOL    C3514647   6.013   5.869   5.867  0.2431  0.3310 -1.0828
   27MOL    C3614648   5.866   5.837   5.824 -0.4125  0.7085  0.4511
   27MOL    O3714649   5.861   5.709   5.771  0.1907 -0.5895 -0.3432
   27MOL    C3814650   5.817   5.953   5.730  1.0524  0.3883 -0.1906
   27MOL    C3914651   5.669   5.939   5.691 -0.2428 -0.0696 -0.0012
   27MOL    C4014652   5.840   6.091   5.798  0.0688 -0.4397  0.7866
   27MOL    C4114653   5.983   6.108   5.855 -0.1696 -0.4061 -0.1290
   27MOL    H4214654   6.119   5.924   6.196  2.6286 -0.6342  2.2806
   27MOL    H4314655   6.240   5.850   6.091  1.8901  0.3532  2.0681
   27MOL    H4414656   6.137   6.134   6.066 -1.8632 -1.0691  1.2033
   27MOL    H4514657   6.293   5.960   5.904 -2.4875 -0.0075  0.7593
   27MOL    H4614658   5.951   6.005   6.028 -0.1139  1.9558 -0.1356
   27MOL    H4714659   6.074   5.877   5.777 -0.7465 -0.9636 -1.8921
   27MOL    H4814660   6.064   5.787   5.916 -0.9582 -0.3970 -1.0442
   27MOL    H4914661   5.804   5.840   5.913 -2.8966  1.8816 -1.2483
   27MOL    H5014662   5.863   5.719   5.677 -0.2562 -1.5903 -0.4651
   27MOL    H5114663   5.881   5.963   5.642  1.2310  1.3756  0.0414
   27MOL    H5214664   5.663   5.848   5.630  0.6992  1.8400 -3.0580
   27MOL    H5314665   5.606   5.921   5.778  0.8264  0.4079  0.8800
   27MOL    H5414666   5.766   6.101   5.878 -0.1257  1.2479  0.4078
   27MOL    H5514667   5.810   6.174   5.734 -1.5091 -1.0383  0.7099
   27MOL    H5614668   5.979   6.199   5.916  1.3172 -1.7620  2.0591
   27MOL    H5714669   6.054   6.133   5.776  1.1835 -2.0683  0.5366
   27MOL    O5814670   5.616   6.046   5.616  0.1426 -0.8117  0.0448
   27MOL    C5914671   5.477   6.039   5.601 -0.4511  0.3656  0.7450
   27MOL    C6014672   5.442   6.044   5.449 -0.4535 -0.6211  0.1488
   27MOL    O6114673   5.449   5.914   5.407 -0.1193 -0.0325  0.2829
   27MOL    C6214674   5.311   6.112   5.433  0.5006 -0.1875  0.4950
   27MOL    C6314675   5.182   6.032   5.444  0.0169  0.1807 -0.1286
   27MOL    C6414676   5.053   6.127   5.431 -0.0413 -0.1143  0.4412
   27MOL    O6514677   4.936   6.053   5.454  0.2052  0.9717 -0.8077
   27MOL    C6614678   5.058   6.188   5.288  0.5388 -0.2477 -0.0998
   27MOL    C6714679   4.952   6.296   5.281  0.5327 -0.3341  1.0787
   27MOL    C6814680   5.192   6.267   5.266  0.3362 -0.8987 -0.5719
   27MOL    C6914681   5.317   6.183   5.291 -1.0835 -0.4817  0.2032
   27MOL    H7014682   5.451   6.122   5.666 -0.9988  0.5089  0.3471
   27MOL    H7114683   5.442   5.946   5.646 -0.6754  0.5865  1.0334
   27MOL    H7214684   5.526   6.091   5.398 -0.1959 -0.6904  0.5053
   27MOL    H7314685   5.422   5.849   5.469 -1.2301  1.1179  1.0351
   27MOL    H7414686   5.302   6.199   5.498 -0.4730  0.3028 -0.2840
   27MOL    H7514687   5.184   5.952   5.370  0.0836  0.6169 -0.6013
   27MOL    H7614688   5.183   5.987   5.544  0.2127  1.1733  0.3255
   27MOL    H7714689   5.065   6.199   5.513 -0.9536 -0.0607  0.5292
   27MOL    H7814690   4.871   6.101   5.405 -0.7150 -0.1320 -0.6842
   27MOL    H7914691   5.061   6.111   5.211  1.9650 -0.8790  0.5624
   27MOL    H8014692   4.979   6.349   5.190  0.9009 -0.7630  0.9343
   27MOL    H8114693   4.852   6.255   5.265  0.4436  0.2666  0.0411
   27MOL    H8214694   5.201   6.350   5.335  1.8299  1.0929 -3.0771
   27MOL    H8314695   5.199   6.306   5.165 -1.1996 -1.8645 -1.0736
   27MOL    H8414696   5.409   6.240   5.274 -1.9420  0.3311 -1.9345
   27MOL    H8514697   5.302   6.103   5.219 -0.8443 -0.5583  0.2369
   27MOL    O8614698   4.956   6.378   5.391  0.1912  0.1159  0.5426
   27MOL    C8714699   4.856   6.478   5.392 -0.2947  0.4090  0.3074
   27MOL    C8814700   4.873   6.540   5.528 -0.2613 -0.2317 -0.2515
   27MOL    O8914701   4.846   6.452   5.638  0.8159  0.1099  0.2348
   27MOL    C9014702   5.011   6.613   5.567  0.0091 -0.1403 -0.3527
   27MOL    C9114703   4.992   6.700   5.690  0.4307  0.0790  0.2337
   27MOL    C9214704   5.109   6.802   5.719 -0.4926 -0.3326 -0.3074
   27MOL    O9314705   5.068   6.883   5.832 -0.1165  0.7888 -0.0269
   27MOL    C9414706   5.142   6.888   5.595  0.6185 -0.2576  0.4500
   27MOL    C9514707   5.260   6.989   5.617 -0.0025  0.2816 -0.0444
   27MOL    C9614708   5.168   6.795   5.473 -1.5686  1.0769  0.4119
   27MOL    C9714709   5.055   6.700   5.444 -0.0950  0.1908  0.1382
   27MOL    H9814710   4.760   6.431   5.367 -0.9389  1.6761  0.3516
   27MOL    H9914711   4.873   6.546   5.309 -0.2845  1.1279  0.9005
   27MOL   H10014712   4.796   6.618   5.529 -0.2261 -0.1943 -0.4063
   27MOL   H10114713   4.910   6.382   5.634  0.2748 -0.4800  1.6570
   27MOL   H10214714   5.093   6.550   5.600 -0.8298 -0.6533  0.8192
   27MOL   H10314715   4.901   6.758   5.677 -0.0693 -0.8868 -0.7108
   27MOL   H10414716   4.981   6.634   5.776 -1.9525 -0.4076 -0.4231
   27MOL   H10514717   5.194   6.755   5.767 -0.6472  3.3753  3.9585
   27MOL   H10614718   5.127   6.865   5.904 -0.2678  2.7574  0.6076
   27MOL   H10714719   5.059   6.957   5.576  0.8389 -0.0726  0.1464
   27MOL   H10814720   5.255   7.064   5.695  1.8594 -0.8029  1.1584
   27MOL   H10914721   5.349   6.942   5.661 -0.3571 -1.1628 -0.8249
   27MOL   H11014722   5.259   6.735   5.482 -1.7020  0.5830 -1.3809
   27MOL   H11114723   5.188   6.857   5.385  0.9809 -0.7630 -0.3623
   27MOL   H11214724   5.077   6.631   5.363  0.8515 -0.1030  0.6443
   27MOL   H11314725   4.967   6.755   5.410 -0.9903 -2.1043 -1.3826
   27MOL   O11414726   5.286   7.056   5.495  0.4031 -0.3058 -0.3590
   27MOL   C11514727   5.411   7.119   5.480  0.3204  0.1451  0.2651
   27MOL   C11614728   5.404   7.215   5.359 -0.0914 -0.4425 -0.7515
   27MOL   O11714729   5.349   7.145   5.254  0.1372 -0.3298  0.1526
   27MOL   C11814730   5.316   7.342   5.389  0.1106 -0.1060  0.1537
   27MOL   C11914731   5.168   7.316   5.437 -0.4966  0.4054  0.2699
   27MOL   C12014732   5.084   7.443   5.458 -0.1431  1.0691  0.0896
   27MOL   O12114733   4.957   7.407   5.513  0.1919  0.2405  1.1266
   27MOL   C12214734   5.075   7.516   5.320  0.3356 -0.3366 -0.3491
   27MOL   C12314735   4.975   7.627   5.318 -0.1199  0.0241 -0.0557
   27MOL   C12414736   5.221   7.551   5.278 -0.0041  0.0946  0.5150
   27MOL   C12514737   5.314   7.429   5.267 -1.1061  0.2513  0.5482
   27MOL   H12614738   5.492   7.050   5.458  0.5388 -0.4063  2.6886
   27MOL   H12714739   5.432   7.173   5.572  0.1073 -0.0428  0.4252
   27MOL   H12814740   5.509   7.234   5.335 -0.4418  1.8126 -0.6161
   27MOL   H12914741   5.271   7.110   5.293 -0.1152  0.9260  0.8094
   27MOL   H13014742   5.357   7.399   5.473 -3.1614  0.0428  1.7358
   27MOL   H13114743   5.112   7.266   5.358  0.2116 -0.7977  0.5231
   27MOL   H13214744   5.155   7.255   5.526  1.9767 -1.2140 -0.4171
   27MOL   H13314745   5.141   7.512   5.520  0.2858  1.2691 -0.5213
   27MOL   H13414746   4.963   7.380   5.603 -0.5076  0.5135  1.2584
   27MOL   H13514747   5.029   7.458   5.240  0.1514  1.4780 -1.5817
   27MOL   H13614748   4.881   7.592   5.362 -0.8008  1.3855 -0.4094
   27MOL   H13714749   5.016   0.069   5.389 -1.9086 -1.0836  2.1380
   27MOL   H13814750   5.271   0.002   5.332 -1.5456  2.7724 -1.8980
   27MOL   H13914751   5.215   7.597   5.180 -0.9888 -1.1041 -0.0091
   27MOL   H14014752   5.415   7.461   5.239 -2.0307  2.0210 -0.8729
   27MOL   H14114753   5.279   7.379   5.177 -2.9441  1.8821  0.3410
   27MOL   O14214754   4.973   0.068   5.196  0.0167  0.1672  0.2345
   27MOL   C14314755   4.850   0.058   5.127  0.5852  0.7818  0.6227
   27MOL   C14414756   4.837   0.139   4.998  0.6552 -0.4254 -0.1569
   27MOL   O14514757   4.738   0.079   4.924  0.8934 -0.3133  0.3726
   27MOL   C14614758   4.825   0.294   5.017  0.3977  0.5071 -0.0340
   27MOL   C14714759   4.702   0.333   5.107 -0.9798  0.3440 -0.2164
   27MOL   C14814760   4.677   0.490   5.117 -0.5448 -0.4702  0.5454
   27MOL   O14914761   4.559   0.512   5.188  0.2292 -0.2538 -0.3436
   27MOL   C15014762   4.682   0.560   4.980  0.2808 -0.1949 -0.0552
   27MOL   C15114763   4.677   0.712   4.997 -0.4070  0.3585  0.4236
   27MOL   C15214764   4.814   0.516   4.917 -0.2323 -0.4471  0.0645
   27MOL   C15314765   4.814   0.369   4.886 -0.0165  0.2762  0.5324
   27MOL   H15414766   4.765   0.062   5.195 -0.1177 -2.5068  0.0519
   27MOL   H15514767   4.852   7.583   5.094 -0.8006  0.4468  1.5553
   27MOL   H15614768   4.928   0.125   4.939  1.1514  0.6183  0.3401
   27MOL   H15714769   4.720   0.135   4.851 -0.6641  0.0142  0.9868
   27MOL   H15814770   4.920   0.316   5.066  0.8806  0.9364 -1.1697
   27MOL   H15914771   4.615   0.276   5.072 -1.9278  0.8065  1.3284
   27MOL   H16014772   4.707   0.294   5.208  0.5432  0.3626 -0.2834
   27MOL   H16114773   4.760   0.530   5.176  1.6163  0.2378 -2.8862
   27MOL   H16214774   4.531   0.602   5.179 -2.1686 -0.8792  0.3863
   27MOL   H16314775   4.606   0.523   4.911 -0.6618  1.4818  0.0806
   27MOL   H16414776   4.769   0.752   5.040  0.9674 -1.3659 -0.8293
   27MOL   H16514777   4.676   0.754   4.897 -0.3852  0.5801  0.5163
   27MOL   H16614778   4.889   0.530   4.995 -0.4493 -1.1797  0.4071
   27MOL   H16714779   4.843   0.568   4.826 -0.2611 -1.0347 -0.2848
   27MOL   H16814780   4.899   0.326   4.833 -0.7620 -0.8164  0.2063
   27MOL   H16914781   4.719   0.339   4.841  0.6614 -1.1477  0.0104
   27MOL   O17014782   4.559   0.752   5.072  0.1616  0.0894 -0.1726
   27MOL   C17114783   4.543   0.893   5.080 -1.2712  0.1680 -0.0997
   27MOL   C17214784   4.426   0.921   5.175 -0.1478 -0.2962  0.6726
   27MOL   O17314785   4.317   0.899   5.080 -0.6744  0.0117 -0.1867
   27MOL   C17414786   4.415   0.824   5.295 -0.0461 -0.0459  0.7441
   27MOL   C17514787   4.302   0.852   5.396  0.4264 -0.1766  0.2913
   27MOL   C17614788   4.314   0.740   5.498 -0.1136 -0.6972 -0.1748
   27MOL   O17714789   4.202   0.751   5.587 -0.4297  0.6202  0.0901
   27MOL   C17814790   4.447   0.740   5.583 -0.7658  0.5090 -0.1949
   27MOL   C17914791   4.449   0.621   5.686 -0.1747 -0.0826  0.6825
   27MOL   C18014792   4.560   0.731   5.486  0.3027  0.3904  0.5540
   27MOL   C18114793   4.549   0.832   5.374  0.1287 -0.3708  0.0196
   27MOL   H18214794   4.526   0.933   4.980 -1.0751  0.8433  0.1363
   27MOL   H18314795   4.632   0.947   5.113 -0.1401 -0.6590 -1.7121
   27MOL   H18414796   4.441   1.026   5.200  2.4546 -0.2666 -0.7957
   27MOL   H18514797   4.313   0.806   5.061 -0.2699  0.1319 -0.8588
   27MOL   H18614798   4.399   0.724   5.255 -0.9474 -0.4973  2.2162
   27MOL   H18714799   4.300   0.953   5.437 -3.0029  0.1414 -0.5126
   27MOL   H18814800   4.205   0.837   5.348  1.0403  1.0875 -1.4165
   27MOL   H18914801   4.306   0.642   5.450 -0.3332  0.1977 -2.0122
   27MOL   H19014802   4.232   0.800   5.662 -2.0691  1.0714  0.4769
   27MOL   H19114803   4.453   0.835   5.636 -1.9237  0.8281 -0.5999
   27MOL   H19214804   4.352   0.628   5.736  0.7560  2.1754  2.1876
   27MOL   H19314805   4.442   0.520   5.643 -0.2148 -0.3670  1.3557
   27MOL   H19414806   4.558   0.635   5.435 -1.7502  0.4983  0.3834
   27MOL   H19514807   4.650   0.747   5.545 -1.4807 -0.0371  3.5223
   27MOL   H19614808   4.625   0.799   5.303  0.3741 -0.9162  0.5324
   27MOL   H19714809   4.572   0.930   5.416  2.4488 -1.1580  0.7043
   27MOL   O19814810   4.549   0.641   5.778  0.4529 -0.0177  0.2036
   27MOL   C19914811   4.549   0.532   5.871  0.1461 -0.7317 -0.1641
   27MOL   C20014812   4.666   0.560   5.959  0.5448 -0.1591  0.3250
   27MOL   O20114813   4.649   0.690   6.016 -0.3004  0.5479  0.1919
   27MOL   C20214814   4.699   0.462   6.069 -0.6551 -0.6428  0.0166
   27MOL   C20314815   4.589   0.444   6.172 -0.2799  0.0339  0.8232
   27MOL   C20414816   4.621   0.328   6.273 -0.1813 -0.0930 -0.2613
   27MOL   O20514817   4.518   0.337   6.373  0.1040  0.5865  0.2900
   27MOL   C20614818   4.757   0.350   6.330  0.5270 -0.5348  0.0133
   27MOL   C20714819   4.792   0.239   6.435  0.3420  0.1890 -0.0699
   27MOL   C20814820   4.867   0.365   6.223 -0.0682 -1.5354  0.5135
   27MOL   C20914821   4.835   0.489   6.138 -0.3453  0.2884  0.0760
   27MOL   H21014822   4.554   0.436   5.820 -2.2656 -1.1751  0.3685
   27MOL   H21114823   4.459   0.528   5.933  1.6549  1.2944  2.2357
   27MOL   H21214824   4.749   0.557   5.888 -0.1459  1.9636 -0.5912
   27MOL   H21314825   4.620   0.751   5.950  0.2730  3.0909  2.2040
   27MOL   H21414826   4.726   0.369   6.019 -2.5237 -1.5237  0.5807
   27MOL   H21514827   4.569   0.542   6.217 -1.2466 -0.0490  0.5845
   27MOL   H21614828   4.493   0.426   6.124  0.2438  0.7303 -0.5123
   27MOL   H21714829   4.622   0.231   6.224 -1.5642  0.2562 -0.9942
   27MOL   H21814830   4.436   0.307   6.337  0.5988  0.2246 -0.5537
   27MOL   H21914831   4.758   0.440   6.391  0.2052  0.1079 -0.9308
   27MOL   H22014832   4.888   0.264   6.480  0.9674 -0.9400 -0.7523
   27MOL   H22114833   4.722   0.242   6.518  0.6299 -1.0428  0.2282
   27MOL   H22214834   4.864   0.275   6.161 -2.5872 -0.9504 -0.2991
   27MOL   H22314835   4.969   0.363   6.260  0.6827 -0.2974 -1.3593
   27MOL   H22414836   4.916   0.511   6.070 -1.4488 -0.7094 -1.5958
   27MOL   H22514837   4.831   0.582   6.196  1.9242  1.0252 -0.9018
   27MOL   O22614838   4.807   0.112   6.373 -0.4409  0.0917 -0.5103
   27MOL   C22714839   4.851   0.008   6.468  0.2286 -0.4008  0.3032
   27MOL   C22814840   4.982   7.578   6.401 -0.1502 -0.4746  0.1952
   27MOL   O22914841   5.077   0.054   6.383 -0.7117 -0.1748  0.2694
   27MOL   C23014842   5.056   7.471   6.484 -0.3224  0.0817 -0.0600
   27MOL   C23114843   5.176   7.425   6.408  0.4339  0.6081 -0.0264
   27MOL   C23214844   5.260   7.324   6.494 -0.0315  0.4142 -0.1734
   27MOL   O23314845   5.365   7.269   6.426  0.1900 -0.2800 -0.0354
   27MOL   C23414846   5.173   7.194   6.524  0.6556 -0.1759  0.0701
   27MOL   C23514847   5.249   7.113   6.628 -0.4773 -0.2626 -0.4540
   27MOL   C23614848   5.038   7.238   6.589  0.0983 -0.0163 -0.6045
   27MOL   C23714849   4.964   7.348   6.508 -0.7088 -0.2238 -0.1976
   27MOL   H23814850   4.766   7.570   6.474 -0.1385 -0.1575 -1.7562
   27MOL   H23914851   4.880   0.049   6.565 -0.4469 -1.7831  1.1064
   27MOL   H24014852   4.970   7.534   6.302 -1.3052 -0.3807  0.2930
   27MOL   H24114853   5.021   0.128   6.366  0.9824  1.1440  0.3100
   27MOL   H24214854   5.078   7.512   6.582  1.8934 -2.6807  0.6656
   27MOL   H24314855   5.132   7.378   6.319  0.9736  0.0210  0.0100
   27MOL   H24414856   5.241   7.502   6.367  0.3726  0.6867  0.0243
   27MOL   H24514857   5.291   7.369   6.588 -1.3695  1.0471 -0.0319
   27MOL   H24614858   5.437   7.330   6.429 -0.6734  0.8882 -1.9427
   27MOL   H24714859   5.150   7.136   6.435 -0.9870  1.5145 -0.6563
   27MOL   H24814860   5.350   7.090   6.594 -0.4144  0.6444 -0.9199
   27MOL   H24914861   5.276   7.171   6.716  3.3097 -1.8338 -0.4848
   27MOL   H25014862   5.072   7.271   6.687  1.8660 -1.5504 -0.6885
   27MOL   H25114863   4.974   7.156   6.623  0.8742 -1.2506 -2.0962
   27MOL   H25214864   4.881   7.375   6.574 -0.5870  0.5730 -0.3665
   27MOL   H25314865   4.923   7.312   6.413 -1.0828 -3.5153  1.1433
   27MOL   O25414866   5.189   6.988   6.647  0.4496 -0.2654 -0.0461
   27MOL   C25514867   5.226   6.934   6.773  0.6699 -0.6613  0.3511
   27MOL   C25614868   5.149   6.801   6.800 -0.0839  0.1840 -0.3651
   27MOL   O25714869   5.174   6.748   6.930 -0.1874  0.3410 -0.5760
   27MOL   C25814870   4.991   6.807   6.775 -0.9857  0.5606  0.0451
   27MOL   C25914871   4.956   6.815   6.625  0.3247 -0.6108 -0.7054
   27MOL   C26014872   4.807   6.815   6.609  0.5226  0.0032 -0.4418
   27MOL   O26114873   4.786   6.818   6.471  0.0150  0.1910 -0.0456
   27MOL   C26214874   4.728   6.933   6.688  0.2172  0.4177 -0.0706
   27MOL   C26314875   4.576   6.928   6.686  0.8794  0.1084  0.2881
   27MOL   C26414876   4.769   6.934   6.837  0.1387 -0.5900 -0.0004
   27MOL   C26514877   4.930   6.928   6.851  0.3297  0.0470  0.1808
   27MOL   H26614878   5.200   7.003   6.854  0.3048  1.1183 -1.2497
   27MOL   H26714879   5.331   6.905   6.775  1.2001  1.1838  0.6228
   27MOL   H26814880   5.195   6.722   6.740  0.5220  0.2326  0.0328
   27MOL   H26914881   5.116   6.791   6.991  1.4748  1.7572  0.0408
   27MOL   H27014882   4.957   6.708   6.807  1.4630 -0.5134 -0.5218
   27MOL   H27114883   4.996   6.909   6.585 -1.8680  0.5382 -0.3046
   27MOL   H27214884   5.011   6.741   6.567 -0.3842 -0.6511 -1.3323
   27MOL   H27314885   4.758   6.725   6.647 -0.8531  0.5395 -0.9283
   27MOL   H27414886   4.833   6.892   6.435  1.2993 -1.3252 -1.5066
   27MOL   H27514887   4.759   7.026   6.640  1.7779 -0.7167 -1.3141
   27MOL   H27614888   4.549   6.916   6.581 -0.4395  2.5832  0.3264
   27MOL   H27714889   4.538   6.850   6.753  0.5695 -0.0013 -0.0205
   27MOL   H27814890   4.720   6.858   6.898  1.5402 -0.5573  1.1954
   27MOL   H27914891   4.739   7.029   6.880 -2.1337 -0.7614 -1.1565
   27MOL   H28014892   4.965   6.945   6.953  1.7943 -1.1375 -0.1083
   27MOL   H28114893   4.949   7.015   6.788  1.3725  0.2268  0.7410
   27MOL   O28214894   4.537   7.060   6.732  0.5328  0.1814 -0.3015
   27MOL   C28314895   4.400   7.067   6.766  0.7218  0.1586  0.2462
   27MOL   C28414896   4.369   7.020   6.911 -0.4706 -0.3091 -0.6073
   27MOL   O28514897   4.379   7.142   6.981  0.3557  0.1075  0.1331
   27MOL   C28614898   4.226   6.968   6.950 -0.0588 -0.6353 -0.0312
   27MOL   C28714899   4.212   6.899   7.095  0.7478 -0.4782 -0.0395
   27MOL   C28814900   4.071   6.857   7.122  0.5484 -0.3092  0.4975
   27MOL   O28914901   4.049   6.793   7.247 -0.0810 -0.0628  0.4661
   27MOL   C29014902   4.022   6.755   7.014 -0.5687 -0.9664 -0.2257
   27MOL   C29114903   3.880   6.697   7.044  0.4992  0.2130  0.1870
   27MOL   C29214904   4.025   6.812   6.878  0.2016  0.1263 -0.3748
   27MOL   C29314905   4.165   6.868   6.850 -0.9020 -0.2213  0.3455
   27MOL   H29414906   4.350   7.017   6.683  0.2791  1.8289 -0.5083
   27MOL   H29514907   4.379   7.172   6.750  0.0002 -0.2234 -1.4236
   27MOL   H29614908   4.443   6.950   6.948 -0.9409 -0.6847 -0.3689
   27MOL   H29714909   4.469   7.153   7.005  0.3439  1.3067 -0.3290
   27MOL   H29814910   4.159   7.053   6.949 -1.0407 -1.4041 -0.7140
   27MOL   H29914911   4.277   6.812   7.105  0.5213 -0.4748  1.4910
   27MOL   H30014912   4.246   6.964   7.175 -3.5265  2.2781 -0.2965
   27MOL   H30114913   4.009   6.945   7.110  1.6382  0.8673  3.1015
   27MOL   H30214914   4.116   6.726   7.250  0.1124 -0.0535 -2.1605
   27MOL   H30314915   4.091   6.671   7.016 -0.0153 -0.5979 -2.5496
   27MOL   H30414916   3.872   6.653   7.144  1.7437  0.0189  0.2113
   27MOL   H30514917   3.811   6.781   7.030 -0.7367 -1.0304 -1.4663
   27MOL   H30614918   3.943   6.883   6.869 -0.6576 -0.8005  0.0663
   27MOL   H30714919   4.002   6.732   6.808 -0.3375 -1.0873  1.1469
   27MOL   H30814920   4.174   6.903   6.746 -0.2673  0.0921  0.5025
   27MOL   H30914921   4.225   6.780   6.871 -3.2819 -1.6657  1.1564
   27MOL   O31014922   3.836   6.598   6.953 -0.3473 -0.1524  0.0409
   27MOL   C31114923   3.908   6.477   6.962 -0.1502 -0.0697  0.1840
   27MOL   C31214924   3.816   6.363   6.913  0.3949  0.2491 -0.5010
   27MOL   O31314925   3.708   6.362   6.998  0.2715  0.4702 -0.0764
   27MOL   C31414926   3.778   6.376   6.757 -0.3641 -0.2717  0.1841
   27MOL   C31514927   3.704   6.244   6.719  0.2825  0.1111  0.4259
   27MOL   C31614928   3.675   6.232   6.571 -0.9059  0.0520  0.5622
   27MOL   O31714929   3.620   6.103   6.556 -0.2184 -0.0280 -0.8330
   27MOL   C31814930   3.799   6.251   6.483 -0.4917 -0.6391 -0.3886
   27MOL   C31914931   3.759   6.229   6.341 -0.0157 -0.1803  0.2631
   27MOL   C32014932   3.870   6.389   6.517  0.2174 -0.4987  0.9269
   27MOL   C32114933   3.904   6.392   6.665 -0.3405 -0.2982  0.7461
   27MOL   H32214934   3.945   6.452   7.061  0.4054  2.6119  0.6969
   27MOL   H32314935   3.990   6.478   6.890  0.3772  0.2320  0.7823
   27MOL   H32414936   3.871   6.271   6.933 -0.5272 -0.0327  0.7964
   27MOL   H32514937   3.684   6.453   7.009  0.4646  0.6603 -1.1841
   27MOL   H32614938   3.707   6.455   6.729 -0.2078 -0.2176 -0.0563
   27MOL   H32714939   3.756   6.154   6.750  0.1621  0.5933  2.1308
   27MOL   H32814940   3.619   6.238   6.787 -0.4711 -0.4011 -0.5477
   27MOL   H32914941   3.596   6.303   6.548 -0.8957  0.0925  0.6507
   27MOL   H33014942   3.661   6.047   6.620 -1.0938 -0.1854 -0.3985
   27MOL   H33114943   3.863   6.165   6.499 -2.1804 -1.2868  3.2833
   27MOL   H33214944   3.724   6.126   6.330  1.8116 -0.8450  0.6165
   27MOL   H33314945   3.677   6.297   6.319 -0.3465 -0.3273  1.0294
   27MOL   H33414946   3.797   6.466   6.494 -0.4761 -1.4298 -0.0423
   27MOL   H33514947   3.962   6.402   6.461 -1.1948  0.9445 -1.0999
   27MOL   H33614948   3.962   6.482   6.686  1.7429 -1.4255 -0.0281
   27MOL   H33714949   3.974   6.310   6.679  0.5017  0.9226  4.1078
   27MOL   O33814950   3.866   6.257   6.257  0.1394 -0.6195  0.1978
   27MOL   C33914951   3.945   6.145   6.217  0.4249 -0.4032 -0.4002
   27MOL   C34014952   4.086   6.194   6.179  0.0928  0.3150  0.2856
   27MOL   O34114953   4.155   6.217   6.299  0.2589  0.0018 -0.1693
   27MOL   C34214954   4.152   6.090   6.088 -0.0507 -0.0858  0.6033
   27MOL   C34314955   4.116   6.103   5.941  0.3985 -0.0659  0.3645
   27MOL   C34414956   4.185   6.000   5.854 -0.4054  0.0645  0.4479
   27MOL   O34514957   4.151   6.020   5.717 -0.0963 -0.3027  0.0162
   27MOL   C34614958   4.170   5.850   5.903 -0.7858  0.6160 -0.0879
   27MOL   C34714959   4.242   5.758   5.804 -0.3445 -0.7425 -0.3158
   27MOL   C34814960   4.224   5.848   6.045  0.1672  0.4590 -0.5888
   27MOL   C34914961   4.144   5.943   6.137 -0.1000 -0.1781 -0.3452
   27MOL   H35014962   3.893   6.090   6.138 -0.3481  0.6229 -0.6290
   27MOL   H35114963   3.950   6.073   6.299 -0.7658  0.0570  0.0997
   27MOL   H35214964   4.080   6.291   6.129  0.0531 -0.8328 -2.0037
   27MOL   H35314965   4.096   6.274   6.346 -1.9195  0.3363 -3.1527
   27MOL   H35414966   4.256   6.117   6.106 -0.1487  0.8788 -0.2367
   27MOL   H35514967   4.010   6.122   5.924 -0.4073 -2.2436  2.6543
   27MOL   H35614968   4.153   6.198   5.901  1.1866 -0.6510 -0.3362
   27MOL   H35714969   4.292   6.020   5.859 -0.0115 -1.8999  0.4230
   27MOL   H35814970   4.224   6.068   5.681 -1.2906  0.9752 -0.7628
   27MOL   H35914971   4.065   5.820   5.902 -0.5981 -0.0510 -0.6808
   27MOL   H36014972   4.194   5.781   5.709  1.5455 -1.3413 -1.4378
   27MOL   H36114973   4.350   5.768   5.790 -0.6853  1.2644 -1.6172
   27MOL   H36214974   4.330   5.875   6.046  0.5311 -0.9965  1.7950
   27MOL   H36314975   4.224   5.745   6.081  0.6885  0.5735 -0.2545
   27MOL   H36414976   4.188   5.932   6.236 -3.2008 -1.2236  0.9944
   27MOL   H36514977   4.041   5.907   6.144 -0.0553 -0.0422  1.2434
   27MOL   O36614978   4.209   5.620   5.836  0.7238 -0.1817  0.4102
   27MOL   C36714979   4.316   5.550   5.891  0.8768  0.2292  0.9718
   27MOL   C36814980   4.267   5.401   5.922  0.7512 -0.0357  0.5508
   27MOL   O36914981   4.244   5.334   5.800  0.1244 -0.3245  0.1375
   27MOL   C37014982   4.353   5.319   6.017  0.1780  0.3107 -0.1257
   27MOL   C37114983   4.317   5.342   6.169 -0.4000 -0.6090 -0.6297
   27MOL   C37214984   4.396   5.251   6.264 -0.1845  0.2185 -0.4000
   27MOL   O37314985   4.381   5.294   6.403  0.4265  0.7624 -0.5519
   27MOL   C37414986   4.550   5.245   6.231  1.0673 -0.1973  0.6230
   27MOL   C37514987   4.631   5.164   6.336 -0.2168 -0.4063  0.1052
   27MOL   C37614988   4.569   5.206   6.081 -0.1649  0.3144 -0.3597
   27MOL   C37714989   4.500   5.306   5.984  0.1255  0.8488 -0.0823
   27MOL   H37814990   4.340   5.603   5.983 -0.6477  1.4992  0.6646
   27MOL   H37914991   4.391   5.556   5.812 -1.0378  1.7276 -0.7961
   27MOL   H38014992   4.167   5.409   5.966  1.3861  1.5656  1.7593
   27MOL   H38114993   4.202   5.399   5.747  0.0800 -0.2964  0.2056
   27MOL   H38214994   4.328   5.213   6.008  1.8667  0.0037 -1.2237
   27MOL   H38314995   4.335   5.448   6.190  0.2398 -1.0475  1.0953
   27MOL   H38414996   4.211   5.328   6.192 -0.6255  0.2261 -1.1247
   27MOL   H38514997   4.358   5.150   6.250  0.7956  0.0187 -1.6934
   27MOL   H38614998   4.452   5.349   6.432  0.0538  1.1620 -0.3933
   27MOL   H38714999   4.596   5.343   6.245  0.8965  0.4507 -2.9882
   27MOL   H38815000   4.635   5.232   6.421 -2.1598 -0.5388  0.3144
   27MOL   H38915001   4.575   5.071   6.345  3.3394 -2.9402 -2.4739
   27MOL   H39015002   4.512   5.113   6.070 -0.3208 -0.0112  2.8142
   27MOL   H39115003   4.674   5.191   6.058 -0.1043 -1.2499  0.8034
   27MOL   H39215004   4.522   5.284   5.880 -0.9235  3.0241 -0.7926
   27MOL   H39315005   4.553   5.400   6.000  1.0229 -0.0661  2.6013
   27MOL   O39415006   4.759   5.146   6.281 -0.6789  0.3707 -0.1803
   27MOL   C39515007   4.841   5.051   6.346  0.0020 -0.4270  0.5342
   27MOL   C39615008   4.958   5.014   6.254 -0.3624 -0.1773 -0.3084
   27MOL   O39715009   5.029   5.144   6.250 -0.6414  0.1842  0.0408
   27MOL   C39815010   5.066   4.906   6.294  0.0946  0.6769  0.1573
   27MOL   C39915011   5.141   4.857   6.169 -0.5699 -0.4712  0.3868
   27MOL   C40015012   5.250   4.758   6.203  0.0715 -0.1211 -0.9258
   27MOL   O40115013   5.317   4.710   6.089  0.2339  0.5141  0.2698
   27MOL   C40215014   5.210   4.632   6.287 -0.6314  0.0437 -0.5167
   27MOL   C40315015   5.331   4.574   6.354 -0.3915  0.4924  0.0017
   27MOL   C40415016   5.108   4.678   6.398  0.0816 -0.1355 -0.7075
   27MOL   C40515017   5.001   4.784   6.356 -0.4247 -0.3766 -1.2194
   27MOL   H40615018   4.781   4.964   6.370  0.3019 -0.8561 -0.2683
   27MOL   H40715019   4.860   5.096   6.443  0.2972  1.5553 -0.4027
   27MOL   H40815020   4.915   4.998   6.156 -0.7579  1.1095 -0.3591
   27MOL   H40915021   4.957   5.200   6.277 -0.1874  1.0194 -0.4569
   27MOL   H41015022   5.134   4.958   6.360  2.0131  0.6221 -1.7160
   27MOL   H41115023   5.074   4.798   6.106  0.9953 -0.4480 -1.3548
   27MOL   H41215024   5.191   4.940   6.118  1.3807 -1.3787  0.7539
   27MOL   H41315025   5.332   4.805   6.258  1.1765 -0.2905 -2.4100
   27MOL   H41415026   5.352   4.793   6.060 -1.0565  1.5742  1.6908
   27MOL   H41515027   5.173   4.561   6.213  0.9445 -2.8129  1.3513
   27MOL   H41615028   5.415   4.542   6.292  2.0433  1.6289  2.5797
   27MOL   H41715029   5.389   4.653   6.401 -0.5445  1.8573 -2.0360
   27MOL   H41815030   5.168   4.725   6.477 -0.9431  2.2722 -1.3255
   27MOL   H41915031   5.061   4.591   6.444  0.5366 -0.3162 -0.5779
   27MOL   H42015032   4.940   4.814   6.442  0.6062  0.3652 -0.7304
   27MOL   H42115033   4.933   4.732   6.289  0.6797 -0.2367 -2.4796
   27MOL   O42215034   5.287   4.467   6.442 -0.5286 -0.5418  0.3732
   27MOL   C42315035   5.350   4.476   6.570  0.7171  0.6408  0.6095
   27MOL   C42415036   5.290   4.352   6.641 -0.4240  0.3271  0.6092
   27MOL   O42515037   5.162   4.391   6.661 -0.5584 -0.5197  0.4592
   27MOL   C42615038   5.289   4.226   6.553  0.2755 -0.2088 -0.4753
   27MOL   C42715039   5.257   4.101   6.642 -0.2847 -0.5245  0.2418
   27MOL   C42815040   5.248   3.968   6.563 -0.5492  0.0694  0.3914
   27MOL   O42915041   5.243   3.861   6.655 -0.2814 -0.1242  0.9227
   27MOL   C43015042   5.371   3.949   6.465  0.0642 -0.2243  0.0995
   27MOL   C43115043   5.342   3.836   6.364 -0.7747 -0.1847  0.2533
   27MOL   C43215044   5.429   4.079   6.394  0.4227 -0.3824  0.2600
   27MOL   C43315045   5.433   4.198   6.494 -0.0510 -0.6623  0.4206
   27MOL   H43415046   5.334   4.578   6.607 -0.3122  1.5320 -2.1680
   27MOL   H43515047   5.457   4.474   6.550  0.2529  0.6094 -1.9878
   27MOL   H43615048   5.351   4.348   6.731  1.1921 -2.0541 -0.5209
   27MOL   H43715049   5.162   4.477   6.700 -1.3118  0.3233 -1.3361
   27MOL   H43815050   5.217   4.229   6.471 -1.2166  0.9415  0.8624
   27MOL   H43915051   5.317   4.083   6.731 -1.4185  2.0753  1.5727
   27MOL   H44015052   5.157   4.118   6.682  0.7110 -0.6316  2.8696
   27MOL   H44115053   5.151   3.981   6.515 -0.7326  0.4972  0.8787
   27MOL   H44215054   5.285   3.875   6.739  1.0584 -0.1933  0.2798
   27MOL   H44315055   5.454   3.914   6.526 -0.3780 -0.4490  0.5807
   27MOL   H44415056   5.307   3.746   6.414 -0.1326 -2.3054 -3.0108
   27MOL   H44515057   5.259   3.861   6.298 -2.0167 -2.0150  1.0830
   27MOL   H44615058   5.378   4.109   6.303 -0.4897  2.1430  1.5694
   27MOL   H44715059   5.533   4.058   6.367  0.7942 -0.3172  1.6269
   27MOL   H44815060   5.455   4.287   6.435 -3.3970  0.0445  0.1267
   27MOL   H44915061   5.514   4.182   6.566  1.0351 -0.3863 -0.7352
   27MOL   O45015062   5.469   3.821   6.292 -0.3587  0.6512 -0.1984
   27MOL   C45115063   5.462   3.700   6.219  0.1217  0.0960  0.1403
   27MOL   C45215064   5.531   3.593   6.302  0.6915  1.0095  0.2916
   27MOL   O45315065   5.481   3.460   6.265  0.1217  0.2045  0.2161
   27MOL   C45415066   5.687   3.582   6.301  0.1472  0.1744 -0.0849
   27MOL   C45515067   5.734   3.461   6.392 -1.1623  0.2348  0.2045
   27MOL   C45615068   5.890   3.461   6.421 -0.7240 -0.4893  0.0006
   27MOL   O45715069   5.914   3.358   6.516 -0.1684 -0.5631  0.0407
   27MOL   C45815070   5.949   3.588   6.473 -0.4893  0.2705 -0.2039
   27MOL   C45915071   6.101   3.589   6.509  0.1424  0.2766 -0.1947
   27MOL   C46015072   5.913   3.696   6.370 -0.0090  0.2309 -0.0703
   27MOL   C46115073   5.760   3.707   6.358  0.4967  0.2580 -0.3098
   27MOL   H46215074   5.511   3.707   6.122  0.9465  3.0021  0.7170
   27MOL   H46315075   5.365   3.678   6.173  0.0293  1.1394 -0.1834
   27MOL   H46415076   5.497   3.597   6.406 -2.1567 -0.1121 -0.5542
   27MOL   H46515077   5.398   3.454   6.308 -0.1097  2.7978  0.2411
   27MOL   H46615078   5.721   3.567   6.199  1.1310  0.6802  0.1573
   27MOL   H46715079   5.680   3.469   6.487 -1.7597  0.2635 -0.1329
   27MOL   H46815080   5.707   3.367   6.344  0.6243 -1.3667  2.2249
   27MOL   H46915081   5.941   3.431   6.330  0.2807 -0.6510  0.6072
   27MOL   H47015082   5.841   3.300   6.525 -1.4070  0.9633  0.1389
   27MOL   H47115083   5.893   3.615   6.563  3.6651  0.1070  2.5612
   27MOL   H47215084   6.121   3.649   6.598 -3.3866 -0.3830  1.1184
   27MOL   H47315085   6.124   3.483   6.522 -0.4297  0.2380  0.5494
   27MOL   H47415086   5.951   3.675   6.270  3.4036  0.7485  1.0496
   27MOL   H47515087   5.944   3.792   6.411  0.5046  0.2029 -0.3969
   27MOL   H47615088   5.734   3.789   6.290 -0.9209 -0.3790 -0.5556
   27MOL   H47715089   5.719   3.738   6.454 -0.9339  0.3421 -0.9244
   27MOL   O47815090   6.183   3.644   6.398  0.2901  0.5038 -0.2206
   27MOL   C47915091   6.284   3.725   6.459 -0.3416 -0.0846 -0.6428
   27MOL   C48015092   6.385   3.784   6.362 -0.1620  0.4212  0.0407
   27MOL   O48115093   6.439   3.674   6.297 -0.3081  0.3724 -0.5703
   27MOL   C48215094   6.328   3.887   6.257  0.7218  0.1088  0.2160
   27MOL   C48315095   6.207   3.841   6.177  0.2736 -0.3024 -0.2824
   27MOL   C48415096   6.156   3.945   6.068 -0.4758  0.6399  0.8310
   27MOL   O48515097   6.059   3.893   5.984 -0.2550  0.5902 -0.3508
   27MOL   C48615098   6.280   3.997   5.983  0.1412  0.5708 -0.0705
   27MOL   C48715099   6.245   4.105   5.885 -0.2139 -0.2595 -0.0328
   27MOL   C48815100   6.399   4.028   6.064 -0.0942 -0.0487  0.6783
   27MOL   C48915101   6.438   3.929   6.163  0.3432 -0.0599 -0.1066
   27MOL   H49015102   6.330   3.665   6.538 -0.1363  1.6068  0.5551
   27MOL   H49115103   6.230   3.810   6.501 -2.3650 -0.8692 -1.5612
   27MOL   H49215104   6.460   3.832   6.424 -1.2113  1.6424  0.3918
   27MOL   H49315105   6.362   3.618   6.290  0.8327 -1.6574  2.4314
   27MOL   H49415106   6.292   3.972   6.316  0.8886  1.9514 -2.2917
   27MOL   H49515107   6.239   3.758   6.114 -1.3896 -1.7839  0.7696
   27MOL   H49615108   6.128   3.806   6.243  1.5398  0.4818  1.7014
   27MOL   H49715109   6.110   4.031   6.118 -1.0031  0.2855  0.9562
   27MOL   H49815110   5.977   3.939   5.997 -0.3719  0.1785  0.3566
   27MOL   H49915111   6.316   3.921   5.914  0.0235 -1.1304  1.7022
   27MOL   H50015112   6.306   4.118   5.795  0.5642  2.2567  0.7990
   27MOL   H50115113   6.142   4.096   5.848  0.7544  0.4881 -3.1087
   27MOL   H50215114   6.368   4.112   6.127 -2.9219 -0.1943 -0.4636
   27MOL   H50315115   6.484   4.055   6.002 -1.1514 -0.2383 -0.8676
   27MOL   H50415116   6.524   3.963   6.221  1.1652  0.6583 -1.7441
   27MOL   H50515117   6.478   3.845   6.106 -1.6265 -2.1044  1.4209
   27MOL   O50615118   6.252   4.228   5.950 -0.5463  0.6495  0.0065
   27MOL   C50715119   6.187   4.329   5.887  0.8814  1.0212 -0.9493
   27MOL   C50815120   6.207   4.447   5.974  0.9189 -0.5057  0.1035
   27MOL   O50915121   6.324   4.508   5.927 -0.3143  0.1936 -0.3031
   27MOL   C51015122   6.095   4.559   5.949 -0.0613 -0.1775  0.4724
   27MOL   C51115123   6.069   4.611   5.808  0.3222 -0.0711 -0.2318
   27MOL   C51215124   5.953   4.711   5.802 -0.1368  0.4867 -0.3417
   27MOL   O51315125   5.938   4.748   5.664 -0.3635 -0.8532  0.9501
   27MOL   C51415126   5.973   4.827   5.896  1.0268  0.7386  0.1362
   27MOL   C51515127   5.874   4.951   5.873 -0.0282 -0.4838  0.4244
   27MOL   C51615128   5.982   4.766   6.034 -0.1414 -0.1383 -0.1247
   27MOL   C51715129   6.106   4.677   6.053 -0.3076  0.0716 -0.3377
   27MOL   H51815130   6.081   4.304   5.886  0.7275  1.4813  1.2436
   27MOL   H51915131   6.208   4.329   5.780  0.7087 -1.4482 -1.0265
   27MOL   H52015132   6.224   4.411   6.075  1.2406  0.8313  0.5279
   27MOL   H52115133   6.385   4.436   5.927 -0.1401  0.3409 -0.7699
   27MOL   H52215134   6.007   4.502   5.980 -0.6982  0.2325 -0.5687
   27MOL   H52315135   6.156   4.658   5.763  0.3354 -1.6011 -1.8756
   27MOL   H52415136   6.036   4.525   5.750 -0.1865 -0.0158 -0.0276
   27MOL   H52515137   5.871   4.655   5.847 -1.0967  1.3793 -0.9463
   27MOL   H52615138   5.915   4.668   5.620  0.1265  0.6116 -2.0733
   27MOL   H52715139   6.073   4.865   5.877  1.2889  0.3828  0.7978
   27MOL   H52815140   5.918   5.029   5.936  0.8770 -1.8068  1.4815
   27MOL   H52915141   5.870   4.978   5.768  0.4101  1.7005  0.9498
   27MOL   H53015142   5.892   4.715   6.069 -0.0477 -0.2580 -0.0595
   27MOL   H53115143   5.983   4.856   6.097  0.8264  0.2083 -0.6389
   27MOL   H53215144   6.114   4.643   6.156  0.9066 -0.8073 -0.7018
   27MOL   H53315145   6.198   4.732   6.036 -0.6304  0.4835 -0.7459
   27MOL   O53415146   5.740   4.931   5.913  0.8914 -0.8479 -0.0800
   27MOL   C53515147   5.658   5.045   5.924 -0.2949  0.5694 -0.2843
   27MOL   C53615148   5.523   4.985   5.918 -0.5708  1.0650  0.7147
   27MOL   O53715149   5.485   4.899   6.025 -0.2085 -0.1177 -0.2113
   27MOL   C53815150   5.416   5.084   5.887 -0.2586 -0.0974 -0.1659
   27MOL   C53915151   5.365   5.162   6.012 -0.5836 -0.8109 -0.0743
   27MOL   C54015152   5.245   5.256   5.973 -0.6469 -0.4433 -0.3879
   27MOL   O54115153   5.188   5.307   6.089  0.3742 -0.1803  0.4335
   27MOL   C54215154   5.127   5.170   5.915 -0.0668 -0.7299 -0.7179
   27MOL   C54315155   5.008   5.262   5.886  0.3192 -0.4713  0.2756
   27MOL   C54415156   5.188   5.107   5.784 -0.4885 -0.2095 -0.5961
   27MOL   C54515157   5.295   5.007   5.825  0.0130 -0.2310  0.3696
   27MOL   H54615158   5.672   5.123   5.849 -0.4055 -0.5147 -1.4297
   27MOL   H54715159   5.659   5.093   6.022  1.0149 -0.5995  0.2963
   27MOL   H54815160   5.520   4.921   5.829  2.9071  0.5721  0.9117
   27MOL   H54915161   5.560   4.843   6.039 -0.4958 -0.0598  1.7468
   27MOL   H55015162   5.462   5.147   5.811  3.7614 -1.4095  1.0769
   27MOL   H55115163   5.332   5.091   6.088 -0.5224 -1.0182 -0.2421
   27MOL   H55215164   5.453   5.213   6.051  0.4919 -1.9669 -0.9769
   27MOL   H55315165   5.269   5.334   5.902 -0.1687  0.3033  0.5943
   27MOL   H55415166   5.143   5.237   6.134 -1.0689  0.1351 -0.4794
   27MOL   H55515167   5.100   5.093   5.988 -2.9980  2.3196  1.5746
   27MOL   H55615168   4.939   5.210   5.820 -2.8123  2.9659  0.6896
   27MOL   H55715169   4.943   5.270   5.973 -0.7529 -1.2164 -0.4411
   27MOL   H55815170   5.231   5.180   5.716 -0.3086  1.0443  0.8537
   27MOL   H55915171   5.099   5.067   5.736 -0.2334 -1.9227  0.3253
   27MOL   H56015172   5.322   4.946   5.739 -2.0234 -1.9453  0.8950
   27MOL   H56115173   5.245   4.938   5.892 -1.2462 -0.0887 -0.4050
   27MOL   H56215174   5.046   5.352   5.838 -2.4480  1.4748  1.5946
   28MOL     O115175   2.633   6.754   6.593  0.7356  0.2560  0.0268
   28MOL     C215176   2.712   6.777   6.712  0.1888 -0.3683  0.5314
   28MOL     C315177   2.668   6.698   6.834 -0.5265  0.0554 -0.3547
   28MOL     O415178   2.731   6.571   6.807 -0.5565  0.2609 -0.4546
   28MOL     C515179   2.715   6.728   6.980  0.1487  0.0595  0.5253
   28MOL     C615180   2.865   6.709   7.007 -0.0510 -0.1278  0.0169
   28MOL     C715181   2.898   6.752   7.156 -0.8467  0.6261 -0.1568
   28MOL     O815182   3.038   6.736   7.186  0.3286  0.0299 -0.1984
   28MOL     C915183   2.820   6.665   7.261 -0.7666  0.1445  0.3678
   28MOL    C1015184   2.852   6.700   7.411  0.2756  0.6320  0.3906
   28MOL    C1115185   2.671   6.662   7.232  0.4194  0.3485  0.2989
   28MOL    C1215186   2.636   6.635   7.084  0.9126  0.2262 -0.1302
   28MOL    H1315187   2.712   6.882   6.741  0.3440  0.3482 -1.9730
   28MOL    H1415188   2.818   6.765   6.688  0.3179  0.1208  0.8618
   28MOL    H1515189   2.559   6.691   6.841 -0.4329 -1.7979 -0.3959
   28MOL    H1615190   2.773   6.578   6.722  2.4120  0.7273  0.9804
   28MOL    H1715191   2.695   6.834   6.993  2.4695  0.4495  0.9666
   28MOL    H1815192   2.913   6.616   6.980  1.2425  0.7067 -0.5831
   28MOL    H1915193   2.918   6.786   6.951 -1.7040  1.6989  0.8671
   28MOL    H2015194   2.854   6.852   7.161 -1.7300  0.1330  2.5586
   28MOL    H2115195   3.053   6.645   7.204  0.9450 -0.3133 -2.3496
   28MOL    H2215196   2.841   6.559   7.253  0.7828  0.5146 -0.7711
   28MOL    H2315197   2.805   6.631   7.482  1.8412 -0.2650  0.5814
   28MOL    H2415198   2.960   6.693   7.422  0.2423 -0.2220  0.2460
   28MOL    H2515199   2.634   6.762   7.258  1.0952  1.1614 -1.6997
   28MOL    H2615200   2.621   6.596   7.302  0.4556 -0.2136 -0.2071
   28MOL    H2715201   2.531   6.645   7.059  1.3090  0.6067 -1.7319
   28MOL    H2815202   2.675   6.534   7.073 -0.9022 -0.3387 -1.6785
   28MOL    H2915203   2.621   6.837   6.550  0.6444  1.8935  3.0605
   28MOL    O3015204   2.805   6.829   7.419  0.2493  0.2923 -0.1607
   28MOL    C3115205   2.862   6.909   7.529 -0.2805  0.1662  0.0818
   28MOL    C3215206   2.846   7.061   7.492  0.3131 -0.1172 -0.6183
   28MOL    O3315207   2.707   7.067   7.462 -0.1353 -0.2486 -0.1380
   28MOL    C3415208   2.881   7.152   7.613 -0.0651  0.7635  0.1713
   28MOL    C3515209   2.846   7.304   7.581 -0.0269  0.1496  0.1972
   28MOL    C3615210   2.876   7.393   0.059  0.1469  0.1734  0.3455
   28MOL    O3715211   2.844   7.522   0.026 -0.0157  0.0144 -0.2477
   28MOL    C3815212   3.020   7.394   0.102  0.0574  0.1950  0.1209
   28MOL    C3915213   3.044   7.474   0.234  0.7519 -0.9359  0.5209
   28MOL    C4015214   3.060   7.248   0.138 -0.9780  0.4547 -0.3229
   28MOL    C4115215   3.030   7.146   0.031 -0.2749  0.6382 -0.1339
   28MOL    H4215216   2.969   6.893   7.541  0.4337  3.5993 -1.2073
   28MOL    H4315217   2.815   6.888   7.625  0.1243  0.5116  0.3537
   28MOL    H4415218   2.900   7.084   7.400 -0.2964 -0.0663 -0.9661
   28MOL    H4515219   2.677   6.979   7.444  0.0753 -0.7152  1.6241
   28MOL    H4615220   2.827   7.129   0.075 -0.2523 -0.3871 -0.2241
   28MOL    H4715221   2.898   7.334   7.490  3.5210  0.0158  2.0599
   28MOL    H4815222   2.739   7.301   7.564  0.1579 -1.5854 -0.7435
   28MOL    H4915223   2.820   7.363   0.148  0.1084  1.4754  0.7750
   28MOL    H5015224   2.778   7.553   0.086  3.9610  1.7183  3.4541
   28MOL    H5115225   3.089   7.432   0.026 -1.4621 -1.0442 -1.9253
   28MOL    H5215226   3.149   7.474   0.261  1.2181  0.6546 -1.1684
   28MOL    H5315227   3.034   7.578   0.204  2.6962 -0.5708  1.1176
   28MOL    H5415228   3.001   7.222   0.227 -1.8369 -2.2455 -1.6221
   28MOL    H5515229   3.166   7.251   0.159 -0.7967  0.6859 -1.2786
   28MOL    H5615230   3.041   7.045   0.071 -1.0967  0.7919  0.5019
   28MOL    H5715231   3.103   7.168   7.583  0.6931 -0.3429  0.4968
   28MOL    O5815232   2.973   7.428   0.346  0.2575  0.1149 -0.3253
   28MOL    C5915233   2.992   7.493   0.468 -0.3695 -0.0099  0.0978
   28MOL    C6015234   2.872   7.466   0.565 -0.0333  0.2530 -0.1909
   28MOL    O6115235   2.914   7.475   0.704  0.3065 -0.1616  0.2835
   28MOL    C6215236   2.746   7.553   0.535 -0.1773 -0.0507  0.2085
   28MOL    C6315237   2.722   7.581   0.382 -0.6017  0.8731 -0.3444
   28MOL    C6415238   2.606   0.045   0.355  0.0238  0.7779 -0.6651
   28MOL    O6515239   2.591   0.062   0.213 -0.1019  0.9984  0.6234
   28MOL    C6615240   2.645   0.184   0.424 -0.3485  0.8097  0.8463
   28MOL    C6715241   2.547   0.297   0.391 -0.0257  0.0067  0.5679
   28MOL    C6815242   2.651   0.160   0.573 -0.5977 -0.4339  0.2591
   28MOL    C6915243   2.760   0.060   0.609  0.7719 -0.3805  0.0971
   28MOL    H7015244   2.996   7.599   0.443 -1.6075  0.1274  0.4648
   28MOL    H7115245   3.088   7.471   0.516 -0.0455 -0.5665 -0.7902
   28MOL    H7215246   2.838   7.363   0.553 -0.7114  0.2773  1.4869
   28MOL    H7315247   3.009   7.467   0.705  0.4645  1.4671  1.4803
   28MOL    H7415248   2.665   7.496   0.580 -0.5199  1.8174  2.0218
   28MOL    H7515249   2.806   7.623   0.327 -1.7014  2.4313 -0.8633
   28MOL    H7615250   2.700   7.490   0.325  1.8443  0.0232  0.0219
   28MOL    H7715251   2.511   0.010   0.397 -0.2777  1.7723 -0.5168
   28MOL    H7815252   2.540   7.616   0.188  2.7639 -1.6533  2.4471
   28MOL    H7915253   2.735   0.223   0.378  0.1646 -0.8984  0.3642
   28MOL    H8015254   2.537   0.319   0.285 -1.0215 -0.6821  0.5178
   28MOL    H8115255   2.454   0.243   0.406 -0.6109  0.7639 -0.3081
   28MOL    H8215256   2.557   0.132   0.620 -0.5352 -0.0901  0.5985
   28MOL    H8315257   2.685   0.253   0.619 -1.7746  0.0321  0.2085
   28MOL    H8415258   2.764   0.057   0.718  3.0642  3.2823  0.1943
   28MOL    H8515259   2.849   0.114   0.576  0.2302 -0.2697 -1.2135
   28MOL    O8615260   2.571   0.409   0.463 -0.0286  0.0740 -0.0911
   28MOL    C8715261   2.441   0.482   0.484  0.4163  0.2358 -0.0169
   28MOL    C8815262   2.465   0.582   0.600 -0.4243  0.4145  0.0447
   28MOL    O8915263   2.552   0.677   0.546 -0.2765 -0.3838 -0.4419
   28MOL    C9015264   2.342   0.651   0.669  0.0234  0.1218  0.3496
   28MOL    C9115265   2.259   0.740   0.575 -0.2287 -0.5076 -0.3016
   28MOL    C9215266   2.148   0.830   0.638  0.3323 -0.1623  0.0560
   28MOL    O9315267   2.082   0.920   0.542  0.0250  0.0348  0.2858
   28MOL    C9415268   2.201   0.911   0.756  0.1194  0.1600 -0.5261
   28MOL    C9515269   2.077   0.972   0.835 -0.0406 -0.4681 -0.6871
   28MOL    C9615270   2.264   0.816   0.860  0.6760 -0.0779 -0.2575
   28MOL    C9715271   2.381   0.731   0.804  0.3969 -0.0194  0.2566
   28MOL    H9815272   2.377   0.404   0.525 -0.7015  0.9804 -0.3298
   28MOL    H9915273   2.389   0.524   0.398 -2.7325  0.5951  1.9799
   28MOL   H10015274   2.530   0.528   0.669  0.0907  0.7369 -0.1879
   28MOL   H10115275   2.605   0.627   0.486 -0.7753  0.8273 -1.9480
   28MOL   H10215276   2.268   0.575   0.693  0.1936 -0.3582 -0.5921
   28MOL   H10315277   2.339   0.811   0.551 -1.7085  1.7914  1.3653
   28MOL   H10415278   2.228   0.690   0.483 -1.1134 -2.0485  0.8234
   28MOL   H10515279   2.062   0.769   0.666  1.1188 -1.0727  0.5363
   28MOL   H10615280   2.144   0.986   0.515  1.1591 -1.9359 -2.0908
   28MOL   H10715281   2.267   0.990   0.721 -0.7028  1.8510  1.6257
   28MOL   H10815282   1.999   0.992   0.762  1.3171 -1.6308 -2.4801
   28MOL   H10915283   2.019   0.912   0.905  2.8458 -1.7352  0.6584
   28MOL   H11015284   2.193   0.739   0.891  0.9213 -0.4405 -0.6050
   28MOL   H11115285   2.283   0.864   0.956  0.2075  1.5773 -0.9838
   28MOL   H11215286   2.426   0.665   0.879  0.4677  0.8747  0.9997
   28MOL   H11315287   2.458   0.804   0.780  0.4102  0.6317  2.2283
   28MOL   O11415288   2.134   1.091   0.895  0.4721  0.2278  0.2545
   28MOL   C11515289   2.040   1.157   0.983 -0.0874  0.1691 -0.1873
   28MOL   C11615290   1.919   1.220   0.923 -0.5500  0.7949  0.2353
   28MOL   O11715291   1.845   1.287   1.026  0.1242  0.5342  0.0139
   28MOL   C11815292   1.935   1.319   0.808 -0.0837  0.2731 -0.0935
   28MOL   C11915293   1.986   1.257   0.673  0.3974  0.5903  0.2609
   28MOL   C12015294   2.009   1.365   0.567  0.1754 -0.1361  0.3245
   28MOL   O12115295   2.065   1.318   0.446  0.0515  0.2429  0.1442
   28MOL   C12215296   2.092   1.481   0.627  0.5320  0.1034  0.5175
   28MOL   C12315297   2.131   1.584   0.514  0.0161 -0.2312 -0.1052
   28MOL   C12415298   2.021   1.553   0.736  0.0948 -0.1050 -0.1346
   28MOL   C12515299   2.003   1.451   0.852  0.4779 -0.0127  0.3725
   28MOL   H12615300   2.101   1.231   1.034 -2.2517  0.2222  2.4313
   28MOL   H12715301   2.020   1.083   1.060  2.7127 -0.5792 -0.1325
   28MOL   H12815302   1.852   1.142   0.887 -0.6877  0.7502  0.5825
   28MOL   H12915303   1.903   1.331   1.086 -2.1373  1.2083  1.7919
   28MOL   H13015304   1.835   1.356   0.785  1.2338  2.5768 -2.4854
   28MOL   H13115305   2.082   1.210   0.694  0.2694  0.0383 -0.3719
   28MOL   H13215306   1.921   1.176   0.640 -0.7059  0.4419  2.7063
   28MOL   H13315307   1.909   1.403   0.548  1.1476  2.5666  0.5262
   28MOL   H13415308   2.010   1.247   0.417  0.7985 -0.5741  0.6966
   28MOL   H13515309   2.189   1.451   0.667  1.6361  1.5765 -0.9785
   28MOL   H13615310   2.186   1.531   0.436  2.0002 -1.2538  1.9344
   28MOL   H13715311   2.049   1.644   0.475 -1.4342 -1.2868  1.2852
   28MOL   H13815312   1.927   1.584   0.692  0.0486 -1.8007 -1.2740
   28MOL   H13915313   2.075   1.646   0.754 -0.7358  0.7477 -1.9520
   28MOL   H14015314   1.956   1.499   0.938  1.0982 -0.8374  1.1773
   28MOL   H14115315   2.105   1.423   0.876 -0.0227  0.5227  3.3537
   28MOL   O14215316   2.219   1.680   0.563  0.0435  0.1165 -0.1310
   28MOL   C14315317   2.353   1.639   0.592  0.0287  0.8357  0.3158
   28MOL   C14415318   2.424   1.744   0.683  0.1897  0.2075  0.7390
   28MOL   O14515319   2.356   1.731   0.806  0.3781  0.1331 -0.1003
   28MOL   C14615320   2.573   1.718   0.712 -0.3433  0.5198 -0.6944
   28MOL   C14715321   2.626   1.823   0.817 -0.6766 -0.3140  0.7171
   28MOL   C14815322   2.774   1.820   0.828 -0.2368 -0.5562  0.6517
   28MOL   O14915323   2.797   1.934   0.909 -0.3473  0.2725  0.1951
   28MOL   C15015324   2.855   1.835   0.682 -0.2728  0.2310 -0.7621
   28MOL   C15115325   3.006   1.844   0.710  0.5319 -0.0680 -0.5121
   28MOL   C15215326   2.812   1.725   0.594  0.0730  0.1379  0.2977
   28MOL   C15315327   2.657   1.726   0.585  0.1634  0.4613  0.1413
   28MOL   H15415328   2.408   1.638   0.498 -2.0743  1.9145 -0.9538
   28MOL   H15515329   2.365   1.541   0.638 -1.1242  0.9678  0.9339
   28MOL   H15615330   2.409   1.848   0.654 -0.3737  0.0210  0.3419
   28MOL   H15715331   2.264   1.725   0.782 -0.0317  1.0745  1.2019
   28MOL   H15815332   2.592   1.622   0.758  1.6801  0.6436 -1.2001
   28MOL   H15915333   2.605   1.924   0.783 -1.4824 -0.8555 -0.4511
   28MOL   H16015334   2.596   1.825   0.922  2.2531  1.0512  1.5590
   28MOL   H16115335   2.800   1.737   0.894  0.2229 -0.0596  1.1058
   28MOL   H16215336   2.878   1.915   0.954 -0.5101 -0.5330  0.1485
   28MOL   H16315337   2.827   1.929   0.633 -0.1989  1.9182  2.2831
   28MOL   H16415338   3.041   1.941   0.744 -1.8761  0.3526  0.8986
   28MOL   H16515339   3.033   1.777   0.792 -0.9571 -1.5048 -1.1598
   28MOL   H16615340   2.851   1.629   0.630  1.5445  1.1367  1.4184
   28MOL   H16715341   2.851   1.736   0.493 -0.8975 -1.5900 -0.2994
   28MOL   H16815342   2.632   1.641   0.522  0.1401  2.0845 -2.0736
   28MOL   H16915343   2.634   1.811   0.521 -1.5036  1.4479  2.0127
   28MOL   O17015344   3.078   1.817   0.588  0.1984 -0.5320 -0.1421
   28MOL   C17115345   3.186   1.905   0.562 -0.0515  0.5160  0.2865
   28MOL   C17215346   3.293   1.841   0.491  0.2023  0.9222  0.6084
   28MOL   O17315347   3.396   1.937   0.468  0.1681 -0.0556  0.7390
   28MOL   C17415348   3.343   1.720   0.566 -0.1677  0.0181 -0.6696
   28MOL   C17515349   3.397   1.753   0.702  0.1241 -0.3749 -0.7331
   28MOL   C17615350   3.445   1.642   0.784 -0.1526  0.3865  0.3655
   28MOL   O17715351   3.499   1.687   0.908 -0.0042  0.8805 -0.1897
   28MOL   C17815352   3.541   1.554   0.711 -0.4116 -0.3070  0.1266
   28MOL   C17915353   3.596   1.433   0.789 -0.2735  0.5526 -0.4119
   28MOL   C18015354   3.496   1.510   0.568  0.6525  0.3134  0.9620
   28MOL   C18115355   3.443   1.637   0.481  0.1867 -0.3650 -0.0583
   28MOL   H18215356   3.227   1.956   0.649  1.0558 -0.9876  0.6545
   28MOL   H18315357   3.132   1.978   0.500 -0.9314  0.0047  0.4456
   28MOL   H18415358   3.247   1.824   0.393  1.0126  0.8169  0.2402
   28MOL   H18515359   3.364   1.981   0.391 -0.7529  0.2255  1.2636
   28MOL   H18615360   3.259   1.652   0.576 -0.6122  0.5232 -0.9349
   28MOL   H18715361   3.480   1.823   0.703 -0.0593 -0.1538  0.6725
   28MOL   H18815362   3.331   1.815   0.763  1.8227 -1.1372  2.0259
   28MOL   H18915363   3.358   1.580   0.804 -0.7891  0.9793 -0.4872
   28MOL   H19015364   3.566   1.625   0.932 -0.6746 -0.3791 -1.5050
   28MOL   H19115365   3.631   1.614   0.705 -0.5710 -0.1595 -0.7413
   28MOL   H19215366   3.510   1.368   0.800 -1.2366  1.9764  0.6940
   28MOL   H19315367   3.673   1.372   0.740  0.3341  1.4788 -0.6246
   28MOL   H19415368   3.418   1.434   0.579  0.1644  0.7883  0.8154
   28MOL   H19515369   3.580   1.460   0.519  0.3206  0.0037  0.6987
   28MOL   H19615370   3.397   1.627   0.383 -0.3569 -0.3897  0.1938
   28MOL   H19715371   3.528   1.701   0.457  1.1205 -2.0047 -1.2236
   28MOL   O19815372   3.642   1.477   0.922  0.0887  0.4875  0.2920
   28MOL   C19915373   3.671   1.367   1.002 -0.5067 -0.1384 -0.6403
   28MOL   C20015374   3.653   1.425   1.140  0.7260  0.3576 -0.6888
   28MOL   O20115375   3.627   1.323   1.240 -0.0935 -0.2943  0.3097
   28MOL   C20215376   3.773   1.516   1.185  0.1949 -0.9894 -0.5557
   28MOL   C20315377   3.904   1.444   1.218 -0.2252 -0.2911  0.2446
   28MOL   C20415378   4.020   1.536   1.253 -0.2817 -0.2700  0.4209
   28MOL   O20515379   4.124   1.450   1.299 -0.7205 -0.8599 -0.1249
   28MOL   C20615380   3.978   1.646   1.363 -0.3549  0.6611  0.5064
   28MOL   C20715381   4.083   1.762   1.368  0.5968  0.1111  0.2048
   28MOL   C20815382   3.848   1.712   1.324  0.9424  0.0865  0.0487
   28MOL   C20915383   3.736   1.614   1.303  0.0325  0.4825  0.2259
   28MOL   H21015384   3.767   1.317   0.993 -0.7393 -0.6277 -0.4199
   28MOL   H21115385   3.611   1.278   0.985 -0.3260 -0.1182 -1.4116
   28MOL   H21215386   3.567   1.491   1.146  2.3847  2.3899  2.9874
   28MOL   H21315387   3.552   1.272   1.214 -0.8227  0.8567  0.0899
   28MOL   H21415388   3.789   1.589   1.105  0.9727 -0.3618  0.1626
   28MOL   H21515389   3.889   1.362   1.289  0.5344 -0.8853 -0.2678
   28MOL   H21615390   3.949   1.389   1.136  2.9469 -1.2987  2.5575
   28MOL   H21715391   4.054   1.585   1.162 -0.6196  2.2396  1.6149
   28MOL   H21815392   4.086   1.388   1.360 -1.5192 -0.5464 -0.2990
   28MOL   H21915393   3.969   1.593   1.458  0.4575 -0.4727 -0.0443
   28MOL   H22015394   4.180   1.717   1.386  0.3130 -0.7975 -0.4511
   28MOL   H22115395   4.080   1.802   1.267 -0.6385  0.5556  0.4097
   28MOL   H22215396   3.863   1.779   1.239  1.5933  0.3341  0.3498
   28MOL   H22315397   3.823   1.779   1.407  0.9375 -0.4921  0.5160
   28MOL   H22415398   3.639   1.653   1.271  0.2865  0.9736  0.0621
   28MOL   H22515399   3.724   1.554   1.394 -0.0886  1.4522  0.8621
   28MOL   O22615400   4.051   1.865   1.463 -0.1341 -0.0908  0.3087
   28MOL   C22715401   4.159   1.958   1.468  0.3925 -0.2282  0.4367
   28MOL   C22815402   4.136   2.025   1.601  0.3960  0.4421 -0.0970
   28MOL   O22915403   4.173   1.945   1.716  0.3590 -0.4848 -0.8331
   28MOL   C23015404   4.212   2.160   1.601  0.6159 -0.2250 -0.8862
   28MOL   C23115405   4.362   2.145   1.585  0.1934  0.3361  0.5568
   28MOL   C23215406   4.446   2.284   1.588 -0.2696  0.0168 -0.0692
   28MOL   O23315407   4.581   2.257   1.569  0.2775  0.1096 -0.1436
   28MOL   C23415408   4.416   2.362   1.712  0.2844  0.0479  0.1466
   28MOL   C23515409   4.476   2.512   1.724 -0.4112 -0.6018 -0.4028
   28MOL   C23615410   4.261   2.375   1.735  0.2804  0.1942  0.1101
   28MOL   C23715411   4.191   2.242   1.736  0.4922  0.2754 -0.0087
   28MOL   H23815412   4.154   2.010   1.372 -0.2423 -0.7327  0.1970
   28MOL   H23915413   4.250   1.899   1.481  0.3816 -0.2714  0.3135
   28MOL   H24015414   4.032   2.058   1.605  0.3068  0.3015 -1.1467
   28MOL   H24115415   4.120   1.868   1.704  1.7691 -1.5913 -0.1363
   28MOL   H24215416   4.183   2.223   1.517 -0.4824  1.3326  0.6499
   28MOL   H24315417   4.403   2.080   1.662 -3.0486 -0.6890  1.5041
   28MOL   H24415418   4.391   2.100   1.490  0.3898 -0.7745  1.1320
   28MOL   H24515419   4.410   2.342   1.502  0.2982 -0.0959 -0.3853
   28MOL   H24615420   4.606   2.193   1.634 -1.9428 -0.2246  0.4087
   28MOL   H24715421   4.456   2.300   1.792 -0.0347 -0.2530  0.0716
   28MOL   H24815422   4.457   2.549   1.825  1.7153 -1.9159  0.5342
   28MOL   H24915423   4.584   2.504   1.712 -0.1815  0.6760  0.5903
   28MOL   H25015424   4.220   2.450   1.666 -2.2259 -0.3704  0.9126
   28MOL   H25115425   4.249   2.418   1.834  1.4444  1.0664 -0.1251
   28MOL   H25215426   4.086   2.262   1.755  0.3097 -0.4160 -0.2714
   28MOL   H25315427   4.235   2.205   1.828 -0.5185  1.9430  1.1721
   28MOL   O25415428   4.422   2.607   1.629 -0.3794  0.2625 -0.2464
   28MOL   C25515429   4.330   2.703   1.680 -1.3635 -0.1250  0.1542
   28MOL   C25615430   4.405   2.814   1.751  0.0065  0.0797 -0.1603
   28MOL   O25715431   4.485   2.880   1.659 -0.3992 -0.7521  0.0711
   28MOL   C25815432   4.323   2.930   1.823  0.1480  0.1954  0.3139
   28MOL   C25915433   4.259   2.873   1.947 -0.6317 -0.5946 -0.1451
   28MOL   C26015434   4.174   2.985   2.010 -0.6107 -0.6163 -0.9449
   28MOL   O26115435   4.110   2.935   2.129  0.2531  0.3740  0.8298
   28MOL   C26215436   4.066   3.050   1.920 -0.2532 -0.1202 -0.4692
   28MOL   C26315437   3.997   3.164   1.990 -0.6552  0.1547  0.0969
   28MOL   C26415438   4.140   3.098   1.796  0.7760 -0.1587  0.1880
   28MOL   C26515439   4.214   2.982   1.733  0.6244 -0.4698  0.2331
   28MOL   H26615440   4.251   2.665   1.746 -2.4295  1.7237 -0.0191
   28MOL   H26715441   4.266   2.741   1.601 -0.4896  1.6210  0.2700
   28MOL   H26815442   4.482   2.787   1.823  0.3507  3.1690  0.7356
   28MOL   H26915443   4.553   2.817   1.641 -0.0141 -0.2023 -0.3888
   28MOL   H27015444   4.379   3.022   1.837 -0.2495  0.5964 -0.6444
   28MOL   H27115445   4.202   2.782   1.927  1.7849 -1.8852 -1.4056
   28MOL   H27215446   4.345   2.841   2.006  1.4220  2.4120 -1.3636
   28MOL   H27315447   4.236   3.063   2.054 -1.3402  0.8797 -2.5355
   28MOL   H27415448   4.043   2.997   2.154 -3.0033 -1.8872 -1.8278
   28MOL   H27515449   3.995   2.974   1.886 -1.3029  0.9806 -0.7803
   28MOL   H27615450   3.935   3.123   2.070 -1.4360  1.4297  0.1652
   28MOL   H27715451   4.070   3.236   2.029  0.5704 -1.0484  0.0597
   28MOL   H27815452   4.214   3.173   1.823  0.8731  0.1366 -0.9120
   28MOL   H27915453   4.077   3.151   1.725  1.3890  1.1823  0.6190
   28MOL   H28015454   4.265   3.017   1.643  0.0202 -0.0555  0.0485
   28MOL   H28115455   4.138   2.913   1.697  0.9769 -0.1202 -1.1876
   28MOL   O28215456   3.916   3.227   1.894 -0.1219 -0.0216 -0.0058
   28MOL   C28315457   3.836   3.331   1.948  0.1444  1.0020 -0.0403
   28MOL   C28415458   3.827   3.447   1.856  0.4073  0.0585  0.1340
   28MOL   O28515459   3.765   3.398   1.740 -0.3520  0.1520  0.8478
   28MOL   C28615460   3.739   3.561   1.910 -0.6028  0.2066 -0.2305
   28MOL   C28715461   3.586   3.533   1.912  0.3993  0.1065  0.0950
   28MOL   C28815462   3.501   3.646   1.981 -0.3104 -0.1297 -0.1301
   28MOL   O28915463   3.366   3.618   1.961  0.0674 -0.2691 -0.4231
   28MOL   C29015464   3.544   3.788   1.928 -0.1695  0.2455 -0.0819
   28MOL   C29115465   3.479   3.905   2.015  0.5686  0.2095  0.0135
   28MOL   C29215466   3.700   3.810   1.913 -0.3566 -0.0765  1.4061
   28MOL   C29315467   3.768   3.697   1.837 -0.7927 -0.2929  0.1962
   28MOL   H29415468   3.880   3.362   2.042  2.2258 -1.5322 -0.1372
   28MOL   H29515469   3.739   3.286   1.970  0.6249 -2.2534 -3.9958
   28MOL   H29615470   3.929   3.474   1.828  1.3714 -0.0308  3.3516
   28MOL   H29715471   3.804   3.314   1.722 -1.3608 -0.0306 -0.4822
   28MOL   H29815472   3.768   3.574   2.015  1.7445  0.2182 -0.8486
   28MOL   H29915473   3.548   3.528   1.811 -0.3749  0.5698  0.3587
   28MOL   H30015474   3.567   3.438   1.962  0.4158  0.7016  1.2523
   28MOL   H30115475   3.513   3.639   2.089 -1.2786  0.8290  0.0513
   28MOL   H30215476   3.301   3.686   1.966 -2.6575 -2.7494 -0.3403
   28MOL   H30315477   3.498   3.802   1.830 -2.2247 -1.0434  0.6568
   28MOL   H30415478   3.375   3.877   2.027 -0.0464  1.7668 -1.5273
   28MOL   H30515479   3.539   3.909   2.106  2.5232  1.1882 -1.2668
   28MOL   H30615480   3.745   3.799   2.012 -2.7611 -0.2038  2.5225
   28MOL   H30715481   3.710   3.905   1.862  0.2388 -1.8801 -1.9410
   28MOL   H30815482   3.876   3.712   1.839 -0.9641  1.0416 -0.0616
   28MOL   H30915483   3.747   3.699   1.731  1.7494  1.1101 -0.3375
   28MOL   O31015484   3.485   4.027   1.937  0.0137  0.0832  0.6380
   28MOL   C31115485   3.441   4.142   2.005 -0.0176 -0.2401 -0.4425
   28MOL   C31215486   3.284   4.168   2.005 -0.1701 -0.1992 -0.0349
   28MOL   O31315487   3.252   4.281   2.074  0.0057 -0.0837  0.3398
   28MOL   C31415488   3.230   4.182   1.857 -0.1031 -0.1183 -0.0546
   28MOL   C31515489   3.074   4.157   1.851 -0.2964 -0.3184 -0.1864
   28MOL   C31615490   3.023   4.191   1.710 -0.3441  0.5693 -0.4899
   28MOL   O31715491   2.884   4.167   1.705  0.1511 -0.4645 -0.1858
   28MOL   C31815492   3.083   4.113   1.599 -0.1703  0.4982  0.2715
   28MOL   C31915493   3.023   4.137   1.461  0.5589  0.2262  0.5435
   28MOL   C32015494   3.230   4.146   1.603 -0.1039 -0.1765 -0.1536
   28MOL   C32115495   3.289   4.102   1.741  0.0884 -0.1026  0.3008
   28MOL   H32215496   3.495   4.221   1.953 -0.6090 -0.0998 -0.8485
   28MOL   H32315497   3.493   4.153   2.100  0.7885 -2.7479 -0.5536
   28MOL   H32415498   3.223   4.088   2.045  0.7578  0.3330  2.5491
   28MOL   H32515499   3.161   4.282   2.099  0.0199  0.3571  0.3823
   28MOL   H32615500   3.242   4.288   1.837  0.4962  0.0579  1.1655
   28MOL   H32715501   3.062   4.052   1.880  0.9593 -0.2738  0.5520
   28MOL   H32815502   3.023   4.204   1.935 -0.1704 -1.7784  0.7389
   28MOL   H32915503   3.032   4.299   1.695 -0.7709  0.5528 -0.8969
   28MOL   H33015504   2.832   4.244   1.686 -1.0504 -1.1779  0.1773
   28MOL   H33115505   3.065   4.007   1.617 -1.8011  0.7875  0.3917
   28MOL   H33215506   3.080   4.076   1.391 -1.5677  1.4208 -2.2949
   28MOL   H33315507   2.922   4.097   1.463  0.2397  0.6949 -2.8166
   28MOL   H33415508   3.243   4.253   1.588  0.0102 -0.1512  0.1287
   28MOL   H33515509   3.275   4.097   1.517 -3.6740 -0.5752 -1.9145
   28MOL   H33615510   3.395   4.117   1.724  0.3524 -1.5373  0.6433
   28MOL   H33715511   3.271   3.998   1.766 -0.1774  0.0534  0.7597
   28MOL   O33815512   3.026   4.269   1.421  0.0707  0.1478 -0.5133
   28MOL   C33915513   2.987   4.282   1.284  0.5174  0.5168  0.1135
   28MOL   C34015514   3.018   4.431   1.247  0.0171 -0.3423  0.2134
   28MOL   O34115515   2.946   4.499   1.339 -0.2452 -0.7963 -0.3205
   28MOL   C34215516   3.164   4.478   1.259  0.7852  0.0622 -0.2135
   28MOL   C34315517   3.180   4.627   1.221 -1.2157  0.0535 -0.6184
   28MOL   C34415518   3.331   4.667   1.242  0.6116  0.3502 -0.9783
   28MOL   O34515519   3.357   4.802   1.207  0.0506 -0.3142  0.8224
   28MOL   C34615520   3.423   4.587   1.157  0.6669  0.3895 -0.0396
   28MOL   C34715521   3.566   4.632   1.157 -0.4330  0.3255  0.3685
   28MOL   C34815522   3.405   4.442   1.196 -0.4262  0.5248 -0.7774
   28MOL   C34915523   3.265   4.385   1.183 -0.4485  0.1197  0.2626
   28MOL   H35015524   2.883   4.258   1.265  0.8092  0.1308 -1.0198
   28MOL   H35115525   3.058   4.220   1.229  0.9227  0.7263  0.3933
   28MOL   H35215526   2.984   4.460   1.148 -1.1903 -2.8804 -0.1571
   28MOL   H35315527   2.985   4.481   1.423  2.4161  0.8872 -1.1398
   28MOL   H35415528   3.193   4.476   1.364 -1.1701  0.9151  0.3785
   28MOL   H35515529   3.143   4.647   1.120  0.0353  1.0743 -0.8836
   28MOL   H35615530   3.109   4.683   1.283  0.9923  1.5203  0.6545
   28MOL   H35715531   3.372   4.653   1.342  0.4145  2.0223 -0.6539
   28MOL   H35815532   3.317   4.818   1.123  2.2591 -1.3871 -0.4863
   28MOL   H35915533   3.387   4.602   1.055 -4.3401  2.0907  1.8384
   28MOL   H36015534   3.620   4.559   1.097 -1.0753 -0.8726  1.2248
   28MOL   H36115535   3.579   4.724   1.099 -3.9612 -0.9497 -2.6371
   28MOL   H36215536   3.440   4.416   1.296 -1.5115  0.1618 -0.4836
   28MOL   H36315537   3.473   4.387   1.130 -0.5895 -0.6444  0.0028
   28MOL   H36415538   3.272   4.291   1.238  0.4708 -0.7621 -1.3318
   28MOL   H36515539   3.240   4.370   1.078  2.2359  1.5842 -0.6206
   28MOL   O36615540   3.611   4.638   1.295 -0.4824  0.3423 -0.3665
   28MOL   C36715541   3.748   4.680   1.308  0.1259 -0.8231 -0.0760
   28MOL   C36815542   3.847   4.570   1.283 -0.0525 -0.3409  0.1100
   28MOL   O36915543   3.981   4.622   1.275  0.2338 -0.3757 -0.1202
   28MOL   C37015544   3.849   4.445   1.386 -0.2494 -0.5790  0.4388
   28MOL   C37115545   3.962   4.340   1.358 -0.0901  0.2917 -0.0500
   28MOL   C37215546   3.959   4.224   1.453  0.5105 -0.0277 -0.1456
   28MOL   O37315547   4.064   4.136   1.439 -0.7363 -0.3838 -0.1906
   28MOL   C37415548   3.828   4.157   1.434  0.1242 -0.0661  0.6608
   28MOL   C37515549   3.801   4.023   1.509 -0.1203 -0.3941  0.5116
   28MOL   C37615550   3.715   4.252   1.471  0.3363 -0.0452 -0.3007
   28MOL   C37715551   3.722   4.373   1.373 -0.7072 -0.1061  0.7310
   28MOL   H37815552   3.762   4.718   1.410 -1.6328 -0.7871  0.1809
   28MOL   H37915553   3.762   4.767   1.244  2.6201 -1.0781  0.0972
   28MOL   H38015554   3.834   4.524   1.185  0.1131  0.7393 -0.4241
   28MOL   H38115555   4.013   4.631   1.364 -1.9170  2.0580  0.4636
   28MOL   H38215556   3.862   4.484   1.487  0.9611  0.4646 -0.1077
   28MOL   H38315557   3.947   4.309   1.255  0.7900 -0.0215 -0.0950
   28MOL   H38415558   4.062   4.383   1.355 -0.9098  2.1287 -1.7122
   28MOL   H38515559   3.957   4.260   1.556  0.0676 -0.0599 -0.1422
   28MOL   H38615560   4.113   4.143   1.519 -1.5326 -0.6137  0.3204
   28MOL   H38715561   3.827   4.136   1.327  0.3607 -3.1586  1.2399
   28MOL   H38815562   3.886   3.956   1.520  0.7847  0.6746  0.0951
   28MOL   H38915563   3.780   4.045   1.614 -2.7813  1.9150 -0.4214
   28MOL   H39015564   3.715   4.286   1.574 -0.0370 -0.6338 -0.1046
   28MOL   H39115565   3.620   4.204   1.449  0.5709  0.0831 -1.6339
   28MOL   H39215566   3.639   4.440   1.395  0.7388  1.4643  1.4891
   28MOL   H39315567   3.705   4.342   1.270  1.1915 -0.2307  0.4403
   28MOL   O39415568   3.698   3.952   1.443 -0.2995 -0.2584 -0.3796
   28MOL   C39515569   3.627   3.848   1.510 -0.1827 -0.3901 -0.1235
   28MOL   C39615570   3.510   3.808   1.407 -0.5651 -0.5254 -0.5738
   28MOL   O39715571   3.548   3.703   1.319 -0.3517 -0.1124  0.5445
   28MOL   C39815572   3.380   3.773   1.479  0.3780  0.1166 -0.1939
   28MOL   C39915573   3.405   3.652   1.568 -0.4624 -0.7459  0.9177
   28MOL   C40015574   3.281   3.618   1.647 -0.0298  0.4853  0.2786
   28MOL   O40115575   3.307   3.499   1.726 -0.0763 -0.8941 -0.5615
   28MOL   C40215576   3.156   3.588   1.560 -0.5587  0.5641 -0.2510
   28MOL   C40315577   3.040   3.567   1.655  0.6841 -0.6554 -0.3079
   28MOL   C40415578   3.133   3.702   1.458  0.2175  1.0932 -0.4133
   28MOL   C40515579   3.265   3.744   1.390  0.2317  0.2796 -0.8181
   28MOL   H40615580   3.595   3.889   1.605 -0.3581  1.9295 -1.1593
   28MOL   H40715581   3.677   3.754   1.535 -0.9759 -0.9512 -0.5892
   28MOL   H40815582   3.482   3.900   1.355 -0.5418  0.5195  1.2147
   28MOL   H40915583   3.621   3.741   1.271 -0.5038 -1.3922 -0.7395
   28MOL   H41015584   3.354   3.856   1.544  1.2154  2.0190 -2.2600
   28MOL   H41115585   3.453   3.571   1.512 -1.0431 -0.1257 -0.4934
   28MOL   H41215586   3.484   3.677   1.638  1.0578 -0.4723 -0.8617
   28MOL   H41315587   3.269   3.709   1.705  1.6828  1.0654 -0.2730
   28MOL   H41415588   3.346   3.525   1.808 -0.3359 -2.6866  0.1678
   28MOL   H41515589   3.179   3.499   1.502  0.1859 -0.9727  2.3360
   28MOL   H41615590   2.953   3.550   1.592  0.5379 -1.4480  0.0940
   28MOL   H41715591   3.058   3.480   1.719 -0.8160 -2.4517 -2.2964
   28MOL   H41815592   3.093   3.791   1.506 -2.3343  0.1652 -0.7463
   28MOL   H41915593   3.057   3.673   1.386 -0.2170  2.7952 -0.6548
   28MOL   H42015594   3.240   3.836   1.338  3.1674  2.0697  0.8400
   28MOL   H42115595   3.279   3.671   1.310 -2.4657  0.1026 -1.2015
   28MOL   O42215596   3.009   3.696   1.712 -0.1201  0.3153  0.1153
   28MOL   C42315597   2.937   3.686   1.838 -0.0989  0.3235  0.6067
   28MOL   C42415598   3.044   3.679   1.948  0.0052  0.1314 -0.5971
   28MOL   O42515599   3.128   3.789   1.931  0.0634  0.4005 -0.4884
   28MOL   C42615600   3.006   3.667   2.100  0.7257  0.7884 -0.8241
   28MOL   C42715601   2.922   3.795   2.129  0.3815  0.1265 -0.2646
   28MOL   C42815602   2.877   3.791   2.276 -0.5214 -0.7209 -0.3710
   28MOL   O42915603   2.818   3.921   2.305 -0.1283  0.2577 -0.2467
   28MOL   C43015604   2.978   3.774   2.388 -0.1978  0.4029 -0.1298
   28MOL   C43115605   2.914   3.742   2.529  0.8067 -0.3200  0.3810
   28MOL   C43215606   3.070   3.653   2.342  0.0143  0.0215  1.0062
   28MOL   C43315607   3.122   3.648   2.201  0.0521 -0.1405  0.3868
   28MOL   H43415608   2.869   3.601   1.849  1.7957 -1.3070  0.0698
   28MOL   H43515609   2.870   3.769   1.858 -0.1722  0.1720  0.9935
   28MOL   H43615610   3.097   3.585   1.927 -0.2445 -0.3046  0.6790
   28MOL   H43715611   3.103   3.823   1.846 -0.9741  0.9898  0.0482
   28MOL   H43815612   2.951   3.575   2.120 -1.3136  2.2102  0.2174
   28MOL   H43915613   2.987   3.883   2.125  2.9686 -1.7682 -1.5994
   28MOL   H44015614   2.836   3.808   2.063 -0.0398  0.3957  0.3367
   28MOL   H44115615   2.796   3.720   2.292 -2.4774  1.4514 -0.4186
   28MOL   H44215616   2.774   3.954   2.228  1.2544 -0.8191 -1.5371
   28MOL   H44315617   3.034   3.867   2.383  1.2650 -0.4228  0.2826
   28MOL   H44415618   2.831   3.804   2.562 -0.0568 -0.2141 -1.9106
   28MOL   H44515619   2.869   3.643   2.522  2.3075 -1.1472  1.9684
   28MOL   H44615620   3.026   3.555   2.361  1.1513 -0.5384  0.8287
   28MOL   H44715621   3.160   3.651   2.403  3.1747 -2.1933 -3.4794
   28MOL   H44815622   3.185   3.561   2.182 -1.5053 -1.1711 -0.2152
   28MOL   H44915623   3.189   3.730   2.179 -2.9771  2.4534  0.4340
   28MOL   O45015624   3.016   3.713   2.627 -1.1672 -0.0971  0.1100
   28MOL   C45115625   3.047   3.825   2.705 -0.1213 -0.2968 -0.8140
   28MOL   C45215626   3.152   3.785   2.804 -0.5354 -0.4425 -0.7681
   28MOL   O45315627   3.178   3.903   2.868  0.0692  0.3843  0.7887
   28MOL   C45415628   3.098   3.684   2.908  0.1733  0.7092  0.4275
   28MOL   C45515629   3.149   3.705   3.055  0.5545  0.4294 -0.5586
   28MOL   C45615630   3.096   3.606   3.155  0.1085 -0.6411  0.4491
   28MOL   O45715631   3.160   3.624   3.283 -0.6242 -0.0556 -0.7983
   28MOL   C45815632   3.096   3.462   3.115  0.3744 -0.1214  0.1465
   28MOL   C45915633   3.011   3.379   3.211 -0.4320 -1.0804  0.4779
   28MOL   C46015634   3.045   3.445   2.971 -0.2189  0.3521 -0.1082
   28MOL   C46115635   3.113   3.538   2.871 -0.0086  0.3037  0.7519
   28MOL   H46215636   2.957   3.848   2.762  0.0883  0.2832 -0.7112
   28MOL   H46315637   3.079   3.905   2.639  0.1109 -0.4732 -0.9182
   28MOL   H46415638   3.245   3.758   2.753 -0.3004 -1.0569 -0.0029
   28MOL   H46515639   3.218   3.956   2.802  1.6869  2.4862  3.3621
   28MOL   H46615640   2.990   3.697   2.908  0.1607  0.7311 -1.0738
   28MOL   H46715641   3.257   3.703   3.064  0.4639 -2.2757  0.4758
   28MOL   H46815642   3.127   3.803   3.097  0.9554 -0.5761  2.1006
   28MOL   H46915643   2.992   3.628   3.179  0.5537  1.5671  0.4498
   28MOL   H47015644   3.254   3.612   3.273 -0.4127  1.0969 -0.3015
   28MOL   H47115645   3.201   3.435   3.126  0.9298  1.9374  0.0844
   28MOL   H47215646   3.029   3.407   3.314 -0.0745  1.0605 -0.1326
   28MOL   H47315647   2.906   3.405   3.198 -0.3177 -0.8989 -0.1398
   28MOL   H47415648   2.937   3.443   2.957  0.0559  0.4447 -2.3466
   28MOL   H47515649   3.070   3.342   2.945 -0.1867  0.0445  1.0782
   28MOL   H47615650   3.069   3.516   2.774  0.5643  1.4761  0.2276
   28MOL   H47715651   3.220   3.525   2.860  0.2096  2.1988  0.5490
   28MOL   O47815652   3.032   3.241   3.190 -0.3207  0.2940 -0.0646
   28MOL   C47915653   2.970   3.175   3.297 -0.0017  0.1296  0.0075
   28MOL   C48015654   3.042   3.043   3.304 -0.4107  0.0198 -0.5407
   28MOL   O48115655   3.161   3.060   3.377 -0.1523 -0.4217  0.1866
   28MOL   C48215656   2.961   2.923   3.373  0.3540 -1.1238  0.1446
   28MOL   C48315657   3.060   2.800   3.379  0.3448  0.0286  0.5329
   28MOL   C48415658   2.994   2.668   3.428 -0.0336  0.1683 -0.4147
   28MOL   O48515659   3.083   2.557   3.421  1.2273 -0.7972 -0.1635
   28MOL   C48615660   2.876   2.623   3.339  0.3573 -0.2788  0.0674
   28MOL   C48715661   2.809   2.490   3.381  0.0116  0.4214 -0.2769
   28MOL   C48815662   2.784   2.743   3.341  0.0947 -0.2594  0.6314
   28MOL   C48915663   2.834   2.882   3.301 -0.8245 -0.5475  0.6974
   28MOL   H49015664   2.863   3.165   3.278  0.6585  1.2342 -4.9401
   28MOL   H49115665   2.974   3.225   3.393  0.2604  0.5334 -0.2125
   28MOL   H49215666   3.071   3.014   3.204  1.6136 -1.0022  0.3111
   28MOL   H49315667   3.187   3.151   3.380 -0.3264 -0.3526 -0.3474
   28MOL   H49415668   2.945   2.953   3.476  4.0380 -0.6158  0.6371
   28MOL   H49515669   3.100   2.783   3.279  1.0589  0.6343  0.7148
   28MOL   H49615670   3.143   2.822   3.446  1.7473  0.4103 -1.3010
   28MOL   H49715671   2.968   2.688   3.532  0.9933 -0.7315  0.0234
   28MOL   H49815672   3.137   2.566   3.498  1.4799  0.2212 -0.4478
   28MOL   H49915673   2.903   2.604   3.235 -1.4803 -1.2231 -0.2410
   28MOL   H50015674   2.888   2.415   3.390 -0.1909  0.2912  0.4160
   28MOL   H50115675   2.756   2.511   3.473 -0.0033 -0.5099 -0.0664
   28MOL   H50215676   2.755   2.745   3.446 -1.0347  1.8500  0.3180
   28MOL   H50315677   2.692   2.717   3.288  0.7633  1.3330 -1.3877
   28MOL   H50415678   2.765   2.960   3.332 -2.6047 -1.4126 -1.0125
   28MOL   H50515679   2.847   2.880   3.193  0.6503 -0.4141  0.8571
   28MOL   O50615680   2.700   2.451   3.289 -0.6180  0.2834 -0.4051
   28MOL   C50715681   2.628   2.337   3.334 -0.5844 -0.0597 -0.1506
   28MOL   C50815682   2.498   2.309   3.248  0.3476  0.3141  0.4275
   28MOL   O50915683   2.402   2.409   3.276  0.2955 -0.1106  0.2824
   28MOL   C51015684   2.528   2.296   3.097 -0.2917 -0.3615 -0.5692
   28MOL   C51115685   2.520   2.432   3.016  0.3845 -0.1244  0.0424
   28MOL   C51215686   2.532   2.411   2.863  0.5601  0.5464 -0.1082
   28MOL   O51315687   2.509   2.534   2.793 -0.2175  0.1246 -0.0109
   28MOL   C51415688   2.433   2.306   2.809 -0.6891 -0.6617 -0.1054
   28MOL   C51515689   2.448   2.291   2.654 -0.0545  0.1382  0.0459
   28MOL   C51615690   2.462   2.169   2.886  0.5966  0.1640 -0.2007
   28MOL   C51715691   2.438   2.192   3.033 -0.0911  0.0565  0.0925
   28MOL   H51815692   2.606   2.344   3.440 -2.3600 -2.3904 -0.3273
   28MOL   H51915693   2.692   2.250   3.318 -0.0149  0.4365 -0.6122
   28MOL   H52015694   2.472   2.208   3.278  0.4048 -0.3747 -1.7050
   28MOL   H52115695   2.453   2.487   3.266 -0.9293  0.4912 -1.6702
   28MOL   H52215696   2.627   2.250   3.091  0.4356  0.4741  3.2065
   28MOL   H52315697   2.422   2.478   3.028  0.9315  0.8543  0.9520
   28MOL   H52415698   2.601   2.493   3.057  0.7653 -0.1087 -0.7379
   28MOL   H52515699   2.627   2.367   2.834 -1.5374 -4.3174 -0.0848
   28MOL   H52615700   2.550   2.531   2.707 -1.1472  1.5809 -0.5234
   28MOL   H52715701   2.335   2.345   2.837 -1.4825 -0.8920 -2.4377
   28MOL   H52815702   2.444   2.390   2.608 -0.0898 -0.5413 -1.4145
   28MOL   H52915703   2.542   2.242   2.632 -0.8771 -1.0630 -0.8351
   28MOL   H53015704   2.559   2.130   2.855  0.9127  0.8057 -0.0211
   28MOL   H53115705   2.381   2.108   2.847  1.6927 -1.7561  0.4755
   28MOL   H53215706   2.447   2.103   3.096  1.3425 -0.1354 -0.3807
   28MOL   H53315707   2.335   2.221   3.055  0.2732  1.3247  0.1538
   28MOL   O53415708   2.339   2.215   2.602  0.4867  0.7311  0.4502
   28MOL   C53515709   2.371   2.115   2.512 -0.2432  0.4360  0.7705
   28MOL   C53615710   2.309   2.148   2.377 -0.5982  0.5914  0.3066
   28MOL   O53715711   2.372   2.269   2.337  0.0223  0.0288 -0.1506
   28MOL   C53815712   2.341   2.046   2.262  0.1590  0.4940 -0.2462
   28MOL   C53915713   2.274   2.084   2.123 -0.3717 -0.0080 -0.7012
   28MOL   C54015714   2.324   1.990   2.013 -0.5539 -0.0798  1.1729
   28MOL   O54115715   2.271   2.025   1.890  0.1524 -0.5001  0.3571
   28MOL   C54215716   2.271   1.845   2.038 -0.2579 -0.1771  0.1853
   28MOL   C54315717   2.311   1.746   1.926  0.6730 -0.2523  0.3276
   28MOL   C54415718   2.317   1.801   2.177 -0.1536 -0.6296 -0.2248
   28MOL   C54515719   2.292   1.899   2.299 -0.2379 -0.9977 -0.1936
   28MOL   H54615720   2.316   2.028   2.548  0.6780 -0.1466  0.7783
   28MOL   H54715721   2.477   2.087   2.514  0.0388  1.6181  2.3365
   28MOL   H54815722   2.201   2.165   2.385 -0.5804  2.2205 -2.1363
   28MOL   H54915723   2.356   2.325   2.412  0.9899  1.5356 -1.0504
   28MOL   H55015724   2.450   2.052   2.264  0.2269 -0.7036 -0.3944
   28MOL   H55115725   2.166   2.089   2.135 -0.2965  0.9554 -0.4472
   28MOL   H55215726   2.304   2.187   2.106  0.9213  0.0678  1.8850
   28MOL   H55315727   2.432   1.987   2.004 -0.6814 -0.9255 -0.3246
   28MOL   H55415728   2.331   2.091   1.858 -1.4934  0.3619 -1.1000
   28MOL   H55515729   2.163   1.857   2.031 -0.1957  1.6097  1.8902
   28MOL   H55615730   2.419   1.742   1.913  0.5710 -2.5984  0.0870
   28MOL   H55715731   2.292   1.644   1.959 -2.4520  0.2148  0.1234
   28MOL   H55815732   2.426   1.788   2.174  0.1082  1.3611  0.2438
   28MOL   H55915733   2.266   1.706   2.192 -2.0471  0.4905  0.6285
   28MOL   H56015734   2.352   1.859   2.380  0.9379  0.4101 -0.3516
   28MOL   H56115735   2.185   1.901   2.318 -0.6080  1.7477 -2.2293
   28MOL   H56215736   2.259   1.755   1.831 -1.1281  2.0080  1.4910
   29MOL     O115737   4.852   6.274   7.521  0.0474 -0.3842 -0.5520
   29MOL     C215738   4.734   6.187   7.540 -0.6003  0.3914 -0.4824
   29MOL     C315739   4.781   6.048   7.485 -0.5159 -0.0929 -0.8205
   29MOL     O415740   4.852   6.076   7.364  0.6280  0.5978 -0.6493
   29MOL     C515741   4.859   5.959   7.583  0.3854  0.7405  0.3988
   29MOL     C615742   4.995   6.021   7.626 -0.4563 -0.0397  0.3971
   29MOL     C715743   5.086   5.928   0.083 -0.3733  0.4988 -0.3543
   29MOL     O815744   5.213   5.992   0.112  0.2365 -0.1353  0.1657
   29MOL     C915745   5.107   5.797   0.014 -0.0366  0.4450 -0.2621
   29MOL    C1015746   5.214   5.710   0.075 -0.1524  0.4037 -0.1526
   29MOL    C1115747   4.976   5.731   7.616  0.1351  0.0404 -0.6464
   29MOL    C1215748   4.879   5.813   7.527 -0.1951 -0.0276  0.2150
   29MOL    H1315749   4.648   6.234   7.493 -0.0748  2.5154  0.6307
   29MOL    H1415750   4.722   6.185   0.019  0.8388 -1.2457 -0.3281
   29MOL    H1515751   4.690   5.998   7.452 -2.3996  1.3555  1.9142
   29MOL    H1615752   4.880   6.166   7.378 -0.9872  1.4217 -2.4927
   29MOL    H1715753   4.796   5.956   0.043 -2.5970  1.8447 -1.5688
   29MOL    H1815754   5.054   6.056   7.541 -0.8070 -0.2464  0.0671
   29MOL    H1915755   4.981   6.111   0.055 -0.8616 -0.5071  1.0313
   29MOL    H2015756   5.031   5.911   0.176 -0.4732  0.7856 -0.3605
   29MOL    H2115757   5.215   6.078   0.073 -2.8277 -0.7797 -1.5081
   29MOL    H2215758   5.143   5.824   7.544  0.4436  0.6608 -0.0311
   29MOL    H2315759   5.240   5.629   0.007 -2.3789  0.2162 -0.8203
   29MOL    H2415760   5.306   5.769   0.078  0.7938 -0.9682 -1.5562
   29MOL    H2515761   4.935   5.710   0.085  1.7203  4.4912  1.1000
   29MOL    H2615762   4.987   5.634   7.567  0.3319  0.7939 -2.1200
   29MOL    H2715763   4.784   5.760   7.520 -0.9214  1.1361  0.9574
   29MOL    H2815764   4.899   5.816   7.420  1.3868 -0.8387  0.4684
   29MOL    H2915765   4.820   6.358   7.493 -0.0488 -0.0857  0.4361
   29MOL    O3015766   5.166   5.650   0.194  0.3462  0.3155 -0.2281
   29MOL    C3115767   5.263   5.575   0.263  0.5846  0.1020 -0.4638
   29MOL    C3215768   5.212   5.458   0.342  0.9152  0.4285 -0.3569
   29MOL    O3315769   5.128   5.509   0.448  0.1415  0.2764  0.0226
   29MOL    C3415770   5.139   5.345   0.261  0.6124  0.7289  0.2106
   29MOL    C3515771   4.994   5.380   0.218 -0.2131 -0.3194  0.0685
   29MOL    C3615772   4.948   5.271   0.117 -0.2022 -0.7161 -0.7276
   29MOL    O3715773   4.815   5.298   0.090  0.5682  0.5311 -1.0616
   29MOL    C3815774   4.950   5.132   0.171 -0.3416 -0.4275 -0.1910
   29MOL    C3915775   4.914   5.029   0.069  0.1385 -0.0182  0.3432
   29MOL    C4015776   5.089   5.099   0.234  0.1969  0.3502 -0.0746
   29MOL    C4115777   5.137   5.211   0.333 -0.0283 -0.3030  0.1343
   29MOL    H4215778   5.305   5.660   0.317  3.4693  0.2737 -2.8329
   29MOL    H4315779   5.343   5.539   0.197  0.6980  1.2406 -0.9549
   29MOL    H4415780   5.292   5.414   0.401 -0.9173 -0.4631  1.5419
   29MOL    H4515781   5.058   5.558   0.407 -1.2342 -1.3113  0.4177
   29MOL    H4615782   5.183   5.344   0.162 -2.6091 -0.4225 -1.2907
   29MOL    H4715783   4.929   5.384   0.305 -1.8792  0.0259 -1.1641
   29MOL    H4815784   4.990   5.478   0.170  0.1992 -0.0379  0.6063
   29MOL    H4915785   5.005   5.272   0.024  0.1686 -0.2104 -0.5010
   29MOL    H5015786   4.756   5.243   0.140  0.7177 -1.3916 -2.9332
   29MOL    H5115787   4.879   5.126   0.254 -1.2743  1.2092 -0.8518
   29MOL    H5215788   4.841   5.061   7.624  0.2418  0.4414  0.4394
   29MOL    H5315789   5.002   4.996   0.014  1.0369  0.0082  1.7484
   29MOL    H5415790   5.163   5.085   0.155 -1.7468 -2.5727 -1.4363
   29MOL    H5515791   5.100   5.006   0.290  0.7065 -0.4385 -1.4559
   29MOL    H5615792   5.222   5.188   0.397  0.1206 -0.3407 -0.0796
   29MOL    H5715793   5.067   5.230   0.414  0.2860 -0.7751  0.5207
   29MOL    O5815794   4.862   4.908   0.130 -0.1738  0.8265 -0.3289
   29MOL    C5915795   4.723   4.884   0.112  0.6779  0.4015 -0.1209
   29MOL    C6015796   4.651   4.965   0.223  0.1499  0.2963 -0.3767
   29MOL    O6115797   4.626   5.098   0.178  0.1007  0.4033 -0.1856
   29MOL    C6215798   4.523   4.899   0.276  0.0576 -0.5387  0.3470
   29MOL    C6315799   4.558   4.785   0.376  0.1494  0.2658  0.4908
   29MOL    C6415800   4.435   4.725   0.443  0.0334  0.8080  0.5037
   29MOL    O6515801   4.473   4.616   0.533  0.1222 -0.8363 -0.0575
   29MOL    C6615802   4.340   4.677   0.335 -0.1074  0.3353  0.8076
   29MOL    C6715803   4.220   4.609   0.405  0.4739 -0.1092  0.0196
   29MOL    C6815804   4.302   4.786   0.236 -0.6572 -0.6592 -0.2622
   29MOL    C6915805   4.421   4.856   0.173 -0.1438 -0.0296 -0.5934
   29MOL    H7015806   4.703   4.777   0.125  0.6364  0.3774 -0.3751
   29MOL    H7115807   4.684   4.911   0.014 -0.8765  0.7351  0.5708
   29MOL    H7215808   4.717   4.983   0.307 -0.5363 -1.7956  0.6450
   29MOL    H7315809   4.587   5.083   0.093  1.2974 -1.2331 -0.4773
   29MOL    H7415810   4.467   4.971   0.335  2.3436  1.2087  0.4887
   29MOL    H7515811   4.606   4.710   0.313 -1.4703  1.4707 -2.2857
   29MOL    H7615812   4.628   4.819   0.453  1.7803  0.1608 -0.9049
   29MOL    H7715813   4.389   4.812   0.490  0.9191  3.0147 -2.5821
   29MOL    H7815814   4.508   4.543   0.484  0.8274  0.0391 -0.8691
   29MOL    H7915815   4.389   4.607   0.267 -3.6482 -2.1631  0.7289
   29MOL    H8015816   4.251   4.534   0.479  1.8559  1.4090  1.0097
   29MOL    H8115817   4.168   4.687   0.459  0.6602 -0.1889  0.3193
   29MOL    H8215818   4.258   4.869   0.292  1.4115  0.1282  0.2728
   29MOL    H8315819   4.228   4.764   0.159 -1.2558  0.1427  0.0774
   29MOL    H8415820   4.382   4.944   0.123  2.3983  0.9340 -0.9690
   29MOL    H8515821   4.455   4.787   0.096 -1.2364 -2.1026  0.7338
   29MOL    O8615822   4.131   4.544   0.320 -0.4798 -1.1653 -0.1145
   29MOL    C8715823   4.014   4.495   0.379  0.2236 -0.1668 -0.5161
   29MOL    C8815824   3.924   4.445   0.266  0.5485  0.5737  0.1195
   29MOL    O8915825   3.856   4.330   0.310  0.2184 -0.1431 -0.3201
   29MOL    C9015826   3.818   4.546   0.217 -1.3306 -0.7698  0.0455
   29MOL    C9115827   3.698   4.563   0.299  0.1163  0.3333 -0.3902
   29MOL    C9215828   3.601   4.681   0.254  0.7747 -0.4578 -0.4521
   29MOL    O9315829   3.491   4.677   0.345  0.3246 -0.6082  0.3365
   29MOL    C9415830   3.557   4.640   0.111  0.2348  0.1408 -0.0374
   29MOL    C9515831   3.461   4.737   0.038 -0.5230  0.4220 -0.5253
   29MOL    C9615832   3.674   4.621   0.018 -0.4686  0.3448  0.2529
   29MOL    C9715833   3.776   4.519   0.072 -0.1425 -0.5021 -0.6807
   29MOL    H9815834   3.960   4.570   0.437 -0.6377  0.0362 -1.5665
   29MOL    H9915835   4.048   4.406   0.431 -0.7630 -0.6123 -0.6234
   29MOL   H10015836   3.992   4.412   0.187 -0.1141  0.6960 -0.4979
   29MOL   H10115837   3.838   4.343   0.402  0.1481 -4.7364  0.4061
   29MOL   H10215838   3.861   4.646   0.214 -2.8031 -0.1119  0.1519
   29MOL   H10315839   3.638   4.473   0.307  1.0690 -0.3108 -0.4473
   29MOL   H10415840   3.727   4.589   0.400 -1.7789  0.3259  0.1740
   29MOL   H10515841   3.649   4.779   0.251  1.6010 -0.8191  0.5126
   29MOL   H10615842   3.428   4.744   0.322  0.7719 -1.3978 -3.5689
   29MOL   H10715843   3.511   4.541   0.120 -0.0810  0.3887  1.3069
   29MOL   H10815844   3.367   4.740   0.094  0.3058 -0.0556  0.9312
   29MOL   H10915845   3.495   4.840   0.035 -0.7524  0.5215  0.0914
   29MOL   H11015846   3.727   4.715   7.626 -1.2580  0.6661 -0.2977
   29MOL   H11115847   3.643   4.578   7.552  1.9629 -1.1178  0.0614
   29MOL   H11215848   3.867   4.524   0.012 -0.4345  1.3685 -1.0195
   29MOL   H11315849   3.729   4.422   0.059 -0.7749 -0.6489  2.3902
   29MOL   O11415850   3.438   4.702   7.536 -0.1767  0.1005  0.1379
   29MOL   C11515851   3.366   4.580   7.526 -0.2967 -0.8130 -0.5064
   29MOL   C11615852   3.326   4.555   7.383  0.6059 -1.3969  0.3612
   29MOL   O11715853   3.442   4.539   7.305  0.2462  0.3700  0.5168
   29MOL   C11815854   3.223   4.442   7.368  0.4506  0.4683 -0.5372
   29MOL   C11915855   3.289   4.305   7.383 -0.3871 -0.0865  0.2342
   29MOL   C12015856   3.178   4.190   7.383 -0.5537  0.4139  0.6329
   29MOL   O12115857   3.267   4.076   7.366 -0.1603 -0.2509 -0.0387
   29MOL   C12215858   3.073   4.199   7.266  0.2114 -0.7977 -0.0789
   29MOL   C12315859   2.964   4.102   7.298  0.1046 -0.1438  0.1003
   29MOL   C12415860   3.028   4.349   7.249 -0.0639  0.3328 -0.1570
   29MOL   C12515861   3.137   4.450   7.238 -0.0504  0.5262  0.0804
   29MOL   H12615862   3.271   4.596   7.577  1.2680 -0.0646  2.2720
   29MOL   H12715863   3.420   4.497   7.571  2.0346  1.5933  1.2705
   29MOL   H12815864   3.270   4.642   7.349  1.4468  0.5689  3.8260
   29MOL   H12915865   3.500   4.605   7.339  0.2516  0.1150  1.0026
   29MOL   H13015866   3.157   4.456   7.454  0.1164  1.8185 -1.0062
   29MOL   H13115867   3.355   4.294   7.297  2.5828  1.3861  2.2377
   29MOL   H13215868   3.355   4.287   7.468  1.6971  1.0883 -1.1085
   29MOL   H13315869   3.137   4.184   7.484 -1.0486 -1.5269  0.3172
   29MOL   H13415870   3.303   4.080   7.278 -1.2806  0.4154 -0.4837
   29MOL   H13515871   3.126   4.176   7.173  1.2127  0.4840  0.1542
   29MOL   H13615872   2.998   4.007   7.337 -0.1755  0.1599  1.0942
   29MOL   H13715873   2.907   4.147   7.379 -1.6026  1.3476 -1.8737
   29MOL   H13815874   2.966   4.382   7.333  1.8924  0.4562  1.2895
   29MOL   H13915875   2.966   4.349   7.159 -1.6606 -3.9015  0.8469
   29MOL   H14015876   3.102   4.549   7.209 -1.8341 -0.7083 -2.1789
   29MOL   H14115877   3.193   4.428   7.146  1.8204 -2.3103  1.8135
   29MOL   O14215878   2.891   4.066   7.175 -0.4215  0.0069 -0.2130
   29MOL   C14315879   2.779   3.987   7.198  0.4818  0.0863 -0.1616
   29MOL   C14415880   2.713   3.950   7.060  0.4085  0.7007 -0.3809
   29MOL   O14515881   2.630   3.845   7.075 -0.0560  0.1840 -0.0197
   29MOL   C14615882   2.636   4.064   6.979  0.6747  0.2542  0.8484
   29MOL   C14715883   2.578   4.003   6.843  0.0363 -0.0114 -0.5023
   29MOL   C14815884   2.531   4.108   6.740 -0.3040 -0.3907  0.6199
   29MOL   O14915885   2.502   4.029   6.625  0.1272  0.5011  0.7626
   29MOL   C15015886   2.642   4.206   6.700 -0.2841 -0.2506  0.1582
   29MOL   C15115887   2.596   4.293   6.578  0.9377  0.7094  0.2537
   29MOL   C15215888   2.677   4.280   6.834 -0.5850  0.1422  0.6533
   29MOL   C15315889   2.725   4.176   6.939  0.2441  0.5226  0.3222
   29MOL   H15415890   2.695   4.028   7.254 -0.3935  0.2710 -1.6010
   29MOL   H15515891   2.818   3.900   7.251  2.9381  0.2476 -1.5964
   29MOL   H15615892   2.793   3.918   6.993 -0.3139 -3.8183  0.7414
   29MOL   H15715893   2.682   3.783   7.124  0.9541  1.1794  0.1973
   29MOL   H15815894   2.558   4.107   7.042 -1.1246  2.2319 -2.5862
   29MOL   H15915895   2.661   3.949   6.800  0.2015  0.3258 -0.6102
   29MOL   H16015896   2.503   3.928   6.868  0.0083 -0.0182 -0.6072
   29MOL   H16115897   2.447   4.167   6.774 -0.4193  0.1065 -0.5422
   29MOL   H16215898   2.422   3.981   6.639  0.6472 -1.0918 -1.5285
   29MOL   H16315899   2.724   4.144   6.663 -0.7004  0.2162 -1.5933
   29MOL   H16415900   2.560   4.229   6.497 -0.0626  1.9382 -0.2965
   29MOL   H16515901   2.507   4.349   6.608  2.5115  2.0772  2.4886
   29MOL   H16615902   2.586   4.334   6.859 -1.3686 -0.6359 -0.5061
   29MOL   H16715903   2.751   4.350   6.795 -0.1838 -1.3595 -1.3573
   29MOL   H16815904   2.760   4.225   7.030 -2.1826  3.8531 -0.4485
   29MOL   H16915905   2.814   4.127   6.899 -0.9554 -1.3202 -0.1582
   29MOL   O17015906   2.690   4.389   6.527 -0.1789  0.3856 -0.1564
   29MOL   C17115907   2.793   4.336   6.448 -0.3506  0.6890 -0.1560
   29MOL   C17215908   2.903   4.447   6.440  0.0319 -0.0719  0.5924
   29MOL   O17315909   2.846   4.559   6.373 -0.3618  0.1674  0.2945
   29MOL   C17415910   2.959   4.485   6.577 -0.2401 -0.7660 -0.5592
   29MOL   C17515911   2.870   4.578   6.670  0.8097  0.4113 -0.0422
   29MOL   C17615912   2.936   4.609   6.809  0.3644  0.2447 -0.2653
   29MOL   O17715913   2.851   4.692   6.891  0.5699  0.5551  0.5781
   29MOL   C17815914   3.083   4.668   6.787  0.1514  0.2633 -0.1290
   29MOL   C17915915   3.157   4.668   6.922 -0.1472  0.3374 -0.4383
   29MOL   C18015916   3.161   4.583   6.690 -0.4931  0.6995 -0.6722
   29MOL   C18115917   3.088   4.564   6.558 -0.1533  0.0306 -0.2322
   29MOL   H18215918   2.755   4.317   6.347 -0.6674  0.0956  0.0721
   29MOL   H18315919   2.833   4.243   6.490 -1.2631  0.0609 -0.6616
   29MOL   H18415920   2.983   4.395   6.387 -0.4978  0.1805 -0.4584
   29MOL   H18515921   2.754   4.562   6.392 -0.2785  2.2016  0.4779
   29MOL   H18615922   2.986   4.397   6.636  2.3521 -0.6430 -1.4709
   29MOL   H18715923   2.847   4.667   6.612  0.6369 -0.1635 -0.8595
   29MOL   H18815924   2.782   4.520   6.698  1.0202  0.3356  0.4880
   29MOL   H18915925   2.931   4.520   6.871 -3.0078  1.0306  0.7379
   29MOL   H19015926   2.863   4.785   6.874 -1.5822  0.3987 -2.2392
   29MOL   H19115927   3.071   4.767   6.743 -1.9216 -0.8208 -2.1345
   29MOL   H19215928   3.087   4.700   6.999  0.1366 -0.9958  0.3854
   29MOL   H19315929   3.177   4.565   6.951 -0.2968  0.9057  1.7695
   29MOL   H19415930   3.166   4.483   6.733 -1.7593  0.3332 -1.3356
   29MOL   H19515931   3.267   4.607   6.677 -0.2936 -0.1679 -0.6567
   29MOL   H19615932   3.157   4.507   6.495 -1.0023  0.5777 -1.6995
   29MOL   H19715933   3.065   4.660   6.511 -1.0356  1.2093  2.5518
   29MOL   O19815934   3.277   4.744   6.929  0.8984 -0.7091 -0.7736
   29MOL   C19915935   3.366   4.717   7.039 -0.3739 -0.5830  0.2436
   29MOL   C20015936   3.501   4.795   7.001  0.6161  0.5385  0.2893
   29MOL   O20115937   3.531   4.741   6.872 -0.2669  0.4903 -0.5253
   29MOL   C20215938   3.479   4.953   7.007 -0.7729 -0.4958  0.0231
   29MOL   C20315939   3.602   5.037   6.981  0.4629 -0.3114 -0.2363
   29MOL   C20415940   3.553   5.188   6.971 -0.0883  0.0181 -0.0330
   29MOL   O20515941   3.669   5.267   6.929  0.5851 -0.1963  0.5696
   29MOL   C20615942   3.513   5.239   7.114 -0.7467 -0.0859 -0.2146
   29MOL   C20715943   3.507   5.396   7.129 -0.0268 -0.1991 -0.5837
   29MOL   C20815944   3.382   5.159   7.158 -0.3741 -0.6562  0.1890
   29MOL   C20915945   3.410   5.004   7.139  0.4495  0.2215 -0.2664
   29MOL   H21015946   3.370   4.608   7.036 -0.8501 -0.5923 -0.2734
   29MOL   H21115947   3.323   4.744   7.135 -0.5880  2.0294 -0.5440
   29MOL   H21215948   3.579   4.759   7.068  0.9435 -1.4197 -1.0798
   29MOL   H21315949   3.446   4.725   6.833 -1.6892 -0.5648  2.8379
   29MOL   H21415950   3.411   4.973   6.924 -0.4585  0.1979 -0.0741
   29MOL   H21515951   3.682   5.018   7.051 -0.1410 -0.4902  0.4112
   29MOL   H21615952   3.636   5.010   6.881  0.1038  1.8749 -0.9876
   29MOL   H21715953   3.472   5.202   6.900 -0.1661 -0.9439 -0.1433
   29MOL   H21815954   3.642   5.311   6.849 -0.8910 -0.9432  0.6472
   29MOL   H21915955   3.589   5.208   7.186 -0.9607  1.4846  0.7015
   29MOL   H22015956   3.606   5.441   7.123  0.7869 -1.7652  0.8833
   29MOL   H22115957   3.448   5.433   7.045 -0.6121  2.4836  0.9678
   29MOL   H22215958   3.303   5.199   7.094 -0.2367  1.3954  1.2632
   29MOL   H22315959   3.359   5.183   7.262 -0.5107  1.2439 -0.2578
   29MOL   H22415960   3.310   4.961   7.149  0.1799  1.1158  1.0214
   29MOL   H22515961   3.465   4.967   7.226 -0.2835  0.3416  0.2520
   29MOL   O22615962   3.427   5.437   7.245 -1.1889 -0.0988  0.1112
   29MOL   C22715963   3.425   5.580   7.254  0.4629  0.4591 -1.1673
   29MOL   C22815964   3.318   5.611   7.364  0.1198 -0.5276 -0.1807
   29MOL   O22915965   3.380   5.578   7.479 -0.7049 -0.7004  0.0018
   29MOL   C23015966   3.273   5.752   7.372  0.4426  0.0027  0.2842
   29MOL   C23115967   3.398   5.851   7.400  0.1783  0.3863 -0.4524
   29MOL   C23215968   3.355   6.001   7.412 -0.0219 -0.0050 -0.3541
   29MOL   O23315969   3.466   6.084   7.443 -0.3847  0.3391  0.2923
   29MOL   C23415970   3.245   6.011   7.521 -0.2618 -0.3083 -0.4691
   29MOL   C23515971   3.206   6.157   7.556 -0.2018 -0.5726  0.0561
   29MOL   C23615972   3.123   5.916   7.495 -0.5844 -0.4275  0.2400
   29MOL   C23715973   3.165   5.769   7.480  0.3360  0.1193 -0.5824
   29MOL   H23815974   3.393   5.617   7.156  0.5655  0.4522 -1.2034
   29MOL   H23915975   3.520   5.626   7.278  0.8346 -1.1915  0.6478
   29MOL   H24015976   3.230   5.550   7.343 -1.8282  2.8520 -2.1530
   29MOL   H24115977   3.435   5.501   7.474  0.8766  0.3314  1.2018
   29MOL   H24215978   3.223   5.779   7.278  1.4189  0.9301  0.0181
   29MOL   H24315979   3.452   5.819   7.489  0.4537  1.3838 -0.2499
   29MOL   H24415980   3.465   5.834   7.316 -0.5303 -1.9709 -0.5763
   29MOL   H24515981   3.305   6.024   7.318  2.2416  0.9657 -1.3639
   29MOL   H24615982   3.497   6.133   7.368  0.0573  2.5211  1.8646
   29MOL   H24715983   3.303   5.978   7.607 -0.4188 -1.0150 -0.6282
   29MOL   H24815984   3.159   6.160   0.025  1.9700 -1.3029  1.1741
   29MOL   H24915985   3.289   6.227   7.560 -1.9149  1.5571 -0.8830
   29MOL   H25015986   3.071   5.943   7.403  0.4613  0.0182 -0.2257
   29MOL   H25115987   3.056   5.939   7.578  1.1945  0.9269  1.3266
   29MOL   H25215988   3.084   5.699   7.458  0.6163 -0.9614  1.7555
   29MOL   H25315989   3.211   5.743   7.575  0.2506  2.3749  0.0926
   29MOL   O25415990   3.116   6.204   7.451 -0.5636 -0.1075  0.4713
   29MOL   C25515991   3.166   6.288   7.355 -0.5188 -0.0994 -0.0899
   29MOL   C25615992   3.050   6.340   7.266  0.4093 -0.4087  0.2690
   29MOL   O25715993   3.091   6.471   7.213 -0.1754  0.3976 -0.2104
   29MOL   C25815994   3.008   6.255   7.142  0.2124 -0.1037 -0.1329
   29MOL   C25915995   2.876   6.307   7.081  0.6144  0.3768 -0.1793
   29MOL   C26015996   2.833   6.226   6.956  0.0715  0.0015 -0.2799
   29MOL   O26115997   2.712   6.283   6.902  0.2917  0.3665  0.7751
   29MOL   C26215998   2.827   6.076   6.988  0.5694 -0.5019  0.3938
   29MOL   C26315999   2.796   5.982   6.871 -0.2994 -0.1754 -0.1465
   29MOL   C26416000   2.964   6.030   7.048  0.6803 -0.3331 -0.2462
   29MOL   C26516001   2.990   6.107   7.178  0.1389 -0.6298 -1.3583
   29MOL   H26616002   3.246   6.239   7.300 -1.3094 -1.0913 -0.3878
   29MOL   H26716003   3.210   6.374   7.406  1.7582 -0.7446 -0.9228
   29MOL   H26816004   2.960   6.354   7.326 -0.2590 -0.1997 -0.7695
   29MOL   H26916005   3.162   6.448   7.156  0.2295 -0.1410  0.4985
   29MOL   H27016006   3.088   6.263   7.069  1.1784  0.5158  0.9775
   29MOL   H27116007   2.793   6.296   7.152 -1.0709  0.9464 -2.0177
   29MOL   H27216008   2.894   6.411   7.054  0.7958  0.4968  0.4035
   29MOL   H27316009   2.906   6.250   6.879 -1.0144  0.4975 -1.1656
   29MOL   H27416010   2.726   6.371   6.870  2.5985 -1.4730 -3.5554
   29MOL   H27516011   2.746   6.071   7.061  0.1448 -0.1460 -0.0536
   29MOL   H27616012   2.792   5.881   6.913 -1.8410  0.1103  0.4080
   29MOL   H27716013   2.701   6.008   6.824 -0.4139 -1.2024 -0.5150
   29MOL   H27816014   3.042   6.046   6.974  0.2476  1.3723 -0.3532
   29MOL   H27916015   2.960   5.923   7.065 -0.4532 -0.0138  1.7308
   29MOL   H28016016   3.076   6.073   7.236 -1.0815 -0.8116  0.3909
   29MOL   H28116017   2.909   6.102   7.251  1.8464  0.0765  0.6245
   29MOL   O28216018   2.902   5.990   6.782 -0.4271 -0.1931 -0.0138
   29MOL   C28316019   2.894   5.902   6.671 -0.9703 -0.1423 -0.5234
   29MOL   C28416020   3.027   5.892   6.597 -0.2166 -0.3133  0.3958
   29MOL   O28516021   3.101   5.774   6.641  0.5417  0.2495  0.2299
   29MOL   C28616022   3.018   5.887   6.447  0.2183 -0.7642  0.2489
   29MOL   C28716023   2.942   5.769   6.389 -0.4356  0.4037  0.1367
   29MOL   C28816024   2.922   5.797   6.244  0.1798  0.4027 -0.1338
   29MOL   O28916025   2.864   5.675   6.192 -0.1689 -0.1542 -0.6419
   29MOL   C29016026   3.046   5.828   6.164  0.1467 -0.2015 -0.3060
   29MOL   C29116027   3.004   5.882   6.020 -0.0860  0.5719 -0.7666
   29MOL   C29216028   3.127   5.933   6.235  0.3415 -0.2729  0.1697
   29MOL   C29316029   3.152   5.905   6.383 -0.5409  0.2440  0.3537
   29MOL   H29416030   2.818   5.944   6.605 -1.2230  1.5451  0.8067
   29MOL   H29516031   2.858   5.804   6.703 -0.1832 -0.7813 -1.5676
   29MOL   H29616032   3.083   5.981   6.626 -0.3861  0.9792 -2.9649
   29MOL   H29716033   3.059   5.701   6.597 -0.3685  2.1866 -2.2695
   29MOL   H29816034   2.965   5.978   6.420 -3.9533 -3.0593  0.2188
   29MOL   H29916035   3.013   5.687   6.396 -1.0394 -0.1472 -0.1446
   29MOL   H30016036   2.847   5.746   6.438 -0.5144  0.6664  0.1079
   29MOL   H30116037   2.850   5.873   6.215 -0.0972  0.4448  0.6402
   29MOL   H30216038   2.932   5.610   6.187 -0.5536 -0.5314 -1.0925
   29MOL   H30316039   3.101   5.734   6.154  1.7733  0.6135  0.8797
   29MOL   H30416040   3.089   5.907   5.955 -1.5280  0.9465 -2.5493
   29MOL   H30516041   2.938   5.804   5.982  0.7770 -0.4778 -0.1296
   29MOL   H30616042   3.088   6.034   6.224  0.8472 -0.0853  0.0899
   29MOL   H30716043   3.223   5.940   6.185  0.1265  2.8543  0.1004
   29MOL   H30816044   3.211   5.984   6.429 -0.0409  0.9937 -1.4992
   29MOL   H30916045   3.211   5.814   6.377  0.5937  1.0413 -1.1099
   29MOL   O31016046   2.938   6.006   6.031  1.3422 -0.0144 -0.3144
   29MOL   C31116047   2.823   6.029   5.945 -0.3596  0.1156  0.4201
   29MOL   C31216048   2.748   6.146   6.006  0.0062  0.5337  0.0274
   29MOL   O31316049   2.843   6.249   6.029 -0.4722  0.0112 -0.6087
   29MOL   C31416050   2.639   6.210   5.911  0.0636  0.0802 -0.3562
   29MOL   C31516051   2.559   6.311   5.994  0.0255 -0.4315  0.3556
   29MOL   C31616052   2.460   6.384   5.905 -0.1584 -0.4418  0.3005
   29MOL   O31716053   2.376   6.470   5.986  0.5108 -0.5194  1.1094
   29MOL   C31816054   2.363   6.285   5.828  0.2798 -0.1333  0.0108
   29MOL   C31916055   2.267   6.371   5.739 -0.8667 -0.2643  1.0496
   29MOL   C32016056   2.439   6.177   5.748  0.4199 -0.0044  0.0038
   29MOL   C32116057   2.551   6.108   5.835  0.7468 -0.9060  0.5046
   29MOL   H32216058   2.752   5.946   5.943 -0.1840 -0.0334  0.3450
   29MOL   H32316059   2.875   6.044   5.850 -0.1851  1.1929  0.6758
   29MOL   H32416060   2.690   6.114   6.092 -0.8013  3.8292  0.8113
   29MOL   H32516061   2.919   6.200   6.059 -0.9936  0.3115  1.2630
   29MOL   H32616062   2.691   6.264   5.831 -1.9592  0.2643 -1.5908
   29MOL   H32716063   2.489   6.254   6.056 -1.2677  2.0594  1.2427
   29MOL   H32816064   2.608   6.384   6.059  0.4149 -1.0381  0.7465
   29MOL   H32916065   2.513   6.437   5.826 -1.5397  0.1279 -0.2638
   29MOL   H33016066   2.360   6.545   5.932  0.9545 -0.1126  1.5404
   29MOL   H33116067   2.307   6.237   5.908  4.7484 -2.2650  2.0672
   29MOL   H33216068   2.190   6.303   5.702 -0.1337 -1.1139  1.0800
   29MOL   H33316069   2.214   6.452   5.789  1.4817  2.7302 -1.1362
   29MOL   H33416070   2.488   6.217   5.659 -0.1261 -2.7696 -1.6017
   29MOL   H33516071   2.370   6.101   5.711 -0.2194  0.4714  0.1946
   29MOL   H33616072   2.607   6.058   5.757  0.2602  1.3635 -1.3508
   29MOL   H33716073   2.522   6.026   5.900 -1.2736 -0.1804  0.5619
   29MOL   O33816074   2.342   6.418   5.634  0.1558 -0.7611  0.1927
   29MOL   C33916075   2.275   6.499   5.539  0.6247  0.2910 -0.1985
   29MOL   C34016076   2.363   6.569   5.427 -0.4941  0.2918  0.1845
   29MOL   O34116077   2.407   6.701   5.476  0.0307 -0.2110  0.0982
   29MOL   C34216078   2.478   6.476   5.391  0.1986  0.5776 -0.6288
   29MOL   C34316079   2.561   6.541   5.286 -0.5753 -0.3682  0.3467
   29MOL   C34416080   2.683   6.455   5.253 -0.1358  0.0244  0.1302
   29MOL   O34516081   2.756   6.523   5.151  0.3421 -0.3263 -0.6540
   29MOL   C34616082   2.644   6.312   5.203 -0.4997  0.0770 -0.6534
   29MOL   C34716083   2.757   6.220   5.176 -0.5628  0.5223  0.1772
   29MOL   C34816084   2.547   6.248   5.301  0.3490  0.2271  0.1685
   29MOL   C34916085   2.429   6.346   5.330  0.7792  0.0476  0.4862
   29MOL   H35016086   2.191   6.557   5.578  1.1270 -0.4076  1.9800
   29MOL   H35116087   2.218   6.418   5.492  0.0486  1.3943 -1.4264
   29MOL   H35216088   2.306   6.582   5.335 -2.6019  2.3514  1.7177
   29MOL   H35316089   2.412   6.710   5.570  0.4984 -0.8516  0.1372
   29MOL   H35416090   2.530   6.445   5.482  0.1011  1.2166 -0.3536
   29MOL   H35516091   2.499   6.561   5.198 -1.3041  0.7181  1.1018
   29MOL   H35616092   2.583   6.642   5.320 -0.5610 -0.6482  1.1728
   29MOL   H35716093   2.747   6.444   5.341  0.8903  0.5779 -0.5369
   29MOL   H35816094   2.707   6.555   5.076  2.0618 -1.4318 -2.2918
   29MOL   H35916095   2.598   6.315   5.104  1.1321 -0.6047 -1.4448
   29MOL   H36016096   2.820   6.258   5.096  0.3008  1.1303  1.1318
   29MOL   H36116097   2.823   6.204   5.261 -2.2416 -0.2202  1.3811
   29MOL   H36216098   2.601   6.235   5.395 -0.0097 -0.3491  0.2994
   29MOL   H36316099   2.514   6.151   5.263  2.1244  0.3506 -1.8017
   29MOL   H36416100   2.358   6.300   5.400 -1.3324 -0.5729 -1.9942
   29MOL   H36516101   2.369   6.365   5.241 -1.5856 -0.8634  1.8179
   29MOL   O36616102   2.711   6.090   5.134 -0.1525  0.0803 -0.2793
   29MOL   C36716103   2.805   5.982   5.160  0.3570  0.6835 -0.3998
   29MOL   C36816104   2.943   5.999   5.104 -0.7807 -0.0408  0.0081
   29MOL   O36916105   3.017   6.042   5.221  0.4422 -0.2601 -0.1256
   29MOL   C37016106   3.013   5.868   5.066  0.1115  0.0619  0.0364
   29MOL   C37116107   2.967   5.817   4.926 -1.1459 -0.6364 -0.5861
   29MOL   C37216108   3.039   5.686   4.887 -0.3892 -0.0101  0.4855
   29MOL   O37316109   2.993   5.647   4.759  0.1250  0.5558 -0.5823
   29MOL   C37416110   3.008   5.578   4.990 -0.2334 -0.4021 -0.3481
   29MOL   C37516111   3.067   5.447   4.940  0.2939 -0.0436  0.1227
   29MOL   C37616112   3.061   5.625   5.126  0.9293  0.4603  0.0528
   29MOL   C37716113   3.007   5.763   5.177  0.2690  0.6649 -0.2539
   29MOL   H37816114   2.757   5.899   5.108 -2.8469  0.3174  2.9010
   29MOL   H37916115   2.801   5.964   5.268  2.3226 -1.4024 -0.6385
   29MOL   H38016116   2.969   6.074   5.029 -1.2239 -0.1243 -0.2276
   29MOL   H38116117   3.097   5.992   5.221  2.5535  2.8559  1.9290
   29MOL   H38216118   3.121   5.884   5.056 -0.4127  3.3739 -1.0082
   29MOL   H38316119   2.861   5.794   4.933 -0.8174 -2.0223  0.1271
   29MOL   H38416120   2.989   5.888   4.846  0.3472  2.1362  2.1517
   29MOL   H38516121   3.146   5.698   4.871 -0.0012 -0.0905  2.8495
   29MOL   H38616122   3.019   5.703   4.687  0.3474 -0.5190 -1.3481
   29MOL   H38716123   2.901   5.570   5.005 -0.1779  0.8459  0.7607
   29MOL   H38816124   3.006   5.412   4.857  0.6648  2.8576 -1.4516
   29MOL   H38916125   3.169   5.451   4.902 -0.1483  2.5636 -0.9040
   29MOL   H39016126   3.170   5.627   5.123  0.9263 -0.1327 -0.6939
   29MOL   H39116127   3.045   5.554   5.206  0.3593  1.0058  0.4195
   29MOL   H39216128   3.062   5.792   5.267  0.4566 -3.3066  1.0176
   29MOL   H39316129   2.903   5.746   5.207  0.3122  1.7040  0.5123
   29MOL   O39416130   3.046   5.355   5.046  0.3570 -0.9412 -0.3467
   29MOL   C39516131   3.108   5.231   5.030  0.1222 -0.7966  0.2906
   29MOL   C39616132   3.145   5.167   5.163  0.1558 -0.1685 -0.8774
   29MOL   O39716133   3.228   5.062   5.147  0.1393 -0.1395 -0.1567
   29MOL   C39816134   3.209   5.266   5.262  0.4812 -0.8507 -0.0385
   29MOL   C39916135   3.339   5.335   5.200  0.3411 -0.4208  0.0084
   29MOL   C40016136   3.393   5.448   5.289 -0.1791  0.1500 -0.2546
   29MOL   O40116137   3.522   5.484   5.236 -0.6740 -0.0543  0.2685
   29MOL   C40216138   3.416   5.394   5.437 -0.6973  0.4747  0.7442
   29MOL   C40316139   3.458   5.509   5.535  0.1147  0.0812 -0.3216
   29MOL   C40416140   3.290   5.320   5.492  0.5460 -0.3149 -0.0682
   29MOL   C40516141   3.243   5.204   5.404  0.4877 -0.6131  0.0617
   29MOL   H40616142   3.191   5.221   4.960  0.4921 -0.2377  0.6454
   29MOL   H40716143   3.016   5.180   5.002 -0.9181 -0.4320  2.9136
   29MOL   H40816144   3.052   5.139   5.213  1.2347 -0.2820  1.1577
   29MOL   H40916145   3.207   4.997   5.211  1.8394 -1.8119 -1.2410
   29MOL   H41016146   3.143   5.352   5.277  1.5140 -0.4391  2.4218
   29MOL   H41116147   3.413   5.255   5.195  1.8636  1.1356 -4.4560
   29MOL   H41216148   3.323   5.379   5.102 -1.8058 -1.6325 -0.2216
   29MOL   H41316149   3.323   5.531   5.289 -0.7580 -0.3175  1.0336
   29MOL   H41416150   3.581   5.411   5.239 -3.7955 -2.6323  2.7583
   29MOL   H41516151   3.496   5.320   5.435  0.2451  1.4889  0.7476
   29MOL   H41616152   3.497   5.463   5.626  1.5525 -2.4941 -2.1489
   29MOL   H41716153   3.547   5.559   5.498 -0.4075  1.7583  0.6627
   29MOL   H41816154   3.203   5.385   5.491  0.6956 -0.1174 -0.4867
   29MOL   H41916155   3.312   5.287   5.594  1.6150 -0.3022 -0.2857
   29MOL   H42016156   3.153   5.163   5.449  1.1674  0.7795  2.8752
   29MOL   H42116157   3.319   5.126   5.398  1.0746 -0.0995  0.6480
   29MOL   O42216158   3.357   5.606   5.560 -0.4201  0.0157 -0.2251
   29MOL   C42316159   3.343   5.651   5.695 -0.1926  0.1572 -0.2261
   29MOL   C42416160   3.258   5.771   5.705 -0.0645  0.2688 -0.2433
   29MOL   O42516161   3.336   5.885   5.656  0.4607 -0.1199  0.0972
   29MOL   C42616162   3.131   5.765   5.620  0.9810 -1.2622  0.8588
   29MOL   C42716163   3.047   5.887   5.649 -0.7141  0.2551  0.7363
   29MOL   C42816164   2.920   5.892   5.561 -0.1565 -0.3284 -0.3276
   29MOL   O42916165   2.838   6.001   5.601  0.4561  0.0918  0.0175
   29MOL   C43016166   2.837   5.762   5.582  0.6878  0.6172 -0.3453
   29MOL   C43116167   2.706   5.760   5.494  0.4050  0.2859 -0.2653
   29MOL   C43216168   2.921   5.631   5.567  0.1346  0.4439 -0.3411
   29MOL   C43316169   3.050   5.632   5.646  0.0137 -0.6242 -0.6903
   29MOL   H43416170   3.441   5.667   5.741 -0.4432 -0.8534  0.6733
   29MOL   H43516171   3.307   5.560   5.743  0.9471  1.1540  2.6793
   29MOL   H43616172   3.237   5.802   5.808  2.7567  1.8639 -0.0600
   29MOL   H43716173   3.377   5.850   5.578  0.8217  0.2483  0.1198
   29MOL   H43816174   3.145   5.768   5.512 -0.9730  0.5599  0.6198
   29MOL   H43916175   3.012   5.889   5.752 -2.1984 -1.7867  0.2965
   29MOL   H44016176   3.109   5.975   5.631 -0.0086  0.0456  2.0767
   29MOL   H44116177   2.948   5.906   5.457  1.8687 -0.0355  0.2314
   29MOL   H44216178   2.749   5.977   5.578  0.7459 -1.0173  0.0350
   29MOL   H44316179   2.808   5.768   5.687  1.1135 -2.6367 -0.0025
   29MOL   H44416180   2.731   5.785   5.390 -1.5689  0.6370 -0.6750
   29MOL   H44516181   2.668   5.658   5.489 -0.9460  0.7366  0.8066
   29MOL   H44616182   2.944   5.634   5.460  3.9690  2.2474  0.4620
   29MOL   H44716183   2.862   5.548   5.605  1.5248  0.0175  0.9285
   29MOL   H44816184   3.093   5.536   5.615  0.9312  0.0304 -1.4530
   29MOL   H44916185   3.026   5.631   5.752 -2.6116 -0.4990 -1.2637
   29MOL   O45016186   2.602   5.844   5.545  0.3142  0.5027 -0.3704
   29MOL   C45116187   2.466   5.802   5.524 -0.4059 -0.2716  0.2445
   29MOL   C45216188   2.423   5.692   5.623 -0.1020  0.2707  0.0604
   29MOL   O45316189   2.403   5.749   5.747  0.2458 -0.4194  0.1115
   29MOL   C45416190   2.293   5.613   5.593 -0.2965 -0.6060  0.6985
   29MOL   C45516191   2.300   5.530   5.459  0.3309  0.4334 -0.4813
   29MOL   C45616192   2.162   5.456   5.420  0.2497  0.2013 -0.3844
   29MOL   O45716193   2.182   5.417   5.290  1.0214  0.6852 -0.2087
   29MOL   C45816194   2.048   5.568   5.426  0.0155 -0.1072  0.4602
   29MOL   C45916195   1.906   5.509   5.387 -0.4349  0.2219 -0.5328
   29MOL   C46016196   2.043   5.640   5.560 -0.4294  0.3205 -0.4209
   29MOL   C46116197   2.174   5.711   5.603  0.1100 -0.0168 -0.3860
   29MOL   H46216198   2.458   5.769   5.420  0.2330 -0.0093  0.1049
   29MOL   H46316199   2.400   5.889   5.533 -0.2630 -0.1615  0.2436
   29MOL   H46416200   2.500   5.615   5.629 -0.4231  0.0739  1.6487
   29MOL   H46516201   2.488   5.780   5.776  0.2454 -0.5891  0.2924
   29MOL   H46616202   2.277   5.539   5.672 -0.7034 -0.7504  0.4782
   29MOL   H46716203   2.327   5.597   5.378 -0.3468  0.9595 -0.2736
   29MOL   H46816204   2.382   5.460   5.474  1.1245  1.6464  0.8493
   29MOL   H46916205   2.138   5.373   5.486 -0.8898  1.6674  1.0971
   29MOL   H47016206   2.115   5.351   5.284 -0.4390  1.7116  3.5883
   29MOL   H47116207   2.066   5.654   5.362 -0.1148 -0.4574 -0.0504
   29MOL   H47216208   1.925   5.444   5.302 -1.7735  0.8686 -1.3419
   29MOL   H47316209   1.870   5.444   5.467  0.0241  1.8893  1.0716
   29MOL   H47416210   2.001   5.580   5.640 -0.5088  0.8109 -0.0932
   29MOL   H47516211   1.984   5.727   5.532 -1.7000 -0.1247  0.8488
   29MOL   H47616212   2.173   5.737   5.709 -1.1335  0.5618 -0.5275
   29MOL   H47716213   2.199   5.804   5.553 -0.2359 -0.0854 -0.6859
   29MOL   O47816214   1.819   5.615   5.359  1.0117 -0.1151  0.0944
   29MOL   C47916215   1.717   5.557   5.280 -0.5497 -0.5459  0.2345
   29MOL   C48016216   1.628   5.671   5.224 -0.9081  0.4394 -0.1314
   29MOL   O48116217   1.672   5.733   5.109 -0.6269 -0.0645 -0.4388
   29MOL   C48216218   1.484   5.621   5.194 -0.2368  0.2853 -0.4109
   29MOL   C48316219   1.486   5.521   5.081  1.0356 -0.4489  0.1881
   29MOL   C48416220   1.342   5.461   5.056  0.2529 -0.7131 -0.6074
   29MOL   O48516221   1.351   5.353   4.965  0.1144  0.3077  0.1309
   29MOL   C48616222   1.251   5.574   5.011 -0.0506 -0.3707 -0.1998
   29MOL   C48716223   1.106   5.527   4.976 -0.8230 -0.4791 -0.3744
   29MOL   C48816224   1.244   5.691   5.116 -0.2343  0.8952  0.1357
   29MOL   C48916225   1.389   5.738   5.161  0.4973 -0.4708 -0.4090
   29MOL   H49016226   1.659   5.489   5.342  0.6210  0.4743  2.5086
   29MOL   H49116227   1.759   5.496   5.200  0.4920  0.7986 -0.2842
   29MOL   H49216228   1.618   5.748   5.300 -1.7389 -1.2885  1.5339
   29MOL   H49316229   1.708   5.665   5.054 -0.3092 -0.5519  0.3608
   29MOL   H49416230   1.447   5.562   5.277  3.1366 -0.7063  0.4524
   29MOL   H49516231   1.529   5.563   4.990  0.8841 -0.6156  0.0396
   29MOL   H49616232   1.549   5.438   5.111  1.8937  0.3845  0.7381
   29MOL   H49716233   1.306   5.430   5.154  1.5318 -2.5512 -0.6903
   29MOL   H49816234   1.279   5.296   4.985 -0.1249  0.8000  0.6857
   29MOL   H49916235   1.297   5.611   4.920 -0.9674 -0.4301 -0.6909
   29MOL   H50016236   1.049   5.612   4.940  2.7322  1.1668 -2.3550
   29MOL   H50116237   1.095   5.447   4.902 -1.0619  0.5324 -1.4531
   29MOL   H50216238   1.184   5.668   5.203 -0.3276  0.3322 -0.0762
   29MOL   H50316239   1.192   5.781   5.085  0.4689  1.1009 -0.4667
   29MOL   H50416240   1.371   5.820   5.231 -2.1849 -0.1349 -1.4079
   29MOL   H50516241   1.422   5.791   5.071  1.5941 -0.1160  0.2044
   29MOL   O50616242   1.063   5.466   5.099 -0.0837 -0.1339 -0.2144
   29MOL   C50716243   0.925   5.418   5.089 -0.1379 -0.0100 -0.6967
   29MOL   C50816244   0.830   5.528   5.140 -0.0448  0.0184 -0.8131
   29MOL   O50916245   0.823   5.624   5.030  0.5414  0.0535 -0.5877
   29MOL   C51016246   0.684   5.481   5.159  0.4019 -0.0907 -0.2380
   29MOL   C51116247   0.602   5.427   5.037 -0.0243  0.1337 -0.2556
   29MOL   C51216248   0.465   5.384   5.076  0.1834  0.3330 -0.2215
   29MOL   O51316249   0.390   5.349   4.958  0.8011 -0.0687  0.5579
   29MOL   C51416250   0.383   5.496   5.138 -0.1557  0.4599  0.2706
   29MOL   C51516251   0.244   5.459   5.195 -0.1092  0.1586  0.7439
   29MOL   C51616252   0.456   5.563   5.256 -0.0187 -0.5495 -0.1969
   29MOL   C51716253   0.603   5.600   5.221  0.5759 -0.0745  0.5108
   29MOL   H51816254   0.911   5.329   5.151 -1.5477 -0.6786 -1.9557
   29MOL   H51916255   0.908   5.379   4.989  0.2726 -1.9369 -0.0307
   29MOL   H52016256   0.868   5.578   5.229 -1.7995 -1.9351  1.0817
   29MOL   H52116257   0.893   5.685   5.046 -0.3636  0.6675  1.1606
   29MOL   H52216258   0.688   5.404   5.237  0.1176 -1.5062 -1.5819
   29MOL   H52316259   0.584   5.505   4.963 -0.4642  0.3353  0.0640
   29MOL   H52416260   0.659   5.349   4.985 -0.6822 -0.7277  0.3065
   29MOL   H52516261   0.472   5.295   5.139  0.6979  0.2605 -0.3749
   29MOL   H52616262   0.334   5.278   4.985 -0.0399 -0.6045 -2.4084
   29MOL   H52716263   0.365   5.567   5.058 -2.8013 -0.4032  0.0446
   29MOL   H52816264   0.179   5.416   5.120  1.1584  0.6345 -0.6615
   29MOL   H52916265   0.249   5.383   5.272  0.3180 -1.4832 -0.8639
   29MOL   H53016266   0.449   5.496   5.341 -2.4029 -0.1640 -0.0753
   29MOL   H53116267   0.402   5.655   5.280 -2.4834 -1.9659 -0.1770
   29MOL   H53216268   0.653   5.629   5.312  0.2014  2.0429  0.0554
   29MOL   H53316269   0.608   5.696   5.170  1.3955 -0.1325  0.4728
   29MOL   O53416270   0.175   5.577   5.239 -0.3684  0.4280 -0.2252
   29MOL   C53516271   0.044   5.542   5.295  0.1872 -0.0255 -0.7820
   29MOL   C53616272   0.033   5.497   5.439 -0.2007  0.7082 -0.8160
   29MOL   O53716273   0.062   5.610   5.522  0.1557 -0.0793 -0.0939
   29MOL   C53816274   7.525   5.443   5.484 -0.2859 -0.1535 -0.2370
   29MOL   C53916275   7.506   5.313   5.410  0.2992 -0.1862 -0.5514
   29MOL   C54016276   7.369   5.256   5.439 -0.4524  0.4548  0.4427
   29MOL   O54116277   7.350   5.138   5.364 -0.3972  0.7955  0.1626
   29MOL   C54216278   7.253   5.354   5.400  0.4907  0.3821 -0.4194
   29MOL   C54316279   7.104   5.309   5.400  0.0136 -0.0419 -0.8144
   29MOL   C54416280   7.268   5.481   5.487  0.6091 -0.2722 -0.4968
   29MOL   C54516281   7.409   5.540   5.472  0.0676  0.0344 -0.0945
   29MOL   H54616282   0.008   5.461   5.231 -0.3330  0.5412 -1.2109
   29MOL   H54716283   7.608   5.625   5.268 -0.8612 -1.0462 -1.4385
   29MOL   H54816284   0.112   5.424   5.461  0.9846  2.6056  1.4695
   29MOL   H54916285   0.004   5.676   5.488 -0.2561 -0.1043  0.5661
   29MOL   H55016286   7.534   5.417   5.590  1.1212  0.8563 -0.0972
   29MOL   H55116287   7.503   5.327   5.302  0.0188  0.0614 -0.5127
   29MOL   H55216288   7.586   5.241   5.424 -0.0132 -0.5250 -0.4968
   29MOL   H55316289   7.351   5.214   5.538  1.4710 -0.2180  0.5311
   29MOL   H55416290   7.312   5.159   5.280 -2.1921  0.0986  0.7624
   29MOL   H55516291   7.265   5.393   5.299 -1.6367 -0.4453 -1.0265
   29MOL   H55616292   7.095   5.222   5.335  2.0875 -2.4554  2.0245
   29MOL   H55716293   7.063   5.291   5.500  0.0968  0.8037 -0.6262
   29MOL   H55816294   7.250   5.462   5.593 -1.4134  1.1667 -0.5630
   29MOL   H55916295   7.193   5.558   5.469 -0.7617 -1.4830  0.0074
   29MOL   H56016296   7.424   5.621   5.542  0.8163 -0.7207  0.6309
   29MOL   H56116297   7.421   5.586   5.374  0.9967 -1.7364 -0.8410
   29MOL   H56216298   7.042   5.386   5.354  0.7603 -0.2850 -2.2477
   30MOL     O116299   6.512   2.609   4.643 -0.2351 -0.3011 -0.1188
   30MOL     C216300   6.448   2.726   4.697 -0.2119 -0.2466 -0.6481
   30MOL     C316301   6.536   2.796   4.799 -0.4316  0.7123 -0.6733
   30MOL     O416302   6.663   2.808   4.737  0.3179  0.0611  0.1785
   30MOL     C516303   6.487   2.939   4.839 -0.3370  0.6398 -0.4589
   30MOL     C616304   6.598   3.016   4.914 -0.2565 -0.3867 -0.1096
   30MOL     C716305   6.551   3.156   4.963 -0.7201 -0.5859 -0.3364
   30MOL     O816306   6.648   3.195   5.051 -0.0715  0.2488 -0.2847
   30MOL     C916307   6.410   3.161   5.029 -0.1011  0.2591  0.1210
   30MOL    C1016308   6.348   3.300   5.054 -0.4378  0.4265  0.2116
   30MOL    C1116309   6.307   3.073   4.954  0.8208  0.0245  0.7624
   30MOL    C1216310   6.360   2.936   4.922 -0.1677 -0.3260  0.2434
   30MOL    H1316311   6.363   2.689   4.754  0.5857 -2.4788 -0.8553
   30MOL    H1416312   6.419   2.792   4.615  2.0949 -0.7140 -1.8783
   30MOL    H1516313   6.541   2.742   4.893 -3.4081  0.3094 -0.6875
   30MOL    H1616314   6.663   2.729   4.685  1.3687 -0.4271  0.8995
   30MOL    H1716315   6.476   2.993   4.745  0.1965  2.8363  0.7095
   30MOL    H1816316   6.616   2.949   4.999 -0.4346 -1.1458 -0.6636
   30MOL    H1916317   6.690   3.025   4.858  0.2174 -2.7988  0.2247
   30MOL    H2016318   6.551   3.225   4.878 -0.1925 -0.9374 -0.6218
   30MOL    H2116319   6.615   3.263   5.109 -2.4368  0.2278 -1.5555
   30MOL    H2216320   6.414   3.112   5.126 -1.7868  0.9840  0.5657
   30MOL    H2316321   6.417   3.369   5.100 -1.3289  0.4000  1.6307
   30MOL    H2416322   6.308   3.334   4.958  0.0378  0.3430 -0.0150
   30MOL    H2516323   6.278   3.126   4.864  3.3151 -0.4669 -0.3527
   30MOL    H2616324   6.218   3.052   5.015  2.6435 -0.1785  3.4376
   30MOL    H2716325   6.279   2.885   4.870 -0.4056  0.2681  0.0278
   30MOL    H2816326   6.372   2.885   5.018  0.2451  1.9130  1.3964
   30MOL    H2916327   6.450   2.558   4.594  1.1131 -0.0705 -2.1060
   30MOL    O3016328   6.243   3.281   5.146 -0.1019  0.1492 -0.2632
   30MOL    C3116329   6.144   3.379   5.129 -0.2445  0.3223 -0.4407
   30MOL    C3216330   6.065   3.384   5.268  0.4061  0.5390  0.5536
   30MOL    O3316331   6.004   3.513   5.295  0.0619  0.0556 -0.5717
   30MOL    C3416332   5.957   3.273   5.287 -0.3554 -0.4310  0.2370
   30MOL    C3516333   5.821   3.310   5.211 -0.3743 -0.0953  0.4717
   30MOL    C3616334   5.717   3.204   5.237 -0.3522 -0.0241 -0.0688
   30MOL    O3716335   5.601   3.248   5.167 -0.2780  0.3111 -0.2902
   30MOL    C3816336   5.692   3.179   5.386  0.4663 -0.2875  1.6532
   30MOL    C3916337   5.579   3.078   5.416  0.0436  0.1506 -0.1317
   30MOL    C4016338   5.820   3.142   5.457  0.2266 -0.0651  0.8532
   30MOL    C4116339   5.928   3.242   5.433  0.0222  0.1614  0.4111
   30MOL    H4216340   6.077   3.363   5.044 -0.8891  3.0309 -0.4740
   30MOL    H4316341   6.175   3.482   5.114  0.1627  0.2650  0.0066
   30MOL    H4416342   6.133   3.364   5.351  0.5854 -3.1409 -0.4314
   30MOL    H4516343   6.036   3.571   5.228 -0.0090  0.5799 -0.1590
   30MOL    H4616344   5.987   3.181   5.236 -0.8195  0.2763 -1.3625
   30MOL    H4716345   5.774   3.406   5.231 -0.9307 -0.1083 -0.6882
   30MOL    H4816346   5.844   3.307   5.104 -0.8465 -2.1365  0.4148
   30MOL    H4916347   5.740   3.104   5.198  1.3446 -0.0338  0.8876
   30MOL    H5016348   5.577   3.328   5.211  1.6463  0.0970  1.2101
   30MOL    H5116349   5.653   3.269   5.433 -2.3805 -1.2346  1.1832
   30MOL    H5216350   5.497   3.096   5.347  0.5064  0.9095 -0.4933
   30MOL    H5316351   5.605   2.974   5.393  0.4501 -0.2220  1.9590
   30MOL    H5416352   5.852   3.046   5.418  1.9654  1.8312 -2.5597
   30MOL    H5516353   5.803   3.126   5.564  1.9307  4.4515  1.9278
   30MOL    H5616354   6.013   3.197   5.484  0.0137 -2.6188 -1.9139
   30MOL    H5716355   5.908   3.337   5.482 -0.4158 -0.1568  0.8512
   30MOL    O5816356   5.542   3.082   5.549 -0.6961 -0.6261 -0.5524
   30MOL    C5916357   5.417   3.047   5.590 -0.3341  0.3435  0.0667
   30MOL    C6016358   5.398   2.891   5.568 -0.0565 -0.2434 -0.3026
   30MOL    O6116359   5.462   2.836   5.681  0.2281  0.4576  0.1259
   30MOL    C6216360   5.256   2.840   5.553  0.2073  0.0747 -0.7112
   30MOL    C6316361   5.187   2.880   5.413 -0.4360  0.7280 -0.6782
   30MOL    C6416362   5.045   2.821   5.397  0.3064  0.3715  0.4881
   30MOL    O6516363   5.003   2.855   5.266  0.2562 -0.1151 -0.2778
   30MOL    C6616364   4.953   2.868   5.514 -0.5479  0.4176  0.2272
   30MOL    C6716365   4.813   2.803   5.511 -0.1706 -0.5695  0.1241
   30MOL    C6816366   5.027   2.833   5.647 -0.7012  0.5361 -1.0680
   30MOL    C6916367   5.165   2.881   5.668 -0.8593 -0.0522 -0.1301
   30MOL    H7016368   5.340   3.103   5.538 -0.8567 -0.6330 -0.2387
   30MOL    H7116369   5.410   3.075   5.695  0.5443 -2.9612  1.0906
   30MOL    H7216370   5.454   2.859   5.480 -0.7774  0.1223 -0.9060
   30MOL    H7316371   5.535   2.895   5.692  1.8106 -1.0401 -1.7252
   30MOL    H7416372   5.250   2.732   5.561 -2.6394  0.2480  0.0450
   30MOL    H7516373   5.191   2.988   5.398  0.5384  1.0053  1.3182
   30MOL    H7616374   5.253   2.840   5.336  0.0691 -0.6855  0.4811
   30MOL    H7716375   5.049   2.712   5.401  0.6665  0.3529 -0.1988
   30MOL    H7816376   4.922   2.902   5.280  1.7286  2.8565 -1.4636
   30MOL    H7916377   4.948   2.976   5.501 -0.3597  0.4294  0.2433
   30MOL    H8016378   4.825   2.703   5.470 -0.3567 -0.4059 -0.3324
   30MOL    H8116379   4.771   2.797   5.611  1.3654  1.7900  0.9795
   30MOL    H8216380   5.039   2.725   5.656  2.2116  0.9309  0.3524
   30MOL    H8316381   4.968   2.873   5.729  2.0881 -0.2452  1.3696
   30MOL    H8416382   5.205   2.845   5.763  1.3085  1.0385 -0.5908
   30MOL    H8516383   5.160   2.990   5.678  2.4519  0.0504  0.9402
   30MOL    O8616384   4.725   2.870   5.418 -0.1035 -0.5896 -0.3929
   30MOL    C8716385   4.602   2.806   5.406 -0.1322 -0.0880  0.1226
   30MOL    C8816386   4.507   2.876   5.313  0.7424  0.7702  0.6837
   30MOL    O8916387   4.568   2.887   5.183 -0.6830 -0.1753  0.2970
   30MOL    C9016388   4.380   2.792   5.321 -0.7155  0.5156 -0.4165
   30MOL    C9116389   4.390   2.655   5.253  0.7691  0.9715  0.3358
   30MOL    C9216390   4.256   2.577   5.232 -0.7318 -0.9152  0.3890
   30MOL    O9316391   4.297   2.452   5.166 -0.3375 -0.3069  0.2519
   30MOL    C9416392   4.153   2.665   5.157 -0.4454  0.3052  0.4250
   30MOL    C9516393   4.018   2.603   5.149 -0.4205  0.1628 -0.0783
   30MOL    C9616394   4.136   2.796   5.232  0.3039  1.0973  0.3776
   30MOL    C9716395   4.269   2.871   5.247  0.2658  0.2867 -0.4827
   30MOL    H9816396   4.555   2.798   5.504 -0.4016 -1.4856 -0.1228
   30MOL    H9916397   4.617   2.701   5.381 -2.9494 -0.7916  1.2184
   30MOL   H10016398   4.484   2.975   5.351 -2.1662  0.3023  0.2572
   30MOL   H10116399   4.659   2.900   5.205 -1.2009  1.3405  1.6013
   30MOL   H10216400   4.345   2.785   5.424 -0.9406 -1.5776 -0.6218
   30MOL   H10316401   4.437   2.666   5.155 -0.6189 -0.5198 -0.5109
   30MOL   H10416402   4.469   2.588   5.287 -0.7266 -2.1842 -2.1459
   30MOL   H10516403   4.223   2.567   5.336  1.2284  1.1504  1.2583
   30MOL   H10616404   4.368   2.464   5.105  0.7571  0.3974  1.6230
   30MOL   H10716405   4.187   2.682   5.054 -1.9513  0.7078 -0.0206
   30MOL   H10816406   3.937   2.665   5.111 -0.3531  0.8784  0.9149
   30MOL   H10916407   4.015   2.529   5.070 -2.2401 -1.0535  1.0865
   30MOL   H11016408   4.095   2.773   5.330  2.8020 -1.6120  0.8644
   30MOL   H11116409   4.064   2.853   5.174  0.9271  0.9741 -0.5226
   30MOL   H11216410   4.259   2.967   5.296  0.4173 -0.0264  0.1591
   30MOL   H11316411   4.293   2.891   5.142 -0.6326  0.9767 -0.5616
   30MOL   O11416412   3.985   2.549   5.283 -0.2738  0.3967 -0.8406
   30MOL   C11516413   3.858   2.490   5.298  0.3072  0.1581  0.4863
   30MOL   C11616414   3.879   2.361   5.383  0.1243  0.3698 -0.5734
   30MOL   O11716415   3.969   2.275   5.317  0.2005 -0.0538  0.7787
   30MOL   C11816416   3.939   2.390   5.520 -0.0509  0.1129 -1.0665
   30MOL   C11916417   3.927   2.276   5.625 -0.8238  0.2379  0.4304
   30MOL   C12016418   3.985   2.309   5.768 -0.3314  0.4943  0.3620
   30MOL   O12116419   3.950   2.197   5.855  0.1678  0.3879  0.1293
   30MOL   C12216420   3.931   2.443   5.812  0.1270  0.3401 -0.0133
   30MOL   C12316421   3.969   2.478   5.961  0.3996 -0.6572 -1.3245
   30MOL   C12416422   3.973   2.550   5.721  0.3237 -0.0086 -0.1176
   30MOL   C12516423   3.893   2.522   5.587 -0.0760 -1.2154 -0.5353
   30MOL   H12616424   3.821   2.465   5.199 -0.1591 -1.8969  1.1499
   30MOL   H12716425   3.780   2.551   5.343 -0.3122 -0.2871  0.0248
   30MOL   H12816426   3.785   2.310   5.407  0.8627 -1.1636 -0.8779
   30MOL   H12916427   4.052   2.319   5.311 -0.1699  0.6165  0.5354
   30MOL   H13016428   4.044   2.411   5.504  0.0764 -0.3428 -0.8414
   30MOL   H13116429   3.828   2.230   5.626 -0.3147 -0.9671 -1.7805
   30MOL   H13216430   3.993   2.202   5.579  0.9895  2.7158 -1.0770
   30MOL   H13316431   4.093   2.317   5.760 -0.4716  2.1768 -0.0617
   30MOL   H13416432   3.856   2.191   5.845  0.0512 -1.8097  2.2286
   30MOL   H13516433   3.823   2.439   5.814  0.0714  1.7612  0.3981
   30MOL   H13616434   3.922   2.400   6.021  0.5040  1.4971  1.6174
   30MOL   H13716435   4.078   2.479   5.963  0.4274  0.4456 -2.6838
   30MOL   H13816436   4.081   2.557   5.706  0.1571  1.3477 -0.7203
   30MOL   H13916437   3.955   2.644   5.773 -0.9485 -0.6944  0.7053
   30MOL   H14016438   3.910   2.602   5.514 -0.5908  0.5063  1.1752
   30MOL   H14116439   3.784   2.516   5.586 -0.1842  0.4174  0.2359
   30MOL   O14216440   3.911   2.599   6.003 -0.1057 -0.7527  0.6553
   30MOL   C14316441   3.961   2.643   6.126 -0.1310  0.7585 -0.8442
   30MOL   C14416442   3.937   2.791   6.138 -0.0808  0.1940  0.4091
   30MOL   O14516443   3.801   2.821   6.152 -0.2168 -0.0905  0.3913
   30MOL   C14616444   4.017   2.850   6.256  0.1856 -0.7281  0.2253
   30MOL   C14716445   3.954   2.824   6.388 -0.1288 -0.3202  0.4220
   30MOL   C14816446   4.033   2.879   6.511  0.0797  0.4064  0.5104
   30MOL   O14916447   3.965   2.846   6.626 -0.2343 -0.0645  0.1923
   30MOL   C15016448   4.055   3.034   6.492 -0.0987  0.1947  0.8603
   30MOL   C15116449   4.132   3.109   6.607  1.0206  0.2952  0.0076
   30MOL   C15216450   4.121   3.058   6.357  0.1021  0.6453  0.0138
   30MOL   C15316451   4.036   3.005   6.242 -0.2277  0.1669 -1.5328
   30MOL   H15416452   4.069   2.628   6.135  0.0821  2.9150  0.4221
   30MOL   H15516453   3.918   2.592   6.212 -0.3481  1.5495 -0.4848
   30MOL   H15616454   3.977   2.843   6.051  0.6257 -1.6172 -0.3472
   30MOL   H15716455   3.761   2.801   6.069 -1.4889  0.0031  0.9711
   30MOL   H15816456   4.115   2.803   6.260 -1.0420 -3.4172 -0.3010
   30MOL   H15916457   3.859   2.875   6.398  0.2473  0.4246  0.2672
   30MOL   H16016458   3.938   2.716   6.394  1.9392 -0.6070  1.4252
   30MOL   H16116459   4.122   2.816   6.516  0.2521  0.6633  0.6867
   30MOL   H16216460   3.891   2.903   6.638  0.1128 -0.0144  2.4582
   30MOL   H16316461   3.960   3.084   6.482  0.4221  0.9776 -0.2415
   30MOL   H16416462   4.081   3.098   6.702  1.6979 -0.4779  0.2849
   30MOL   H16516463   4.232   3.066   6.611  0.7437 -0.4743 -0.9379
   30MOL   H16616464   4.220   3.014   6.350  0.0282 -0.0685  2.6119
   30MOL   H16716465   4.123   3.163   6.328  0.3122 -0.1134 -2.8465
   30MOL   H16816466   4.092   3.029   6.152  2.6516  0.6278  0.3432
   30MOL   H16916467   3.941   3.059   6.249  0.0776  0.5419 -0.1155
   30MOL   O17016468   4.138   3.247   6.567 -0.4743 -0.5983  0.0710
   30MOL   C17116469   4.210   3.334   6.659 -0.0484  0.3557  0.3595
   30MOL   C17216470   4.362   3.330   6.638 -0.6114 -0.1585 -0.5146
   30MOL   O17316471   4.430   3.226   6.712  0.3554  0.0587  0.5657
   30MOL   C17416472   4.417   3.316   6.490 -0.7792  0.2985 -0.0908
   30MOL   C17516473   4.571   3.328   6.481 -0.5040 -0.3234  0.3596
   30MOL   C17616474   4.636   3.334   6.343  0.7586  0.6816  0.1984
   30MOL   O17716475   4.778   3.330   6.354  0.4119  0.2280  0.2374
   30MOL   C17816476   4.583   3.457   6.262  0.0910 -0.0927 -0.1166
   30MOL   C17916477   4.636   3.461   6.117 -0.3349 -0.4597  0.3226
   30MOL   C18016478   4.426   3.451   6.265 -0.3108  0.1407  0.0126
   30MOL   C18116479   4.375   3.440   6.407 -0.1229  0.1575 -0.0782
   30MOL   H18216480   4.181   3.326   6.764 -0.8493 -2.6827 -0.0548
   30MOL   H18316481   4.167   3.431   6.637  0.0640  0.2242 -0.4604
   30MOL   H18416482   4.404   3.425   6.674 -0.9374 -0.2498  0.1047
   30MOL   H18516483   4.362   3.161   6.723  0.1404  0.2048  0.1308
   30MOL   H18616484   4.386   3.223   6.444 -0.2581  0.4363 -0.7336
   30MOL   H18716485   4.612   3.410   6.540 -2.0269  0.1695  0.7620
   30MOL   H18816486   4.612   3.232   6.511  2.2158  0.8166  0.4454
   30MOL   H18916487   4.616   3.247   6.281  0.6272  0.5777  0.3849
   30MOL   H19016488   4.797   3.257   6.411  1.3250  0.0754 -0.2630
   30MOL   H19116489   4.617   3.552   6.306 -0.6103 -0.4495  1.2397
   30MOL   H19216490   4.745   3.459   6.115 -0.2969  1.5730 -0.9407
   30MOL   H19316491   4.596   3.374   6.065 -1.7900  0.9205 -0.9265
   30MOL   H19416492   4.384   3.373   6.201 -0.3691 -1.6866  2.2016
   30MOL   H19516493   4.391   3.540   6.213 -1.3681 -0.5706 -0.5301
   30MOL   H19616494   4.266   3.447   6.406 -0.0940  1.1121  1.4752
   30MOL   H19716495   4.391   3.534   6.461  1.0180  1.9113 -3.3714
   30MOL   O19816496   4.602   3.585   6.057  0.3993  0.4287  0.3737
   30MOL   C19916497   4.639   3.588   5.918  0.6955  0.2648 -0.2598
   30MOL   C20016498   4.514   3.572   5.835  0.6997  0.0041 -0.9253
   30MOL   O20116499   4.473   3.705   5.807 -0.0709 -0.1454  0.3745
   30MOL   C20216500   4.542   3.489   5.712 -0.5494  0.1287 -0.2264
   30MOL   C20316501   4.549   3.345   5.741 -0.4891 -0.2095 -0.5263
   30MOL   C20416502   4.577   3.249   5.627 -0.4855  0.4300 -0.2049
   30MOL   O20516503   4.610   3.124   5.687  0.4477  0.0091 -0.1641
   30MOL   C20616504   4.698   3.298   5.545 -0.1251 -0.5243  0.1649
   30MOL   C20716505   4.718   3.213   5.415  0.6566 -0.0018 -0.6011
   30MOL   C20816506   4.680   3.446   5.510  0.1993 -0.4516  0.3878
   30MOL   C20916507   4.671   3.536   5.630  0.4707  0.0434 -0.9251
   30MOL   H21016508   4.724   3.521   5.905  0.1904 -0.5884  0.7905
   30MOL   H21116509   4.685   3.686   5.907 -0.0039  0.4779 -1.4341
   30MOL   H21216510   4.437   3.521   5.892 -0.0288  3.0203  0.9122
   30MOL   H21316511   4.470   3.757   5.886 -0.7623 -0.6910  0.7121
   30MOL   H21416512   4.449   3.489   5.655 -0.4914  1.7549 -0.3346
   30MOL   H21516513   4.633   3.333   5.809 -0.5293 -1.0648 -0.6264
   30MOL   H21616514   4.455   3.309   5.784  0.6897 -3.0502 -0.2873
   30MOL   H21716515   4.492   3.238   5.559 -0.3888  0.2536 -0.2995
   30MOL   H21816516   4.696   3.097   5.660 -0.0207 -0.7482 -0.9277
   30MOL   H21916517   4.793   3.292   5.598  0.0596  2.0391  0.1516
   30MOL   H22016518   4.811   3.245   5.368  1.2332  0.3279  0.7418
   30MOL   H22116519   4.726   3.111   5.452 -0.4100  0.5305  1.1805
   30MOL   H22216520   4.593   3.445   5.444 -1.7081 -0.7394  2.8137
   30MOL   H22316521   4.762   3.470   5.444 -0.8052 -0.4132 -0.8683
   30MOL   H22416522   4.663   3.637   5.589 -1.1949  0.7816  1.1742
   30MOL   H22516523   4.765   3.541   5.685 -0.1009  2.0346 -0.0536
   30MOL   O22616524   4.602   3.213   5.333  0.1794  0.7924  0.0952
   30MOL   C22716525   4.625   3.240   5.197  0.7622 -0.2161  0.8183
   30MOL   C22816526   4.604   3.385   5.170 -0.3357 -0.4297  0.1312
   30MOL   O22916527   4.653   3.410   5.036 -0.2631 -0.5001  0.3541
   30MOL   C23016528   4.457   3.435   5.184  0.6240 -0.7585 -0.7692
   30MOL   C23116529   4.354   3.375   5.088 -0.0120  0.6320  0.4281
   30MOL   C23216530   4.211   3.441   5.103  0.7285  0.0133  0.1751
   30MOL   O23316531   4.124   3.388   5.007  0.3892 -0.2720 -0.2985
   30MOL   C23416532   4.214   3.594   5.078  0.6200 -0.5034  0.1938
   30MOL   C23516533   4.069   3.657   5.078 -0.5437  0.3291  0.0608
   30MOL   C23616534   4.306   3.664   5.172  0.5268 -0.3910 -0.4294
   30MOL   C23716535   4.449   3.594   5.170 -0.0224  0.2271 -0.1495
   30MOL   H23816536   4.552   3.194   5.131  1.0267 -0.0724  0.4214
   30MOL   H23916537   4.726   3.218   5.163  0.7263  1.0359 -0.1317
   30MOL   H24016538   4.670   3.439   5.239 -1.2788  2.1654 -0.9168
   30MOL   H24116539   4.636   3.336   4.980 -1.1256 -0.0444 -0.0040
   30MOL   H24216540   4.414   3.413   5.282  2.8640  4.7237  1.6966
   30MOL   H24316541   4.386   3.384   4.984 -0.8540  0.2882  0.1350
   30MOL   H24416542   4.346   3.269   5.109 -3.2329  1.0882  1.9803
   30MOL   H24516543   4.175   3.428   5.206  0.9441 -0.7013  0.1653
   30MOL   H24616544   4.041   3.422   5.036  0.9926  0.3541  0.7426
   30MOL   H24716545   4.258   3.602   4.978 -1.9590 -0.9885 -1.0078
   30MOL   H24816546   4.006   3.586   5.024  1.2600 -0.4243 -1.1087
   30MOL   H24916547   4.034   3.646   5.180 -1.3454  1.1443 -0.1215
   30MOL   H25016548   4.275   3.656   5.277  0.7943  1.7470 -0.1638
   30MOL   H25116549   4.306   3.770   5.145 -1.6895 -0.9644 -2.8033
   30MOL   H25216550   4.509   3.634   5.251  0.2207  2.2253 -1.2783
   30MOL   H25316551   4.504   3.620   5.080  2.8624 -3.0479  0.5815
   30MOL   O25416552   4.061   3.787   5.012  0.0726 -0.2033 -0.5489
   30MOL   C25516553   4.083   3.791   4.868 -0.2767  0.4931 -0.2592
   30MOL   C25616554   4.015   3.911   4.806 -0.1056 -0.1688  0.3465
   30MOL   O25716555   4.089   3.977   4.706  0.7422  0.5606 -0.0129
   30MOL   C25816556   3.880   3.866   4.744  0.5381  0.6089 -0.0329
   30MOL   C25916557   3.808   3.982   4.667 -0.6539  0.3683 -0.3033
   30MOL   C26016558   3.665   3.938   4.617  0.1014 -0.7457 -0.5636
   30MOL   O26116559   3.610   4.058   4.565 -0.7049  0.1640 -0.0990
   30MOL   C26216560   3.576   3.886   4.733  0.6183 -0.2368 -0.5039
   30MOL   C26316561   3.435   3.838   4.684  0.0352 -0.3045  0.0203
   30MOL   C26416562   3.646   3.766   4.804 -0.1731 -0.0633 -0.1564
   30MOL   C26516563   3.791   3.805   4.861 -0.2439 -0.7335  0.5610
   30MOL   H26616564   4.040   3.704   4.820  0.1919 -0.1230  0.4299
   30MOL   H26716565   4.192   3.798   4.865 -0.2619 -0.2972 -3.6005
   30MOL   H26816566   4.010   3.987   4.885  1.2192 -2.3083  2.5521
   30MOL   H26916567   4.113   4.063   4.737  0.7298  0.6933 -0.3704
   30MOL   H27016568   3.892   3.787   4.670  3.1607  0.8398  0.0848
   30MOL   H27116569   3.811   4.068   4.733  0.8285 -1.0744  1.5525
   30MOL   H27216570   3.868   4.004   4.579  0.9861  0.8369  0.9172
   30MOL   H27316571   3.669   3.860   4.542  1.5162  0.5868 -1.9109
   30MOL   H27416572   3.600   4.113   4.642 -0.4832  0.4311 -0.2579
   30MOL   H27516573   3.575   3.966   4.807  4.9233 -0.5732  0.0128
   30MOL   H27616574   3.370   3.915   4.642  0.6423 -0.1842 -0.7055
   30MOL   H27716575   3.454   3.776   4.596 -0.6968  0.0947 -0.4241
   30MOL   H27816576   3.656   3.684   4.733  1.8091  0.6254 -0.7099
   30MOL   H27916577   3.588   3.734   4.890 -0.0035  1.4819  0.5583
   30MOL   H28016578   3.839   3.720   4.910 -1.4890 -1.0945  1.1948
   30MOL   H28116579   3.784   3.876   4.944  1.7939  0.6532 -0.4153
   30MOL   O28216580   3.355   3.775   4.789 -0.3051 -0.1815  0.5622
   30MOL   C28316581   3.293   3.876   4.865  0.2112 -0.1599  0.0826
   30MOL   C28416582   3.144   3.882   4.814 -0.3893 -0.5911  0.0733
   30MOL   O28516583   3.096   3.748   4.842 -0.0073 -0.7088 -0.7794
   30MOL   C28616584   3.056   3.997   4.888  0.0065  0.6608  1.5526
   30MOL   C28716585   2.910   3.982   4.842 -0.2089  0.6284 -0.0910
   30MOL   C28816586   2.814   4.088   4.904  0.0791 -0.3472  0.1682
   30MOL   O28916587   2.687   4.068   4.844  0.1559 -0.2936 -0.2095
   30MOL   C29016588   2.870   4.229   4.881  0.0834 -0.1519 -0.0802
   30MOL   C29116589   2.783   4.328   4.950  0.0211  0.2159 -0.4579
   30MOL   C29216590   3.023   4.238   4.929 -0.3489  0.1199  0.1702
   30MOL   C29316591   3.107   4.138   4.848  0.7565 -0.8302 -0.2260
   30MOL   H29416592   3.339   3.974   4.860 -0.1180 -0.1053 -2.8770
   30MOL   H29516593   3.306   3.848   4.969  1.0411 -2.1743 -0.5342
   30MOL   H29616594   3.153   3.904   4.708  1.2282 -1.5452 -0.0133
   30MOL   H29716595   3.145   3.691   4.784 -0.0096 -1.4419 -0.0696
   30MOL   H29816596   3.070   3.969   4.993  0.7265  0.1345  1.3169
   30MOL   H29916597   2.903   3.978   4.733 -0.2794  0.8145 -0.0925
   30MOL   H30016598   2.875   3.886   4.881  0.1936  0.3763 -0.3436
   30MOL   H30116599   2.806   4.054   5.007  0.2566 -1.7102 -0.2594
   30MOL   H30216600   2.631   4.133   4.884  0.6671  0.4801 -0.7172
   30MOL   H30316601   2.865   4.258   4.776  1.5800  0.2853 -0.0425
   30MOL   H30416602   2.682   4.326   4.910  0.1327 -0.4289 -0.7092
   30MOL   H30516603   2.788   4.307   5.057  2.3559  0.7516 -0.4328
   30MOL   H30616604   3.039   4.226   5.036  1.0176 -0.7423 -0.1186
   30MOL   H30716605   3.063   4.334   4.899 -1.7931  1.3345  2.0398
   30MOL   H30816606   3.212   4.140   4.877  0.5140  1.5905  0.5309
   30MOL   H30916607   3.104   4.151   4.739  0.5403 -0.2695 -0.1523
   30MOL   O31016608   2.838   4.460   4.941 -0.1675 -0.1806  0.7282
   30MOL   C31116609   2.785   4.562   5.022 -0.5461  0.3823 -0.0014
   30MOL   C31216610   2.889   4.672   5.039  0.2955  0.0799  0.3564
   30MOL   O31316611   2.986   4.637   5.131 -0.2294 -0.0925  0.0839
   30MOL   C31416612   2.950   4.731   4.908  0.1395 -0.9010 -0.2299
   30MOL   C31516613   3.040   4.634   4.834  0.0259  0.1375 -0.2325
   30MOL   C31616614   3.111   4.692   4.709  0.0565 -0.0119 -0.9938
   30MOL   O31716615   3.203   4.599   4.673 -0.0235  0.2379 -0.3376
   30MOL   C31816616   3.183   4.825   4.747  0.4361  1.1089 -1.2562
   30MOL   C31916617   3.249   4.894   4.628  0.3300  0.3184  0.1028
   30MOL   C32016618   3.088   4.919   4.815 -0.3994  0.9153  0.4648
   30MOL   C32116619   3.028   4.852   4.940 -0.3271 -0.3770  0.1253
   30MOL   H32216620   2.754   4.527   5.120  1.3506  2.8095  1.5339
   30MOL   H32316621   2.702   4.605   4.966 -1.0647 -0.9930 -0.2953
   30MOL   H32416622   2.827   4.753   5.077 -1.1769 -1.0757  0.4676
   30MOL   H32516623   2.957   4.554   5.166 -1.5448 -0.4792 -1.8439
   30MOL   H32616624   2.861   4.749   4.848 -0.6338  0.2784  1.2396
   30MOL   H32716625   3.123   4.612   4.900  0.6994  0.3796 -0.9865
   30MOL   H32816626   3.000   4.540   4.797 -2.0522  0.6078  0.7753
   30MOL   H32916627   3.039   4.716   4.630 -0.4608 -1.1365 -0.8695
   30MOL   H33016628   3.275   4.594   4.735  0.4783  0.9248 -0.8480
   30MOL   H33116629   3.258   4.805   4.823 -1.2547  0.3489  0.2322
   30MOL   H33216630   3.168   4.927   4.563  0.1111  2.2024  1.3058
   30MOL   H33316631   3.289   4.988   4.664 -0.1915  0.6976 -0.3092
   30MOL   H33416632   3.006   4.943   4.747 -1.1683 -3.5407 -0.3132
   30MOL   H33516633   3.127   5.015   4.849 -1.0018  0.8021  1.4979
   30MOL   H33616634   2.960   4.927   4.980 -1.3807 -0.7165 -1.0163
   30MOL   H33716635   3.099   4.841   5.023  1.3543 -1.7444 -1.4294
   30MOL   O33816636   3.357   4.804   4.576 -0.9890 -0.3697  0.4865
   30MOL   C33916637   3.438   4.859   4.465  1.4019 -0.2034  0.0352
   30MOL   C34016638   3.581   4.804   4.475  0.4747 -0.6946  0.4796
   30MOL   O34116639   3.635   4.858   4.594 -0.6600 -0.3749  0.2454
   30MOL   C34216640   3.580   4.646   4.461 -0.7133  0.0468  0.2326
   30MOL   C34316641   3.704   4.583   4.531 -0.0529  0.3967 -0.1875
   30MOL   C34416642   3.727   4.431   4.509 -0.1031  0.3324  0.5284
   30MOL   O34516643   3.851   4.407   4.576 -0.2586  0.7735 -0.0322
   30MOL   C34616644   3.727   4.418   4.355  0.7127  0.4417 -0.0116
   30MOL   C34716645   3.761   4.274   4.315 -0.0960 -0.0710  0.6974
   30MOL   C34816646   3.591   4.456   4.286 -0.5178 -0.1704  0.2034
   30MOL   C34916647   3.580   4.607   4.311  0.0222 -0.6042  0.4558
   30MOL   H35016648   3.443   4.968   4.462  0.2728 -0.1690 -0.8954
   30MOL   H35116649   3.401   4.829   4.367  0.0766  1.9626 -0.1699
   30MOL   H35216650   3.649   4.840   4.398 -0.8545  1.7347  0.3850
   30MOL   H35316651   3.561   4.870   4.651 -0.9622  0.7523 -0.3651
   30MOL   H35416652   3.492   4.614   4.518 -1.1466 -0.3843 -0.6621
   30MOL   H35516653   3.792   4.637   4.496  1.2577 -0.9182  1.0512
   30MOL   H35616654   3.703   4.605   4.638 -0.4608  0.9096 -0.2925
   30MOL   H35716655   3.650   4.369   4.555 -1.5752  2.0475  0.4523
   30MOL   H35816656   3.839   4.391   4.669  0.4375 -1.0736 -0.2454
   30MOL   H35916657   3.804   4.484   4.315 -0.0462  2.7705  2.2400
   30MOL   H36016658   3.808   4.270   4.217 -1.5558 -1.0411  0.0120
   30MOL   H36116659   3.838   4.238   4.383  1.9143  0.9229 -1.0044
   30MOL   H36216660   3.506   4.407   4.334 -1.2046 -0.2961 -1.1291
   30MOL   H36316661   3.593   4.430   4.181 -3.3098  0.3642 -0.0413
   30MOL   H36416662   3.489   4.640   4.262  1.0877  0.9331 -0.5267
   30MOL   H36516663   3.665   4.654   4.261  1.1181 -1.3717  1.5617
   30MOL   O36616664   3.647   4.192   4.334  0.3265  0.0244 -0.2770
   30MOL   C36716665   3.619   4.119   4.219 -0.3675  0.4473 -0.3324
   30MOL   C36816666   3.481   4.054   4.230  0.5873 -0.1278  0.1649
   30MOL   O36916667   3.494   3.956   4.333 -0.5429  0.3281 -0.0675
   30MOL   C37016668   3.372   4.159   4.264  0.6753  0.1702  0.3407
   30MOL   C37116669   3.362   4.195   4.415 -0.3002 -0.5923 -0.3063
   30MOL   C37216670   3.254   4.305   4.456  0.0929  0.9029 -0.2379
   30MOL   O37316671   3.264   4.306   4.603 -0.6208 -0.3129  0.2727
   30MOL   C37416672   3.114   4.257   4.405 -0.1205 -0.6650 -0.4976
   30MOL   C37516673   3.013   4.371   4.428 -0.1524 -0.6959  0.3259
   30MOL   C37616674   3.121   4.207   4.262  0.2530  0.2660  0.5030
   30MOL   C37716675   3.235   4.098   4.234 -0.4299  0.0040  0.2409
   30MOL   H37816676   3.698   4.046   4.208  1.9631  2.9770 -0.8250
   30MOL   H37916677   3.622   4.183   4.131 -1.9452  0.1493 -0.6252
   30MOL   H38016678   3.457   3.995   4.142  1.2222  4.2767 -3.1497
   30MOL   H38116679   3.521   3.996   4.414  3.0812 -2.0710 -0.0013
   30MOL   H38216680   3.390   4.243   4.197  0.8771  0.7085  1.0749
   30MOL   H38316681   3.343   4.106   4.475 -1.9317  0.7984  1.3062
   30MOL   H38416682   3.460   4.211   4.458 -0.6114 -1.5588  0.7943
   30MOL   H38516683   3.284   4.403   4.418  4.7224  0.9703  3.1850
   30MOL   H38616684   3.201   4.369   4.635 -1.3852 -2.0254  2.2632
   30MOL   H38716685   3.073   4.177   4.467 -2.5029 -0.0225 -1.2126
   30MOL   H38816686   3.004   4.402   4.532  0.0980 -0.1131  0.1774
   30MOL   H38916687   3.040   4.470   4.391 -0.6663  0.1659  2.1885
   30MOL   H39016688   3.149   4.295   4.204  3.1550 -0.2469  1.0783
   30MOL   H39116689   3.022   4.193   4.219  0.0209  2.3757  0.2638
   30MOL   H39216690   3.224   4.063   4.132  0.4368 -0.3219  0.2501
   30MOL   H39316691   3.230   4.017   4.307 -0.1445  0.7017  1.0535
   30MOL   O39416692   2.885   4.338   4.377  0.0981  0.1382 -0.0629
   30MOL   C39516693   2.818   4.434   4.285 -0.9971  0.0958 -0.4422
   30MOL   C39616694   2.793   4.574   4.353 -0.2043  0.2721 -0.3388
   30MOL   O39716695   2.711   4.656   4.268  0.2709 -0.4988 -0.2221
   30MOL   C39816696   2.717   4.547   4.487 -0.8019  0.3492  0.0042
   30MOL   C39916697   2.588   4.460   4.476  0.0768 -0.5300 -0.0590
   30MOL   C40016698   2.523   4.440   4.613 -0.1213 -0.8981 -0.6339
   30MOL   O40116699   2.397   4.367   4.593 -0.0709 -0.1920 -0.3093
   30MOL   C40216700   2.484   4.578   4.669  0.2800 -0.8725 -0.1532
   30MOL   C40316701   2.413   4.570   4.808 -0.5876  0.8119 -0.0457
   30MOL   C40416702   2.613   4.669   4.680  0.5205 -0.4693 -0.8008
   30MOL   C40516703   2.683   4.686   4.551  1.0639 -0.3514 -0.2316
   30MOL   H40616704   2.726   4.383   4.255  0.2636 -2.4293 -0.1197
   30MOL   H40716705   2.878   4.445   4.195 -0.4411 -3.1224 -0.5140
   30MOL   H40816706   2.879   4.632   4.385 -0.0865 -0.2086  0.2263
   30MOL   H40916707   2.713   4.741   4.310  1.0678 -0.4307 -0.3875
   30MOL   H41016708   2.793   4.503   4.551 -1.2963  0.3513  0.6001
   30MOL   H41116709   2.520   4.514   4.410  0.7369 -0.7994 -0.9620
   30MOL   H41216710   2.612   4.367   4.426 -0.6457  0.3228 -2.0366
   30MOL   H41316711   2.599   4.389   4.673 -1.2573 -0.6700  1.0205
   30MOL   H41416712   2.374   4.388   4.504  0.7255 -2.0211 -0.9580
   30MOL   H41516713   2.404   4.618   4.606 -0.0873 -0.3720  0.6290
   30MOL   H41616714   2.319   4.515   4.817 -1.7594  2.9847  1.6788
   30MOL   H41716715   2.475   4.521   4.883 -2.0212 -1.1485 -0.0977
   30MOL   H41816716   2.688   4.624   4.746 -1.9589 -1.1000  1.6863
   30MOL   H41916717   2.594   4.770   4.716  2.5977  0.5149 -2.3641
   30MOL   H42016718   2.777   4.741   4.558  0.5757  0.3476  0.7934
   30MOL   H42116719   2.611   4.732   4.483 -0.4457  0.0530  1.5885
   30MOL   O42216720   2.377   4.707   4.836 -0.1392  0.5207  0.0290
   30MOL   C42316721   2.312   4.721   4.965  0.5905  0.7369  0.1709
   30MOL   C42416722   2.274   4.873   4.986 -0.0973  0.4507  0.0167
   30MOL   O42516723   2.196   4.890   4.871 -0.0963 -0.1879  0.7783
   30MOL   C42616724   2.197   4.900   5.117 -0.1200 -0.4340 -0.0967
   30MOL   C42716725   2.125   5.041   5.125 -0.9015  0.0680 -0.6864
   30MOL   C42816726   2.056   5.061   5.264  0.8208 -0.8126 -0.0263
   30MOL   O42916727   2.013   5.197   5.260  0.4354 -0.7917 -0.5250
   30MOL   C43016728   2.148   5.042   5.388  0.2029  0.4551 -0.6196
   30MOL   C43116729   2.070   5.068   5.519 -0.1006  0.8663 -0.2280
   30MOL   C43216730   2.225   4.910   5.380 -0.5624 -0.2107 -0.6782
   30MOL   C43316731   2.294   4.900   5.241 -0.3821 -0.1041 -0.2785
   30MOL   H43416732   2.379   4.689   5.045 -0.0763 -2.6496 -0.5511
   30MOL   H43516733   2.224   4.656   4.975  1.4679 -0.0868  3.1840
   30MOL   H43616734   2.360   4.939   4.973  0.0834  0.4188  0.9791
   30MOL   H43716735   2.229   4.838   4.799 -1.8030 -1.2073  0.6874
   30MOL   H43816736   2.118   4.825   5.125 -0.6685 -0.1391 -2.4327
   30MOL   H43916737   2.196   5.119   5.097 -0.7532 -0.7683 -2.6926
   30MOL   H44016738   2.041   5.034   5.056 -0.5549  0.6989 -1.1770
   30MOL   H44116739   1.964   5.004   5.279 -0.1509  0.5727 -0.6140
   30MOL   H44216740   1.931   5.194   5.214 -1.9049 -0.2015  3.4155
   30MOL   H44316741   2.222   5.122   5.388  0.4084  0.2647 -0.6756
   30MOL   H44416742   1.973   5.118   5.511 -0.7423 -0.4162 -0.5836
   30MOL   H44516743   2.047   4.970   5.561  1.0273 -0.9005 -3.6050
   30MOL   H44616744   2.158   4.828   5.406 -0.8598  0.5556  1.0369
   30MOL   H44716745   2.296   4.916   5.463 -1.4724  0.3220  0.0669
   30MOL   H44816746   2.366   4.818   5.243  2.2868  2.1613  0.0138
   30MOL   H44916747   2.352   4.992   5.242 -0.5191 -0.0221  0.7943
   30MOL   O45016748   2.161   5.111   5.617 -0.1751  0.4131  1.0154
   30MOL   C45116749   2.098   5.159   5.729  0.8876 -0.1599 -0.3827
   30MOL   C45216750   2.210   5.193   5.832  0.6748  0.0185  0.1485
   30MOL   O45316751   2.273   5.303   5.769  0.0674 -0.4204 -0.1898
   30MOL   C45416752   2.160   5.228   5.982  0.5655 -0.1424 -0.2367
   30MOL   C45516753   2.059   5.347   5.975 -0.2159 -0.1788 -0.4268
   30MOL   C45616754   2.023   5.395   6.118 -0.1873  0.4247 -0.7191
   30MOL   O45716755   1.961   5.524   6.116  0.5952  0.3989  0.0125
   30MOL   C45816756   2.150   5.415   6.214 -0.5288 -0.5006 -0.7279
   30MOL   C45916757   2.118   5.448   6.359 -0.7663  0.4065  0.1584
   30MOL   C46016758   2.245   5.291   6.213  0.3951 -0.4779  0.6479
   30MOL   C46116759   2.284   5.264   6.070 -0.5930 -0.4001  0.2497
   30MOL   H46216760   2.023   5.090   5.767  0.9502  0.5978  1.1708
   30MOL   H46316761   2.036   5.244   5.700  2.2520  1.1663  0.4965
   30MOL   H46416762   2.265   5.098   5.840 -1.3641 -1.3369 -1.5066
   30MOL   H46516763   2.301   5.273   5.684  0.4153 -1.9640  0.4646
   30MOL   H46616764   2.107   5.143   6.024 -0.1492  0.3187 -0.1960
   30MOL   H46716765   2.108   5.430   5.923 -2.4425  0.6287 -1.2815
   30MOL   H46816766   1.964   5.318   5.931 -1.0468 -0.6782  1.6523
   30MOL   H46916767   1.957   5.319   6.161 -1.1595  0.3692 -2.2940
   30MOL   H47016768   1.984   5.563   6.199 -0.2591 -0.5710  0.7118
   30MOL   H47116769   2.213   5.491   6.169  0.2086 -0.1013  0.9527
   30MOL   H47216770   2.030   5.398   6.400 -1.1458  2.5232  2.0385
   30MOL   H47316771   2.206   5.418   6.416  0.1697  0.1963 -1.3587
   30MOL   H47416772   2.194   5.204   6.253 -0.4408  0.8804  2.6289
   30MOL   H47516773   2.336   5.304   6.272 -0.0845 -3.3524  2.0927
   30MOL   H47616774   2.351   5.178   6.081 -1.5424 -1.0320  1.1401
   30MOL   H47716775   2.338   5.342   6.017  1.1011 -1.7182 -0.0477
   30MOL   O47816776   2.113   5.585   6.381  0.0611 -0.2014  0.3409
   30MOL   C47916777   2.056   5.623   6.507 -0.4308 -0.0211 -0.0858
   30MOL   C48016778   2.077   5.777   6.509  0.1371 -0.4967 -0.2297
   30MOL   O48116779   2.018   5.832   6.391  0.0140  0.3345 -0.0204
   30MOL   C48216780   2.024   5.848   6.636  0.1978 -0.7338 -0.1040
   30MOL   C48316781   1.871   5.836   6.656  0.2788 -0.6150  0.7787
   30MOL   C48416782   1.825   5.914   6.783 -0.4833  0.0350 -1.3182
   30MOL   O48516783   1.684   5.904   6.804 -0.5430  0.2093 -1.2180
   30MOL   C48616784   1.863   6.059   6.790 -0.0252  0.0414 -0.0265
   30MOL   C48716785   1.830   6.120   6.930 -0.0321 -0.6626 -0.0186
   30MOL   C48816786   2.012   6.075   6.763 -0.0760  0.0337  0.3171
   30MOL   C48916787   2.056   5.999   6.635 -0.0107  0.0197 -0.4593
   30MOL   H49016788   2.106   5.578   6.593  0.4263  1.3243  0.1300
   30MOL   H49116789   1.949   5.603   6.499 -0.6916  1.9526 -1.8678
   30MOL   H49216790   2.181   5.807   6.494  0.0966  0.3106  0.9766
   30MOL   H49316791   2.046   5.791   6.311 -1.3333 -0.0396 -0.3142
   30MOL   H49416792   2.075   5.815   6.726  1.7789  3.0957  0.5062
   30MOL   H49516793   1.810   5.871   6.573  1.5232  1.3432  0.6590
   30MOL   H49616794   1.846   5.730   6.659 -1.2775 -0.2646  0.5009
   30MOL   H49716795   1.877   5.870   6.868  0.1189  2.6257 -0.3228
   30MOL   H49816796   1.643   5.985   6.778  0.9414  1.7513  1.1311
   30MOL   H49916797   1.805   6.108   6.711 -0.6773  0.8054  0.9150
   30MOL   H50016798   1.729   6.109   6.968 -0.0108  2.8534  1.3380
   30MOL   H50116799   1.893   6.088   7.013  0.4032 -2.9384 -1.1997
   30MOL   H50216800   2.068   6.037   6.848  0.3011  1.0810  0.5394
   30MOL   H50316801   2.042   6.179   6.755  0.7661 -0.2180  0.0611
   30MOL   H50416802   2.165   5.999   6.629  0.0592  0.6045  0.7389
   30MOL   H50516803   2.022   6.058   6.550  0.0530  0.6351 -0.0594
   30MOL   O50616804   1.839   6.262   6.898 -0.4322 -0.2800 -0.4639
   30MOL   C50716805   1.800   6.342   7.006 -0.7328 -0.1115  0.0906
   30MOL   C50816806   1.656   6.375   6.998  0.5890  0.1021  0.2727
   30MOL   O50916807   1.584   6.371   7.123  0.1499  0.4150 -0.3371
   30MOL   C51016808   1.623   6.509   6.923 -1.0379 -0.1526 -0.1832
   30MOL   C51116809   1.646   6.631   7.027  0.7084  1.0440 -0.2080
   30MOL   C51216810   1.602   6.766   6.974  0.9336  0.4682 -0.3257
   30MOL   O51316811   1.599   6.862   7.078 -0.1260  0.4177  0.5831
   30MOL   C51416812   1.474   6.769   6.901  0.1695 -0.0921  0.6158
   30MOL   C51516813   1.457   6.901   6.831  0.5518  0.4676  0.4802
   30MOL   C51616814   1.467   6.658   6.794 -0.0956  0.1227  0.5031
   30MOL   C51716815   1.479   6.522   6.866 -0.4694 -0.1321 -0.1135
   30MOL   H51816816   1.862   6.431   6.998  1.1336 -1.5665 -2.4096
   30MOL   H51916817   1.829   6.297   7.100 -0.7208 -0.3051 -0.0046
   30MOL   H52016818   1.605   6.304   6.933  2.3037 -0.8767 -0.0165
   30MOL   H52116819   1.497   6.343   7.098 -0.0198  0.6207  0.0240
   30MOL   H52216820   1.692   6.518   6.839 -0.5501 -0.8022  0.1474
   30MOL   H52316821   1.610   6.605   7.127  2.8364 -0.3037  0.2315
   30MOL   H52416822   1.752   6.642   7.051  0.7725  1.6726 -0.7933
   30MOL   H52516823   1.680   6.799   6.906 -0.0797 -0.6790 -2.1115
   30MOL   H52616824   1.664   6.929   7.058  0.6815 -0.5782 -0.1895
   30MOL   H52716825   1.397   6.762   6.978 -0.7078 -2.6149 -0.4241
   30MOL   H52816826   1.470   6.984   6.900 -0.1323  2.6739 -1.9663
   30MOL   H52916827   1.528   6.903   6.749  1.7664 -0.5075  1.4892
   30MOL   H53016828   1.541   6.668   6.714 -1.4302 -0.2465 -0.7939
   30MOL   H53116829   1.368   6.656   6.748 -0.8792  0.0413  2.1370
   30MOL   H53216830   1.442   6.435   6.812 -0.7483 -0.5723  0.7733
   30MOL   H53316831   1.411   6.535   6.950  0.8005 -2.4659  1.3145
   30MOL   O53416832   1.324   6.909   6.778  0.1557 -0.0809  0.6879
   30MOL   C53516833   1.228   6.972   6.859  0.0223  0.2051  0.3913
   30MOL   C53616834   1.106   6.995   6.766 -0.0463  0.1720  0.3900
   30MOL   O53716835   1.050   6.877   6.719  0.8958 -0.4062  0.2920
   30MOL   C53816836   0.990   7.085   6.816  0.2726  0.4112  0.0743
   30MOL   C53916837   1.020   7.238   6.841  0.2561 -0.6257 -0.7614
   30MOL   C54016838   0.909   7.324   6.903  0.7116 -0.0817  0.2536
   30MOL   O54116839   0.975   7.439   6.951  0.4908  0.5180  0.6030
   30MOL   C54216840   0.845   7.256   7.021 -0.3342  0.4413  0.5285
   30MOL   C54316841   0.723   7.331   7.069 -0.1794 -0.1341  0.2209
   30MOL   C54416842   0.805   7.109   6.981 -0.5081 -0.1311 -0.2068
   30MOL   C54516843   0.924   7.025   6.936  0.0343  0.8825 -0.0233
   30MOL   H54616844   1.267   7.066   6.899 -0.3696 -0.2534  1.8732
   30MOL   H54716845   1.198   6.914   6.946 -0.4141  0.8224  0.6514
   30MOL   H54816846   1.146   7.046   6.679 -0.6845  0.5826  0.3322
   30MOL   H54916847   1.131   6.832   6.700  0.2103 -0.9793 -1.4409
   30MOL   H55016848   0.922   7.089   6.730 -2.0640  2.6098  1.9647
   30MOL   H55116849   1.102   7.245   6.914 -1.8720  0.2467  1.6253
   30MOL   H55216850   1.063   7.287   6.754 -0.5303  0.7665 -0.3781
   30MOL   H55316851   0.837   7.338   6.822  0.7618 -2.9281 -0.3430
   30MOL   H55416852   0.959   7.511   6.892 -2.8971 -0.8075 -0.2583
   30MOL   H55516853   0.915   7.258   7.104 -0.4981  1.5315  0.6525
   30MOL   H55616854   0.734   7.437   7.093  1.4322  0.4933 -3.0438
   30MOL   H55716855   0.647   7.328   6.992  0.1653  0.4899 -0.1515
   30MOL   H55816856   0.738   7.123   6.896 -2.6033  0.2724  1.4624
   30MOL   H55916857   0.738   7.072   7.058 -0.1584 -0.6776 -0.1634
   30MOL   H56016858   0.875   6.934   6.901 -0.8720  1.3236  0.0787
   30MOL   H56116859   0.988   6.991   7.017 -0.0155  0.5093 -0.1375
   30MOL   H56216860   0.698   7.269   7.155  0.7464  0.3695  0.8619
   31MOL     O116861   2.061   0.670   4.923  0.0007 -0.3131  0.1230
   31MOL     C216862   1.968   0.673   5.029 -0.2374  0.0846  0.2361
   31MOL     C316863   2.048   0.661   5.161  0.5715  0.4694  0.1699
   31MOL     O416864   2.155   0.570   5.131 -0.2775  0.6038 -0.1395
   31MOL     C516865   2.111   0.794   5.216  0.5963  0.0212 -0.0518
   31MOL     C616866   2.222   0.773   5.326 -0.0890 -0.0844  1.0146
   31MOL     C716867   2.271   0.894   5.404  0.2212  0.0890 -0.0899
   31MOL     O816868   2.341   0.841   5.510 -0.0756 -0.0165  0.2107
   31MOL     C916869   2.157   0.986   5.454 -0.3208  0.9417  0.1136
   31MOL    C1016870   2.209   1.108   5.533  0.3965 -0.3773 -0.0338
   31MOL    C1116871   2.063   1.020   5.331 -0.6306 -0.3677 -0.2513
   31MOL    C1216872   2.000   0.892   5.267 -0.7431  0.2487  0.6341
   31MOL    H1316873   1.906   0.584   5.027 -1.2882  0.7398  1.9713
   31MOL    H1416874   1.905   0.762   5.028 -1.3051 -0.6314  2.0937
   31MOL    H1516875   1.985   0.611   5.234  1.3710 -1.6509 -0.5445
   31MOL    H1616876   2.178   0.512   5.202 -0.1905 -2.0671 -2.2544
   31MOL    H1716877   2.170   0.839   5.136  0.6215  0.9006  0.4545
   31MOL    H1816878   2.200   0.687   5.389  2.3688 -1.2270  0.3513
   31MOL    H1916879   2.308   0.721   5.285  0.8590  0.3053  2.4965
   31MOL    H2016880   2.335   0.954   5.340 -1.7192  1.2356 -0.9965
   31MOL    H2116881   2.433   0.849   5.491 -0.2938  1.4462 -0.3060
   31MOL    H2216882   2.087   0.925   5.510 -1.5460 -0.3891 -2.7485
   31MOL    H2316883   2.257   1.062   5.619  0.0346  0.5786  0.6930
   31MOL    H2416884   2.283   1.174   5.487  0.7928 -0.7623  0.0494
   31MOL    H2516885   2.132   1.069   5.263 -1.4283 -0.9553 -1.4988
   31MOL    H2616886   1.976   1.081   5.357  0.2419  1.0182 -0.5129
   31MOL    H2716887   1.936   0.916   5.182  0.2455  1.4941  0.2342
   31MOL    H2816888   1.942   0.846   5.347  0.1204  0.8266  1.5977
   31MOL    H2916889   2.123   0.601   4.941  2.3820  1.9195  0.7334
   31MOL    O3016890   2.098   1.188   5.572 -0.0358  0.6521  0.5595
   31MOL    C3116891   2.117   1.282   5.682 -0.3524 -0.0654  1.0055
   31MOL    C3216892   1.985   1.338   5.732  0.4200  0.5919 -0.0769
   31MOL    O3316893   1.950   1.449   5.656 -0.2412 -0.5543  0.3417
   31MOL    C3416894   1.870   1.239   5.745  0.3795  0.9640  0.1692
   31MOL    C3516895   1.738   1.302   5.792 -0.5888 -0.5150  0.4546
   31MOL    C3616896   1.622   1.200   5.815 -0.6432 -0.7436  0.5458
   31MOL    O3716897   1.519   1.272   5.868  0.6882 -0.1326 -0.2490
   31MOL    C3816898   1.668   1.098   5.923 -0.0566  0.2116 -0.5396
   31MOL    C3916899   1.558   0.995   5.962  0.4423 -0.1950  0.5972
   31MOL    C4016900   1.794   1.022   5.877  0.1278 -0.5607 -0.0486
   31MOL    C4116901   1.910   1.121   5.847 -0.1324  0.2631  0.1365
   31MOL    H4216902   2.195   1.355   5.663  0.2309 -0.5300  1.6087
   31MOL    H4316903   2.159   1.232   5.769 -0.5408  0.4481  1.3949
   31MOL    H4416904   2.006   1.375   5.833 -2.3647 -0.9721  1.1518
   31MOL    H4516905   1.931   1.402   5.576 -0.8526 -3.9501  2.3981
   31MOL    H4616906   1.841   1.191   5.651 -1.7483  0.2236  1.1809
   31MOL    H4716907   1.741   1.359   5.885 -0.2416  0.0555  0.0941
   31MOL    H4816908   1.717   1.365   5.706  2.5824 -0.1027 -0.0433
   31MOL    H4916909   1.593   1.153   5.721  0.4659 -0.4611  0.0551
   31MOL    H5016910   1.477   1.316   5.796 -0.5442  0.5104  0.8349
   31MOL    H5116911   1.715   1.147   6.008  0.8934  0.2794 -1.0918
   31MOL    H5216912   1.466   1.049   5.987  1.5279  1.1271  1.8559
   31MOL    H5316913   1.545   0.937   5.871  0.0090 -0.9416  1.1386
   31MOL    H5416914   1.792   0.951   5.795 -1.2687 -0.6183  0.0251
   31MOL    H5516915   1.823   0.976   5.971  0.4478  0.2029  0.2353
   31MOL    H5616916   1.996   1.072   5.801  1.1250 -0.4722  3.2067
   31MOL    H5716917   1.935   1.170   5.941 -0.6928  0.8298 -0.0055
   31MOL    O5816918   1.592   0.920   6.077  0.0887  0.6181  0.2303
   31MOL    C5916919   1.495   0.830   6.121  0.3354 -0.7451 -0.1825
   31MOL    C6016920   1.484   0.702   6.037  0.0789 -0.6948  0.6934
   31MOL    O6116921   1.578   0.602   6.082 -0.5165 -0.0653  0.2741
   31MOL    C6216922   1.341   0.646   6.033  0.3423 -0.1119  0.4264
   31MOL    C6316923   1.301   0.591   6.175 -0.1109  0.4456 -0.7611
   31MOL    C6416924   1.167   0.517   6.173 -0.0775 -0.4357 -0.4385
   31MOL    O6516925   1.142   0.444   6.290  0.2066 -0.3482  0.1736
   31MOL    C6616926   1.163   0.413   6.055  0.4489 -0.0014 -0.0478
   31MOL    C6716927   1.033   0.333   6.054  0.7875  0.5673  0.3364
   31MOL    C6816928   1.195   0.485   5.923  0.3423 -0.0071 -0.5214
   31MOL    C6916929   1.333   0.542   5.917 -0.4125 -0.5242 -0.3729
   31MOL    H7016930   1.402   0.886   6.127  1.0635  0.7821 -2.3021
   31MOL    H7116931   1.521   0.798   6.222 -2.3303  1.6057  1.3146
   31MOL    H7216932   1.508   0.735   5.936 -0.6751 -2.3232 -0.0428
   31MOL    H7316933   1.621   0.646   6.153  0.7338 -1.3856  0.3658
   31MOL    H7416934   1.274   0.726   6.000  2.0837  1.2567  0.1229
   31MOL    H7516935   1.381   0.519   6.190 -0.9891 -0.8956 -2.4038
   31MOL    H7616936   1.316   0.662   6.256 -0.2640  1.4134 -1.5739
   31MOL    H7716937   1.086   0.585   6.148  1.5578  2.3903  1.7452
   31MOL    H7816938   1.048   0.441   6.291 -0.1193  2.7575 -3.8701
   31MOL    H7916939   1.240   0.339   6.077 -0.0978  0.0167  2.0520
   31MOL    H8016940   1.028   0.271   6.143 -0.5526  0.6252  0.3172
   31MOL    H8116941   0.947   0.400   6.067 -1.1820 -2.0656  1.2974
   31MOL    H8216942   1.122   0.564   5.902  0.4386 -0.6915 -3.7966
   31MOL    H8316943   1.181   0.410   5.845  1.0082  2.3832 -3.0126
   31MOL    H8416944   1.361   0.570   5.816 -2.4173 -0.9213 -1.0691
   31MOL    H8516945   1.412   0.470   5.939  0.6126  1.1172  1.4628
   31MOL    O8616946   1.005   0.265   5.931 -0.3284  0.7449 -0.3557
   31MOL    C8716947   1.080   0.147   5.901  0.4864 -0.2655 -0.1439
   31MOL    C8816948   1.008   0.075   5.789  0.0726  0.1490  0.1476
   31MOL    O8916949   0.990   0.174   5.689 -0.5085  0.0579 -0.1943
   31MOL    C9016950   1.077   7.578   5.733  0.5054  0.3592  0.0635
   31MOL    C9116951   1.217   7.607   5.655  0.3031  0.0306 -0.3852
   31MOL    C9216952   1.270   7.469   5.612  0.3843 -0.0214 -0.4724
   31MOL    O9316953   1.382   7.501   5.533  0.5876  0.5103  0.4715
   31MOL    C9416954   1.164   7.392   5.524  0.0542  1.2035  0.1904
   31MOL    C9516955   1.233   7.256   5.484  0.2128  0.3339  0.2508
   31MOL    C9616956   1.028   7.373   5.594 -0.0137 -0.1285  0.2029
   31MOL    C9716957   0.976   7.509   5.637 -0.0322  0.1611 -0.0476
   31MOL    H9816958   1.070   0.079   5.985 -1.9569  0.2631  0.0580
   31MOL    H9916959   1.186   0.165   5.888 -0.1054  2.2831 -1.8766
   31MOL   H10016960   0.912   0.048   5.833 -0.1589  2.5549  1.2323
   31MOL   H10116961   0.945   0.244   5.733  0.8091 -0.6936  2.4664
   31MOL   H10216962   1.090   7.512   5.819  0.5008  1.2682  0.7791
   31MOL   H10316963   1.207   0.050   5.575 -0.1931  1.7591  1.2173
   31MOL   H10416964   1.287   0.031   5.720  1.4034  1.2276 -2.4976
   31MOL   H10516965   1.296   7.409   5.699 -0.8192 -1.2532 -0.9356
   31MOL   H10616966   1.416   7.587   5.551 -1.0392  1.3782 -0.5051
   31MOL   H10716967   1.140   7.454   5.437  0.4913  1.9225  0.5771
   31MOL   H10816968   1.172   7.204   5.410  1.5085  2.2043 -2.2463
   31MOL   H10916969   1.333   7.261   5.439 -0.0582  0.2211 -0.3633
   31MOL   H11016970   1.028   7.305   5.679 -1.0965 -1.5130 -0.8828
   31MOL   H11116971   0.963   7.323   5.522  0.4015 -0.0340 -0.2339
   31MOL   H11216972   0.880   7.489   5.684  1.5679 -2.3614  2.2933
   31MOL   H11316973   0.960   7.577   5.553 -1.4250  1.9621  1.6177
   31MOL   O11416974   1.229   7.163   5.593  0.6069 -0.0078  0.0986
   31MOL   C11516975   1.274   7.035   5.564 -0.5146  0.1372  0.3880
   31MOL   C11616976   1.255   6.945   5.682  0.3035 -0.5864  0.4255
   31MOL   O11716977   1.120   6.917   5.703  0.1714 -0.3140  0.2243
   31MOL   C11816978   1.340   6.819   5.700 -0.5206  0.3158  0.4743
   31MOL   C11916979   1.300   6.720   5.587 -0.0176  0.0719  0.1438
   31MOL   C12016980   1.391   6.594   5.590 -0.2490  0.3415  0.1039
   31MOL   O12116981   1.367   6.502   5.492 -0.2646  0.8675  0.4222
   31MOL   C12216982   1.376   6.525   5.731 -0.6926  0.9537  0.4187
   31MOL   C12316983   1.461   6.400   5.746 -0.5132 -0.2068 -0.5467
   31MOL   C12416984   1.418   6.632   5.836 -0.0624  0.1332 -0.3591
   31MOL   C12516985   1.333   6.756   5.836 -0.4784  0.1013 -0.2635
   31MOL   H12616986   1.376   7.032   5.524 -0.7316  0.9076 -0.2384
   31MOL   H12716987   1.223   7.001   5.474  2.3852  0.0164 -1.2804
   31MOL   H12816988   1.282   7.017   5.760  1.4625  1.7088 -2.0053
   31MOL   H12916989   1.083   7.004   5.693  1.4841  0.1099 -1.1324
   31MOL   H13016990   1.444   6.851   5.692 -0.4610 -0.1391 -0.7020
   31MOL   H13116991   1.200   6.684   5.612  0.5985  0.6380  3.6375
   31MOL   H13216992   1.292   6.768   5.490  1.9782 -1.0095 -0.5797
   31MOL   H13316993   1.494   6.628   5.580  0.4574 -0.8421  2.7950
   31MOL   H13416994   1.397   6.546   5.414  2.0101  1.5901  1.6418
   31MOL   H13516995   1.276   6.492   5.759 -1.2202  2.0527 -0.1585
   31MOL   H13616996   1.429   6.324   5.675  3.6108 -0.0885 -2.7185
   31MOL   H13716997   1.566   6.424   5.728 -0.8917  3.0425  1.1812
   31MOL   H13816998   1.521   6.665   5.827  0.5275 -1.4742  0.2193
   31MOL   H13916999   1.401   6.581   5.932  1.2853  0.6930  0.1839
   31MOL   H14017000   1.378   6.825   5.906 -0.6100  0.8358 -0.9033
   31MOL   H14117001   1.232   6.724   5.864 -0.7316  1.5325  0.4824
   31MOL   O14217002   1.438   6.333   5.874  0.0629 -0.0876  0.3007
   31MOL   C14317003   1.529   6.231   5.908  0.1326  0.9190 -0.4050
   31MOL   C14417004   1.506   6.205   6.055  0.1118  0.0437  0.8827
   31MOL   O14517005   1.366   6.199   6.087  0.1104  0.1700 -0.2343
   31MOL   C14617006   1.570   6.082   6.120  0.2917 -0.3396 -0.2774
   31MOL   C14717007   1.512   5.950   6.078 -0.3940 -0.3986 -0.0860
   31MOL   C14817008   1.574   5.831   6.154  0.1574  0.1778  0.6332
   31MOL   O14917009   1.504   5.720   6.126 -0.2271 -0.3148 -0.1680
   31MOL   C15017010   1.564   5.852   6.309 -0.8404  0.1836 -0.6568
   31MOL   C15117011   1.651   5.745   6.374  0.2711 -0.3122  0.5620
   31MOL   C15217012   1.620   5.992   6.351  0.5243 -0.5511 -0.3412
   31MOL   C15317013   1.550   6.097   6.268 -0.3553 -0.3396 -0.2444
   31MOL   H15417014   1.630   6.263   5.885  1.1714 -1.2034  0.9795
   31MOL   H15517015   1.528   6.141   5.847 -1.2617  0.3367  0.4456
   31MOL   H15617016   1.535   6.295   6.108 -0.6277  0.8083 -0.0045
   31MOL   H15717017   1.319   6.166   6.012 -1.1778  2.2876 -0.3843
   31MOL   H15817018   1.677   6.077   6.100  0.1046 -2.4892 -0.8034
   31MOL   H15917019   1.405   5.944   6.099 -0.7609  0.0996 -1.7584
   31MOL   H16017020   1.531   5.927   5.974  0.5511  0.1907 -0.0499
   31MOL   H16117021   1.679   5.820   6.128  0.1005  1.7365 -0.3451
   31MOL   H16217022   1.522   5.674   6.206 -0.0411  2.2216  1.3186
   31MOL   H16317023   1.460   5.852   6.343 -1.1076  0.9078 -1.4719
   31MOL   H16417024   1.748   5.754   6.325  0.5406  0.6111  1.2605
   31MOL   H16517025   1.647   5.780   6.477 -2.3729 -2.3946  1.2537
   31MOL   H16617026   1.728   5.984   6.354  0.4965 -0.6774  0.8067
   31MOL   H16717027   1.587   6.015   6.453 -2.8031  0.7163 -1.6226
   31MOL   H16817028   1.582   6.195   6.303 -1.0129  0.2368 -1.2435
   31MOL   H16917029   1.446   6.094   6.301 -1.0530 -0.9336 -2.4602
   31MOL   O17017030   1.587   5.617   6.363  0.4418 -0.0077  0.0758
   31MOL   C17117031   1.669   5.510   6.320  0.0998  0.0872  1.2177
   31MOL   C17217032   1.596   5.377   6.367 -0.6225 -0.6283 -0.3849
   31MOL   O17317033   1.589   5.371   6.507 -0.4143  0.4004  0.4112
   31MOL   C17417034   1.470   5.331   6.295 -0.0394  0.0427  0.0580
   31MOL   C17517035   1.406   5.201   6.359  0.2004 -0.5406  0.0545
   31MOL   C17617036   1.282   5.151   6.299 -0.0697 -0.4371 -0.0062
   31MOL   O17717037   1.236   5.024   6.349  0.4325 -0.1761  0.7127
   31MOL   C17817038   1.294   5.144   6.148 -0.2625  0.4257  0.2458
   31MOL   C17917039   1.155   5.130   6.085  0.3254 -0.0659  0.2396
   31MOL   C18017040   1.363   5.265   6.080  0.0239 -0.3893  0.0575
   31MOL   C18117041   1.492   5.315   6.143 -0.1734 -0.0941 -0.2685
   31MOL   H18217042   1.761   5.508   6.378  0.2345 -0.4700  0.9878
   31MOL   H18317043   1.691   5.517   6.213  1.9690  1.0485  1.6516
   31MOL   H18417044   1.668   5.300   6.338  0.7403  1.1352 -1.7456
   31MOL   H18517045   1.599   5.462   6.530  1.1055  0.3053  0.2215
   31MOL   H18617046   1.398   5.410   6.314  0.3683  0.7837 -1.4181
   31MOL   H18717047   1.465   5.110   6.351  0.5054 -0.6281  2.7633
   31MOL   H18817048   1.380   5.205   6.465 -0.4369 -1.0147 -0.0809
   31MOL   H18917049   1.209   5.230   6.316  0.5221  0.3794 -1.1813
   31MOL   H19017050   1.279   5.010   6.432  0.4891 -2.3539  0.3456
   31MOL   H19117051   1.352   5.054   6.128  1.0103  1.6979 -1.8911
   31MOL   H19217052   1.101   5.043   6.123  1.2041 -0.6640  0.1390
   31MOL   H19317053   1.107   5.225   6.107 -1.1819 -1.0828  1.4124
   31MOL   H19417054   1.296   5.352   6.078 -0.9470 -1.1434 -0.5253
   31MOL   H19517055   1.380   5.236   5.977 -1.7538 -0.1475 -0.3240
   31MOL   H19617056   1.526   5.411   6.103  0.5694 -0.6647 -1.0490
   31MOL   H19717057   1.572   5.247   6.115  0.7777  1.5897 -1.7953
   31MOL   O19817058   1.167   5.124   5.938 -0.5555  0.2245  0.0325
   31MOL   C19917059   1.191   4.994   5.889  0.0200 -0.4120 -0.1055
   31MOL   C20017060   1.160   5.011   5.736  0.3019 -0.1146 -0.2350
   31MOL   O20117061   1.259   5.087   5.678  0.3996 -0.8454 -0.2567
   31MOL   C20217062   1.159   4.867   5.669  0.8443 -0.0738 -0.2846
   31MOL   C20317063   1.189   4.873   5.517 -0.5492 -0.6070  0.4638
   31MOL   C20417064   1.167   4.743   5.438  0.2905  0.1641  0.3031
   31MOL   O20517065   1.145   4.772   5.307 -0.1752  0.1149  0.1435
   31MOL   C20617066   1.040   4.663   5.482 -0.0402 -0.2078  0.0277
   31MOL   C20717067   1.029   4.523   5.419 -0.2788  0.2939 -0.2991
   31MOL   C20817068   1.021   4.652   5.632 -0.1209 -0.0569 -0.7569
   31MOL   C20917069   1.024   4.792   5.698  0.2929  0.5895  0.4299
   31MOL   H21017070   1.141   4.909   5.936  0.8049  0.4712  2.3779
   31MOL   H21117071   1.296   4.970   5.907  0.1420  0.9245  1.0231
   31MOL   H21217072   1.064   5.059   5.719  1.1333  1.2113 -1.2675
   31MOL   H21317073   1.246   5.174   5.712  1.0169 -1.7789  2.4816
   31MOL   H21417074   1.241   4.811   5.714 -0.5520 -0.9192  1.2255
   31MOL   H21517075   1.123   4.954   5.487  1.0463  0.2288 -0.9233
   31MOL   H21617076   1.288   4.917   5.501  0.8964 -2.5742  3.4310
   31MOL   H21717077   1.247   4.668   5.440  0.4111  0.3045  0.6755
   31MOL   H21817078   1.142   4.688   5.264 -0.9008 -1.1494  2.5626
   31MOL   H21917079   0.957   4.714   5.434 -0.6909 -1.5219 -0.2722
   31MOL   H22017080   1.119   4.469   5.447 -1.6723 -1.9597 -0.0498
   31MOL   H22117081   0.946   4.468   5.464  0.3996 -0.4318  0.0701
   31MOL   H22217082   1.097   4.593   5.682 -0.3704 -0.0349 -0.3562
   31MOL   H22317083   0.924   4.616   5.663  0.2744  1.6229  2.6377
   31MOL   H22417084   1.017   4.778   5.806  1.2292  0.6558  0.4989
   31MOL   H22517085   0.944   4.860   5.668  1.3063  1.5544 -0.1596
   31MOL   O22617086   1.026   4.520   5.279 -0.5269  0.6647 -0.1981
   31MOL   C22717087   0.903   4.543   5.214  0.2905 -0.3847  0.0217
   31MOL   C22817088   0.930   4.519   5.060 -0.1129  0.2718 -0.6446
   31MOL   O22917089   0.978   4.389   5.059  0.0329 -0.1682 -0.0114
   31MOL   C23017090   0.798   4.516   4.974 -0.2513  0.1878 -0.6621
   31MOL   C23117091   0.827   4.498   4.828 -0.3647 -0.6637 -0.8556
   31MOL   C23217092   0.708   4.493   4.734 -0.0702  0.1026 -0.0479
   31MOL   O23317093   0.762   4.468   4.606  0.3446 -0.6229  0.3420
   31MOL   C23417094   0.618   4.628   4.754  0.3315 -0.4805  0.1394
   31MOL   C23517095   0.489   4.639   4.665 -0.6481 -0.1996 -0.5611
   31MOL   C23617096   0.585   4.644   4.904 -0.2902  0.3462  0.2339
   31MOL   C23717097   0.708   4.638   4.993 -0.7556 -0.5194  0.4077
   31MOL   H23817098   0.850   4.639   5.223  0.9694 -0.0702  0.7476
   31MOL   H23917099   0.829   4.467   5.239 -2.5033  2.1675 -0.0526
   31MOL   H24017100   1.004   4.592   5.029  0.7957 -0.9183 -1.3326
   31MOL   H24117101   1.005   4.359   5.145  0.7372 -0.3515 -0.2943
   31MOL   H24217102   0.741   4.426   4.995 -0.0498  0.6596  2.0741
   31MOL   H24317103   0.896   4.577   4.799  0.8609 -0.1672  3.0697
   31MOL   H24417104   0.884   4.406   4.818 -0.4093 -0.8832  0.7358
   31MOL   H24517105   0.648   4.406   4.762  1.1239 -0.3483  1.1656
   31MOL   H24617106   0.696   4.462   4.538 -0.6229 -4.9531  1.4975
   31MOL   H24717107   0.684   4.709   4.722  1.0642 -1.5404 -1.1041
   31MOL   H24817108   0.529   4.634   4.564  1.2635  0.0438  0.1709
   31MOL   H24917109   0.414   4.564   4.691 -1.1466  0.8855  1.2674
   31MOL   H25017110   0.517   4.571   4.947  0.1437  0.0593  0.4354
   31MOL   H25117111   0.530   4.734   4.932  0.9356  0.8420  1.0561
   31MOL   H25217112   0.669   4.640   5.095  0.9667 -0.6465  1.0974
   31MOL   H25317113   0.775   4.723   4.986 -0.6699 -0.7763 -2.6576
   31MOL   O25417114   0.418   4.762   4.687 -0.3269  0.1203  0.0746
   31MOL   C25517115   0.463   4.868   4.601 -0.0814 -0.2001 -0.3183
   31MOL   C25617116   0.384   4.988   4.669  0.2731  0.4029  0.4496
   31MOL   O25717117   0.420   4.988   4.800 -0.3815 -0.1800 -0.5286
   31MOL   C25817118   0.429   5.127   4.614 -0.1831  0.1725  0.4963
   31MOL   C25917119   0.330   5.240   4.658  0.2209 -0.4653 -0.2706
   31MOL   C26017120   0.377   5.372   4.602 -0.1106  0.1105  0.3227
   31MOL   O26117121   0.282   5.458   4.658  0.5800 -0.0514  0.1793
   31MOL   C26217122   0.383   5.377   4.451  0.0063  0.4577  0.0127
   31MOL   C26317123   0.430   5.511   4.399  0.5025  0.3003  0.4581
   31MOL   C26417124   0.480   5.267   4.406 -0.5370  0.3027 -0.3673
   31MOL   C26517125   0.448   5.127   4.460 -0.5516 -0.5599  0.4332
   31MOL   H26617126   0.436   4.856   4.496 -1.1691  0.8124 -0.1559
   31MOL   H26717127   0.569   4.893   4.599 -0.2707  0.9260  1.9738
   31MOL   H26817128   0.278   4.970   4.653  0.1733  0.8838  0.5654
   31MOL   H26917129   0.412   4.901   4.835 -1.2952  0.6707  1.4196
   31MOL   H27017130   0.522   5.154   4.665  0.8948 -4.6058  1.3968
   31MOL   H27117131   0.234   5.213   4.614  1.3576 -3.2781 -1.1405
   31MOL   H27217132   0.306   5.241   4.764 -0.4412  3.0760 -0.3958
   31MOL   H27317133   0.478   5.395   4.638  0.9241 -0.7899 -1.9049
   31MOL   H27417134   0.289   5.437   4.750 -1.7798  1.2364  0.6817
   31MOL   H27517135   0.284   5.353   4.413  0.4104 -1.5111  0.1829
   31MOL   H27617136   0.350   5.583   4.415 -2.9383 -3.3466  0.5915
   31MOL   H27717137   0.515   5.550   4.454 -1.3645  2.8565  1.5986
   31MOL   H27817138   0.579   5.301   4.437 -0.5261 -1.6373  1.8609
   31MOL   H27917139   0.486   5.258   4.297 -1.6252 -2.0562 -0.2472
   31MOL   H28017140   0.532   5.068   4.423 -0.0367 -0.4031  1.3175
   31MOL   H28117141   0.354   5.102   4.411  0.0339 -0.7168 -0.6237
   31MOL   O28217142   0.445   5.527   4.258 -0.2630  0.1527  0.2915
   31MOL   C28317143   0.338   5.480   4.172 -0.3884 -0.0691  0.0024
   31MOL   C28417144   0.307   5.596   4.079 -0.0572  0.0325 -0.2715
   31MOL   O28517145   0.271   5.710   4.147  0.0882 -0.1780  0.0357
   31MOL   C28617146   0.415   5.637   3.970  1.0751  0.0444  0.7440
   31MOL   C28717147   0.417   5.525   3.865  0.0526 -0.1187 -0.4333
   31MOL   C28817148   0.512   5.565   3.752  0.3935  0.1435  0.1833
   31MOL   O28917149   0.535   5.446   3.673 -0.5586  0.0134 -0.5816
   31MOL   C29017150   0.654   5.615   3.787 -0.1747  0.5106 -0.6347
   31MOL   C29117151   0.739   5.657   3.660 -0.3348  0.7656 -0.2690
   31MOL   C29217152   0.642   5.725   3.892 -0.5849  0.5116 -0.0687
   31MOL   C29317153   0.560   5.671   4.010  0.4612 -0.4441  0.4751
   31MOL   H29417154   0.241   5.449   4.211 -1.4673  3.0111 -0.1106
   31MOL   H29517155   0.380   5.406   4.104  1.9110 -0.3804  1.7061
   31MOL   H29617156   0.216   5.579   4.021  0.6307  1.9204 -1.9578
   31MOL   H29717157   0.340   5.722   4.210  1.2905  1.7033 -1.5915
   31MOL   H29817158   0.376   5.719   3.909 -1.9446 -1.1618  0.9416
   31MOL   H29917159   0.466   5.438   3.910 -1.1487  0.0671  1.2828
   31MOL   H30017160   0.319   5.501   3.825  0.8303 -0.8815 -1.9277
   31MOL   H30117161   0.454   5.638   3.694 -2.5187 -0.6159  2.0505
   31MOL   H30217162   0.454   5.429   3.627  0.0508 -2.2541 -0.8471
   31MOL   H30317163   0.699   5.524   3.828  1.4559  0.9304 -1.4463
   31MOL   H30417164   0.840   5.662   3.701 -0.6574  0.5864  0.5746
   31MOL   H30517165   0.752   5.573   3.592  0.6436  0.1778  0.6382
   31MOL   H30617166   0.591   5.813   3.854 -0.7904 -0.0413 -1.0608
   31MOL   H30717167   0.739   5.755   3.934 -0.2893  0.4368 -0.6935
   31MOL   H30817168   0.546   5.743   4.091  1.1909 -3.1879  3.1319
   31MOL   H30917169   0.612   5.586   4.055  0.7188  0.2081  1.4204
   31MOL   O31017170   0.678   5.773   3.609 -0.7085  0.3226 -0.5406
   31MOL   C31117171   0.758   5.842   3.517 -0.0375 -0.2752  1.1144
   31MOL   C31217172   0.679   5.954   3.452  1.3678  0.0321 -0.1359
   31MOL   O31317173   0.764   6.063   3.432 -0.5651  0.2309 -0.2671
   31MOL   C31417174   0.598   5.914   3.325 -0.2468 -0.3212 -0.0710
   31MOL   C31517175   0.683   5.903   3.197  0.6996  1.0752  0.8930
   31MOL   C31617176   0.601   5.845   3.082 -0.2234 -0.0467 -0.1047
   31MOL   O31717177   0.682   5.835   2.971  0.2277  0.2254 -0.4405
   31MOL   C31817178   0.485   5.936   3.053  0.2201 -0.1273  0.1397
   31MOL   C31917179   0.390   5.890   2.945  0.5717  0.6149  0.1417
   31MOL   C32017180   0.403   5.978   3.174  0.6141  0.0477  0.2153
   31MOL   C32117181   0.484   6.015   3.303  0.0453 -0.2190  0.0531
   31MOL   H32217182   0.795   5.766   3.447 -0.6569  1.1507 -0.8070
   31MOL   H32317183   0.851   5.869   3.567 -0.5556 -0.8961  2.4291
   31MOL   H32417184   0.611   5.977   3.533  1.2265 -1.5379  0.2160
   31MOL   H32517185   0.698   6.131   3.424 -0.3538  0.4396 -0.2280
   31MOL   H32617186   0.556   5.815   3.345 -2.4490  0.4142 -0.9866
   31MOL   H32717187   0.704   6.004   3.165 -1.5128  1.1558 -0.4476
   31MOL   H32817188   0.774   5.846   3.215  1.1635  1.1795 -1.0950
   31MOL   H32917189   0.564   5.746   3.108 -1.5303  0.5178  0.2240
   31MOL   H33017190   0.717   5.918   2.944  1.0315  0.8429  2.3286
   31MOL   H33117191   0.527   6.033   3.027  0.2849  0.0099  0.7399
   31MOL   H33217192   0.313   5.961   2.917 -0.6341 -0.5967  0.3093
   31MOL   H33317193   0.455   5.874   2.859  0.0930 -0.9612  0.0551
   31MOL   H33417194   0.330   5.896   3.178  1.2674 -0.5304  0.3537
   31MOL   H33517195   0.348   6.066   3.141 -2.2171 -1.0196  1.8531
   31MOL   H33617196   0.422   6.013   3.393 -0.1450  0.3614 -0.0622
   31MOL   H33717197   0.521   6.117   3.304 -1.1363  0.2360  2.7082
   31MOL   O33817198   0.331   5.763   2.995  0.4742  0.6767  0.0454
   31MOL   C33917199   0.255   5.682   2.904 -0.2885  0.3198  0.3707
   31MOL   C34017200   0.352   5.589   2.827 -0.6533 -0.2313  1.6371
   31MOL   O34117201   0.400   5.499   2.919  0.3388 -0.0143 -1.1012
   31MOL   C34217202   0.285   5.505   2.713  0.0879  0.6257  0.2667
   31MOL   C34317203   0.235   5.591   2.593  0.4521 -0.2258 -0.5137
   31MOL   C34417204   0.172   5.499   2.489 -0.0929 -0.2757  0.2782
   31MOL   O34517205   0.122   5.583   2.389  0.1382  0.4421 -0.1796
   31MOL   C34617206   0.063   5.401   2.544 -0.3850 -0.0762  0.4831
   31MOL   C34717207   7.626   5.304   2.445 -0.8761  0.1763  0.1266
   31MOL   C34817208   0.123   5.322   2.659 -0.8608 -0.0138  0.8194
   31MOL   C34917209   0.175   5.412   2.766  0.2991 -0.3081  0.1541
   31MOL   H35017210   0.208   5.753   2.835 -2.0875  0.4837  1.7269
   31MOL   H35117211   0.182   5.632   2.967 -0.7554  2.1281  1.3026
   31MOL   H35217212   0.432   5.648   2.783  0.2578 -1.6541  1.3620
   31MOL   H35317213   0.472   5.545   2.960 -2.5944  1.8579  2.1796
   31MOL   H35417214   0.362   5.435   2.680 -0.0886 -0.3151  1.7673
   31MOL   H35517215   0.164   5.656   2.645  2.0787  0.0940  1.3889
   31MOL   H35617216   0.314   5.660   2.564  0.2153  0.6051  0.7607
   31MOL   H35717217   0.245   5.428   2.450  0.8674  0.9410 -0.1599
   31MOL   H35817218   0.054   5.635   2.429  0.0999  0.6733 -0.5402
   31MOL   H35917219   7.615   5.466   2.587  0.2836  0.9002  0.2316
   31MOL   H36017220   7.582   5.371   2.372 -1.5361  0.5039  0.8227
   31MOL   H36117221   0.074   5.237   2.405  0.4551  0.5003  2.0922
   31MOL   H36217222   0.203   5.256   2.625  0.4581  1.5516  0.8657
   31MOL   H36317223   0.051   5.250   2.699  1.6827 -2.3396  1.3364
   31MOL   H36417224   0.199   5.349   2.851  0.7519  1.1810  1.1501
   31MOL   H36517225   0.091   5.473   2.801 -1.7494 -0.1626 -4.6572
   31MOL   O36617226   7.522   5.234   2.512 -0.4954  0.4959 -0.4471
   31MOL   C36717227   7.441   5.155   2.428  0.9353 -1.0458 -0.7157
   31MOL   C36817228   7.508   5.027   2.381  0.4124 -0.3515  0.4103
   31MOL   O36917229   7.474   4.925   2.481 -0.1171 -0.1557  0.2273
   31MOL   C37017230   7.455   4.973   2.247 -0.0406  0.1184  0.4799
   31MOL   C37117231   7.512   4.840   2.212 -0.3888  0.2412  0.4009
   31MOL   C37217232   0.021   4.827   2.151  0.6690  0.0695 -0.4287
   31MOL   O37317233   0.116   4.826   2.256  0.3476  0.2366 -0.0097
   31MOL   C37417234   0.051   4.937   2.046  0.2383  0.0296 -0.5946
   31MOL   C37517235   7.627   4.894   1.905 -0.6860 -0.0677 -0.1590
   31MOL   C37617236   7.624   5.077   2.096 -0.3778  0.2249  0.1801
   31MOL   C37717237   7.470   5.068   2.124 -0.6734  0.2733 -0.6987
   31MOL   H37817238   7.412   5.231   2.356  1.1494 -0.1369  0.1395
   31MOL   H37917239   7.345   5.140   2.479  1.4502 -2.5806 -0.1728
   31MOL   H38017240   7.616   5.045   2.377  0.2628  0.5375  0.2184
   31MOL   H38117241   7.489   4.969   2.563  0.4119 -0.5130  0.3264
   31MOL   H38217242   7.347   4.963   2.254 -0.7900  5.8261 -0.7300
   31MOL   H38317243   7.500   4.774   2.297 -0.2105 -1.2099 -0.6869
   31MOL   H38417244   7.453   4.792   2.134 -0.5725  0.6737  0.2729
   31MOL   H38517245   0.037   4.725   2.117  1.6186  0.2143 -0.4548
   31MOL   H38617246   0.197   4.840   2.211  0.6831 -2.6427 -0.3616
   31MOL   H38717247   0.158   4.947   2.031  0.9598 -0.5201  3.6444
   31MOL   H38817248   0.070   4.819   1.871 -1.0423 -0.8611  0.8067
   31MOL   H38917249   7.528   4.849   1.897 -0.5563 -0.6757  1.5199
   31MOL   H39017250   0.001   5.161   2.026  1.0793  0.4013  0.5071
   31MOL   H39117251   0.047   5.110   2.186 -0.4263  2.1439 -0.4711
   31MOL   H39217252   7.411   5.031   2.040  2.6153 -0.8043 -2.6025
   31MOL   H39317253   7.448   5.172   2.150  0.5389 -0.1826  2.3950
   31MOL   O39417254   0.016   4.994   1.815 -0.3978 -0.2766  0.1503
   31MOL   C39517255   0.031   4.946   1.674  0.3618 -0.3806  0.2616
   31MOL   C39617256   7.527   4.952   1.600 -0.5676 -0.4643 -0.3585
   31MOL   O39717257   7.513   5.089   1.585  0.0353  0.2215 -0.1420
   31MOL   C39817258   7.522   4.890   1.460 -0.7742  0.0470  0.1270
   31MOL   C39917259   7.390   4.917   1.391 -0.0898  0.0305  0.3016
   31MOL   C40017260   7.367   4.843   1.262  0.2758  1.1973  0.4575
   31MOL   O40117261   7.231   4.871   1.217 -0.3129 -0.0915 -0.1813
   31MOL   C40217262   7.407   4.696   1.262 -0.3934  0.0686 -0.6061
   31MOL   C40317263   7.404   4.636   1.125  0.3467 -0.1544  0.9365
   31MOL   C40417264   7.544   4.671   1.325 -0.2202 -0.1661 -0.3137
   31MOL   C40517265   7.560   4.744   1.460 -0.8653  0.3554 -0.7572
   31MOL   H40617266   0.079   4.848   1.667  0.4403 -0.2295 -1.3491
   31MOL   H40717267   0.097   5.012   1.618 -1.6184  0.7267 -0.8125
   31MOL   H40817268   7.451   4.900   1.658  1.5118 -2.8732  0.3385
   31MOL   H40917269   7.447   5.108   1.650 -0.9741 -1.9421 -0.4781
   31MOL   H41017270   7.597   4.936   1.396  0.4188 -0.0118  1.4509
   31MOL   H41117271   7.303   4.882   1.446 -0.0469  0.0620  0.3901
   31MOL   H41217272   7.385   5.025   1.379 -0.0767  0.0521  0.4831
   31MOL   H41317273   7.423   4.890   1.181 -0.9359 -0.5531 -1.4434
   31MOL   H41417274   7.200   4.936   1.279 -3.1148 -0.8151 -0.7351
   31MOL   H41517275   7.323   4.645   1.310  0.1001 -0.0123  0.1642
   31MOL   H41617276   7.328   4.671   1.056 -1.2454 -1.4527  2.0012
   31MOL   H41717277   7.498   4.654   1.072 -0.3427  0.9106  0.0631
   31MOL   H41817278   7.625   4.703   1.261  3.0871 -1.5318  3.0104
   31MOL   H41917279   7.564   4.564   1.338  1.9923  0.3343  0.4455
   31MOL   H42017280   0.036   4.732   1.486 -0.5968  0.1978 -1.8978
   31MOL   H42117281   7.512   4.695   1.544 -0.4321  2.6454  0.8614
   31MOL   O42217282   7.399   4.497   1.135 -1.0117  0.2325 -0.5213
   31MOL   C42317283   7.272   4.442   1.116  0.1052 -0.7854  0.6637
   31MOL   C42417284   7.277   4.289   1.139 -1.0918  0.0695  0.8330
   31MOL   O42517285   7.141   4.261   1.177  0.5922 -0.0848 -0.2956
   31MOL   C42617286   7.330   4.199   1.029  0.2928 -0.0877  0.9084
   31MOL   C42717287   7.232   4.184   0.913 -0.0909 -0.0657 -0.7786
   31MOL   C42817288   7.284   4.077   0.822  0.2677  0.0688  0.8399
   31MOL   O42917289   7.183   4.060   0.730 -0.1571  0.3243 -0.0470
   31MOL   C43017290   7.316   3.944   0.879 -0.9457 -0.3605 -0.2180
   31MOL   C43117291   7.366   3.840   0.778  0.2007 -0.1345  0.3732
   31MOL   C43217292   7.419   3.962   0.992 -0.1383 -0.1563  0.6091
   31MOL   C43317293   7.370   4.061   1.091  0.5314 -0.5532 -0.4247
   31MOL   H43417294   7.240   4.463   1.014  1.5377 -0.2474  0.3078
   31MOL   H43517295   7.202   4.488   1.185  0.7361 -0.3324  1.0159
   31MOL   H43617296   7.322   4.271   1.236  2.9814  1.1159 -0.7576
   31MOL   H43717297   7.128   4.304   1.260 -1.0985 -0.9874 -0.0781
   31MOL   H43817298   7.424   4.241   0.992  0.1911 -0.6433 -0.0044
   31MOL   H43917299   7.131   4.158   0.942  0.4888  1.9437  3.4534
   31MOL   H44017300   7.234   4.278   0.857  0.6830 -1.2923 -2.8717
   31MOL   H44117301   7.364   4.121   0.761 -1.2833  2.6021  0.5626
   31MOL   H44217302   7.114   4.013   0.773 -1.8016 -0.0361 -2.9462
   31MOL   H44317303   7.227   3.909   0.933 -1.2979  0.1872 -0.4439
   31MOL   H44417304   7.296   3.819   0.696 -1.0844  2.0770  0.8585
   31MOL   H44517305   7.462   3.884   0.751 -0.4426  0.4229 -1.0794
   31MOL   H44617306   7.514   3.998   0.952  1.0366  0.0598  3.4701
   31MOL   H44717307   7.433   3.865   1.040  1.2204 -1.6763 -2.6980
   31MOL   H44817308   7.424   4.076   1.185 -0.9780 -2.3962  0.7834
   31MOL   H44917309   7.272   4.028   1.127  1.3602 -0.5764  1.9323
   31MOL   O45017310   7.394   3.713   0.840  0.1454  0.0468 -0.1677
   31MOL   C45117311   7.489   3.640   0.762 -0.2364 -0.2882 -0.2040
   31MOL   C45217312   0.018   3.676   0.793 -0.3004 -0.1481 -1.0828
   31MOL   O45317313   0.049   3.593   0.902  0.4309 -0.7918  0.9291
   31MOL   C45417314   0.117   3.661   0.671 -0.4051 -0.3508 -0.9782
   31MOL   C45517315   0.093   3.771   0.563  0.5945 -0.2068  0.0157
   31MOL   C45617316   0.215   3.778   0.472 -0.5002 -0.2465 -0.1968
   31MOL   O45717317   0.188   3.866   0.371  0.5321 -0.3951 -0.0666
   31MOL   C45817318   0.253   3.640   0.412 -0.3674 -0.1283  0.8049
   31MOL   C45917319   0.375   3.644   0.322  0.7677 -0.1188 -0.7937
   31MOL   C46017320   0.255   3.527   0.518  0.0200  0.1160  0.0747
   31MOL   C46117321   0.127   3.518   0.608 -0.1127  0.0022 -0.2371
   31MOL   H46217322   7.478   3.665   0.657 -0.1994  1.6133  0.2269
   31MOL   H46317323   7.464   3.534   0.760  0.7639 -0.4979 -2.9365
   31MOL   H46417324   0.034   3.780   0.821 -1.4643  0.2971 -2.0157
   31MOL   H46517325   0.142   3.605   0.917  1.0507 -2.0116 -1.5307
   31MOL   H46617326   0.212   3.678   0.720 -1.1721 -0.0707  0.4377
   31MOL   H46717327   0.004   3.748   0.504  0.5068 -1.4564  0.6128
   31MOL   H46817328   0.075   3.867   0.611  0.8516  1.2713 -2.7628
   31MOL   H46917329   0.298   3.809   0.536 -1.2945 -0.4938  0.9788
   31MOL   H47017330   0.211   3.953   0.402  4.0755 -0.9328 -0.9868
   31MOL   H47117331   0.172   3.615   0.343 -0.1812 -0.4716  0.7120
   31MOL   H47217332   0.405   3.747   0.305 -2.3467  0.5139 -3.0154
   31MOL   H47317333   0.456   3.603   0.383  0.3598  2.2642  1.4219
   31MOL   H47417334   0.340   3.538   0.585  1.2919  1.5357 -1.7490
   31MOL   H47517335   0.271   3.427   0.478 -0.3326  0.7506 -1.6855
   31MOL   H47617336   0.144   3.446   0.688 -0.1901  2.0716  1.6669
   31MOL   H47717337   0.040   3.489   0.548  0.9742  1.5724 -2.6808
   31MOL   O47817338   0.352   3.590   0.194  0.3732 -0.1598 -0.1771
   31MOL   C47917339   0.369   3.449   0.191 -0.4368  0.2515 -0.1768
   31MOL   C48017340   0.403   3.401   0.051 -0.3245  0.0593  0.6325
   31MOL   O48117341   0.531   3.446   0.017 -0.4693  0.1628  0.0680
   31MOL   C48217342   0.383   3.248   0.025 -0.0634 -0.2717  0.0361
   31MOL   C48317343   0.231   3.206   0.008 -0.4398 -0.4029 -0.4482
   31MOL   C48417344   0.232   3.060   7.592  0.1101  0.8058 -0.1700
   31MOL   O48517345   0.099   3.023   7.601 -0.1221  0.0201 -0.4828
   31MOL   C48617346   0.312   2.965   0.053 -0.3940  0.0908 -0.2033
   31MOL   C48717347   0.323   2.818   7.624  0.0603 -0.3369 -0.0286
   31MOL   C48817348   0.458   3.013   0.078 -0.1762 -0.1296 -0.3257
   31MOL   C48917349   0.463   3.161   0.129 -0.3468 -0.6406 -0.2225
   31MOL   H49017350   0.273   3.404   0.218  0.7864 -1.6789  1.0439
   31MOL   H49117351   0.452   3.419   0.255  0.1892  0.5806 -0.8242
   31MOL   H49217352   0.342   3.453   7.607  0.1079 -0.5846 -0.1939
   31MOL   H49317353   0.521   3.539   0.009 -1.5881  0.1150  0.8247
   31MOL   H49417354   0.428   3.232   7.556  1.7588 -0.6106  0.9006
   31MOL   H49517355   0.184   3.202   0.106  1.4177  1.1035  0.5461
   31MOL   H49617356   0.170   3.269   7.573  0.5225  1.6591  0.6156
   31MOL   H49717357   0.267   3.058   7.489  1.9638  0.0570  0.4518
   31MOL   H49817358   0.098   2.928   7.599 -0.0384 -0.0057  0.5582
   31MOL   H49917359   0.264   2.964   0.151 -0.1862 -1.0548 -0.1139
   31MOL   H50017360   0.372   2.823   7.527  0.8252 -0.2195  0.3626
   31MOL   H50117361   0.381   2.747   0.053 -1.3360  0.3352  2.2247
   31MOL   H50217362   0.518   2.999   7.617  0.4120  1.9030 -0.2717
   31MOL   H50317363   0.505   2.946   0.151 -0.9083 -0.7967 -0.4643
   31MOL   H50417364   0.564   3.201   0.142 -0.5358 -1.1124  3.1492
   31MOL   H50517365   0.424   3.180   0.229  1.4367  0.2318  0.3496
   31MOL   O50617366   0.192   2.770   7.613 -0.3700  0.2816  0.3972
   31MOL   C50717367   0.191   2.649   7.534 -0.4824  0.3886  0.5268
   31MOL   C50817368   0.048   2.594   7.519  0.1558  0.4033  0.2344
   31MOL   O50917369   7.606   2.685   7.440 -0.4308 -0.2862  0.0712
   31MOL   C51017370   0.032   2.453   7.469 -0.5693 -0.5289  0.4872
   31MOL   C51117371   0.113   2.433   7.337  0.2456 -0.1635 -0.6281
   31MOL   C51217372   0.095   2.285   7.285  0.4205  0.2110  1.2442
   31MOL   O51317373   0.160   2.288   7.161  0.4354  0.1548  0.4235
   31MOL   C51417374   7.588   2.234   7.275  0.2580  0.6005 -1.0878
   31MOL   C51517375   7.567   2.088   7.225 -0.1101  0.2274  0.2221
   31MOL   C51617376   7.513   2.257   7.407 -0.1893 -0.1503  0.2413
   31MOL   C51717377   7.514   2.403   7.453 -0.2320  0.7640  0.7944
   31MOL   H51817378   0.262   2.582   7.583  0.4248 -0.0270 -1.3131
   31MOL   H51917379   0.225   2.677   7.434 -2.4418  0.1304 -0.2293
   31MOL   H52017380   0.001   2.592   7.617 -0.9577  0.5092 -0.2898
   31MOL   H52117381   7.608   2.767   7.487  0.0049  0.2569 -0.8676
   31MOL   H52217382   0.067   2.384   7.545  0.0963 -1.3533 -0.5435
   31MOL   H52317383   0.084   2.508   7.264 -3.2866 -1.7946 -1.0231
   31MOL   H52417384   0.220   2.452   7.346  0.5171 -1.2095 -1.5517
   31MOL   H52517385   0.156   2.233   7.359  0.2283  0.5614  1.6483
   31MOL   H52617386   0.090   2.255   7.106  0.1769  0.4397  0.5823
   31MOL   H52717387   7.536   2.286   7.194 -0.2808  0.6748 -0.6989
   31MOL   H52817388   7.622   2.079   7.131  0.9742 -2.9351  1.0956
   31MOL   H52917389   7.602   2.009   7.290  1.1857  0.6458  0.0604
   31MOL   H53017390   7.549   2.191   7.487  2.3908 -0.3068 -1.0020
   31MOL   H53117391   7.408   2.229   7.399 -0.3028  0.3196  0.1037
   31MOL   H53217392   7.449   2.417   7.539  0.1899 -0.1860  1.2740
   31MOL   H53317393   7.471   2.464   7.374  0.2532 -1.4092 -1.2284
   31MOL   O53417394   7.423   2.079   7.205 -0.1052  0.1747  0.5749
   31MOL   C53517395   7.381   1.970   7.126 -0.0943 -0.4631  0.0678
   31MOL   C53617396   7.230   1.985   7.107  0.2587  0.2699 -0.1694
   31MOL   O53717397   7.186   2.010   7.234 -0.3070  0.6213  0.4489
   31MOL   C53817398   7.179   2.087   7.013  0.9965 -0.2261 -0.6770
   31MOL   C53917399   7.228   2.047   6.871  0.1585 -0.7043  0.1463
   31MOL   C54017400   7.174   2.155   6.780  0.4019 -0.0939 -0.5467
   31MOL   O54117401   7.223   2.122   6.654  0.3225 -0.1431 -0.1982
   31MOL   C54217402   7.218   2.304   6.811  0.0172 -0.4909  0.2719
   31MOL   C54317403   7.158   2.399   6.716 -0.1502 -0.3763  0.6046
   31MOL   C54417404   7.173   2.338   6.954  0.0943 -0.2781  0.3680
   31MOL   C54517405   7.226   2.225   7.053  0.5095  0.6305 -0.2774
   31MOL   H54617406   7.401   1.868   7.160 -1.7780 -0.2765  1.7254
   31MOL   H54717407   7.434   1.968   7.031  1.2028  0.2647  0.7538
   31MOL   H54817408   7.191   1.885   7.084  0.3809 -0.8055  3.8865
   31MOL   H54917409   7.261   2.051   7.273  0.0351  0.5385 -0.1269
   31MOL   H55017410   7.070   2.085   7.007  1.0090 -0.1204 -0.9532
   31MOL   H55117411   7.336   2.049   6.858  0.0821  3.6252 -0.6342
   31MOL   H55217412   7.183   1.954   6.836 -0.3490  0.2161 -1.6931
   31MOL   H55317413   7.066   2.141   6.773  0.4936 -0.5371 -1.1521
   31MOL   H55417414   7.167   2.163   6.591 -1.0562 -0.7585  0.6125
   31MOL   H55517415   7.326   2.320   6.818 -0.0313 -1.2260  4.0075
   31MOL   H55617416   7.164   2.360   6.614 -2.8637  1.8134 -0.4444
   31MOL   H55717417   7.052   2.405   6.738 -0.7341 -0.0027 -2.1385
   31MOL   H55817418   7.066   2.355   6.948 -0.4734 -3.0048  1.9164
   31MOL   H55917419   7.212   2.436   6.983 -2.2933  1.0837 -0.8362
   31MOL   H56017420   7.211   2.246   7.158  2.1030  3.1848 -0.5052
   31MOL   H56117421   7.334   2.228   7.035  0.2076 -0.8700 -2.5362
   31MOL   H56217422   7.205   2.497   6.716  0.3258 -0.6029  0.5270
   32MOL     O117423   3.553   6.882   4.003  0.0225 -0.4724 -0.3719
   32MOL     C217424   3.645   6.882   3.898  0.0197 -0.0022  0.0917
   32MOL     C317425   3.779   6.912   3.974  0.6954  0.0288  0.3822
   32MOL     O417426   3.792   6.829   4.087  0.3064  0.3046 -0.0409
   32MOL     C517427   3.913   6.907   3.891  0.5495  0.0118 -0.1671
   32MOL     C617428   3.925   7.032   3.808  0.6233 -0.6027  0.3498
   32MOL     C717429   4.054   7.050   3.729 -0.1458 -0.1144  0.4685
   32MOL     O817430   4.038   7.173   3.661 -0.1456  0.7387 -0.1997
   32MOL     C917431   4.080   6.933   3.633  0.0316  0.0098 -0.5945
   32MOL    C1017432   4.219   6.939   3.570 -0.1124 -0.9941 -0.0574
   32MOL    C1117433   4.065   6.799   3.720 -0.2695  0.1596 -0.0577
   32MOL    C1217434   3.930   6.787   3.795 -0.0011 -0.0576 -0.3313
   32MOL    H1317435   3.629   6.954   3.818  0.3229 -2.1183 -1.9241
   32MOL    H1417436   3.638   6.784   3.853  1.3042 -0.3183  0.5746
   32MOL    H1517437   3.771   7.013   4.013  0.3716  0.5381 -0.9518
   32MOL    H1617438   3.785   6.744   4.046 -1.7910  1.6304 -2.6206
   32MOL    H1717439   3.989   6.902   3.969  1.6266 -2.1021 -1.3112
   32MOL    H1817440   3.841   7.031   3.739  0.1957 -3.6126  0.8491
   32MOL    H1917441   3.912   7.121   3.870  1.3590 -0.2665  0.0323
   32MOL    H2017442   4.143   7.064   3.792  2.4953 -1.8023 -2.7554
   32MOL    H2117443   4.128   7.200   3.670 -0.2600  0.8553  0.6413
   32MOL    H2217444   4.000   6.917   3.561 -0.8671  0.3250  0.3070
   32MOL    H2317445   4.224   6.846   3.515 -0.7119 -1.5002  0.7371
   32MOL    H2417446   4.223   7.014   3.490  0.0423  1.3169  2.0419
   32MOL    H2517447   4.142   6.781   3.794 -1.4699 -0.4034  1.0779
   32MOL    H2617448   4.076   6.718   3.648  0.2762  1.0280 -0.9596
   32MOL    H2717449   3.939   6.697   3.856  1.5415  0.2197 -0.1436
   32MOL    H2817450   3.843   6.772   3.731 -0.6397 -2.5394  1.0586
   32MOL    H2917451   3.606   6.865   4.080  0.3278 -0.4634 -0.5794
   32MOL    O3017452   4.323   6.952   3.672 -0.0304  0.2260 -0.6717
   32MOL    C3117453   4.449   6.957   3.605 -0.4199  0.0039  0.3474
   32MOL    C3217454   4.554   6.975   3.715  0.4229  0.1474  0.8391
   32MOL    O3317455   4.534   6.870   3.804 -0.0769 -0.2023  0.0473
   32MOL    C3417456   4.702   6.983   3.666 -0.5008  0.2312  0.2179
   32MOL    C3517457   4.751   6.854   3.594 -0.1924 -1.3099  0.7504
   32MOL    C3617458   4.898   6.876   3.553  0.1671  1.1177 -0.1249
   32MOL    O3717459   4.956   6.762   3.495 -0.0293  0.6019 -0.1457
   32MOL    C3817460   4.995   6.920   3.672  0.4442 -1.0127  0.0227
   32MOL    C3917461   5.133   6.968   3.620  0.3462 -0.2318 -0.0057
   32MOL    C4017462   4.932   7.038   3.759 -0.2427  0.0721  0.1830
   32MOL    C4117463   4.784   7.018   3.784  0.2778  0.0406 -0.3365
   32MOL    H4217464   4.446   7.036   3.531 -2.7474 -0.1095  0.2803
   32MOL    H4317465   4.465   6.859   3.560  1.5883  0.3490  0.2545
   32MOL    H4417466   4.523   7.068   3.762 -1.2138 -0.3348  0.7769
   32MOL    H4517467   4.590   6.798   3.780  0.8041  0.4578  0.0999
   32MOL    H4617468   4.701   7.064   3.593  0.1679  0.4693  0.4698
   32MOL    H4717469   4.750   6.759   3.649 -2.4043 -1.4041  0.5864
   32MOL    H4817470   4.697   6.850   3.500  2.0394 -0.0974 -0.6117
   32MOL    H4917471   4.895   6.958   3.481  3.2323  3.2276  1.9993
   32MOL    H5017472   4.984   6.706   3.566  0.1257 -1.5005 -1.8229
   32MOL    H5117473   5.011   6.841   3.746  1.0671  0.0622  1.0626
   32MOL    H5217474   5.180   6.891   3.558 -1.2028  0.4729 -2.1281
   32MOL    H5317475   5.117   7.061   3.564 -1.9156 -1.2784 -1.1854
   32MOL    H5417476   4.940   7.133   3.707 -2.0644  0.8842  1.3123
   32MOL    H5517477   4.994   7.047   3.848 -1.9122 -2.7034  1.7098
   32MOL    H5617478   4.752   7.110   3.832  1.4948  0.5933 -0.5616
   32MOL    H5717479   4.765   6.938   3.856  3.2694  1.0606  1.7215
   32MOL    O5817480   5.221   7.002   3.727  0.5037 -0.5533  0.4570
   32MOL    C5917481   5.359   6.986   3.697  0.1071  0.1767  0.0128
   32MOL    C6017482   5.451   7.037   3.812  0.0952  0.1772  0.2827
   32MOL    O6117483   5.489   7.167   3.772  0.1526 -0.0864 -0.6870
   32MOL    C6217484   5.382   7.035   3.954 -0.2012  0.2797 -0.2444
   32MOL    C6317485   5.473   7.095   4.064  0.2686 -0.6402  0.2891
   32MOL    C6417486   5.395   7.097   4.203  0.0725 -0.3516  0.6576
   32MOL    O6517487   5.485   7.155   4.298 -0.1851 -0.7149  0.5096
   32MOL    C6617488   5.341   6.957   4.240 -0.1570 -0.1076 -1.1563
   32MOL    C6717489   5.264   6.958   4.376 -0.1470 -0.0534  0.1169
   32MOL    C6817490   5.272   6.888   4.133  0.7632  0.1368 -0.3477
   32MOL    C6917491   5.345   6.893   4.000 -0.6628 -0.1760  0.0171
   32MOL    H7017492   5.373   7.047   3.607 -1.5401  0.7212  0.1206
   32MOL    H7117493   5.373   6.878   3.686 -0.2273  0.2725 -1.5802
   32MOL    H7217494   5.533   6.965   3.818 -0.6786 -0.8922 -1.6209
   32MOL    H7317495   5.410   7.200   3.732  0.7960  0.4414 -1.5438
   32MOL    H7417496   5.292   7.096   3.961  1.1809  2.2508  1.0042
   32MOL    H7517497   5.568   7.042   4.071 -0.9607 -3.1721 -1.4767
   32MOL    H7617498   5.509   7.195   4.041 -0.6822  0.5696  3.8195
   32MOL    H7717499   5.314   7.170   4.199  0.6873  0.2394 -1.2413
   32MOL    H7817500   5.565   7.106   4.293  1.2098  1.3310  2.1987
   32MOL    H7917501   5.424   6.888   4.254 -1.7631 -1.9480 -0.3633
   32MOL    H8017502   5.339   6.981   4.451  1.2717 -0.3121 -1.1787
   32MOL    H8117503   5.186   7.034   4.382  1.2950  1.6783 -2.1538
   32MOL    H8217504   5.185   6.948   4.106 -0.6944 -1.1845  1.3568
   32MOL    H8317505   5.247   6.786   4.161  1.6031  0.5055  1.8115
   32MOL    H8417506   5.270   6.860   3.927  0.9413  0.3335 -1.8951
   32MOL    H8517507   5.428   6.823   4.005  0.4628  1.2513  1.4605
   32MOL    O8617508   5.203   6.835   4.403 -0.2415 -0.1995 -0.1143
   32MOL    C8717509   5.153   6.821   4.532 -0.9396 -0.0714 -0.0285
   32MOL    C8817510   5.085   6.684   4.528 -0.7738  0.1459 -0.4012
   32MOL    O8917511   5.186   6.584   4.519 -0.0143 -0.0496  0.2778
   32MOL    C9017512   4.984   6.655   4.637 -0.2206  0.3872 -0.7618
   32MOL    C9117513   5.040   6.678   4.778  0.4830 -0.1197  0.1963
   32MOL    C9217514   4.933   6.664   4.882 -0.5280  0.0290 -0.1183
   32MOL    O9317515   4.976   6.689   5.017  0.3885 -0.0193 -0.6014
   32MOL    C9417516   4.871   6.529   4.873 -0.2658  0.3297 -0.3194
   32MOL    C9517517   4.772   6.493   4.981 -0.6100  0.6262 -0.2486
   32MOL    C9617518   4.815   6.500   4.732 -0.5873  0.0004  0.1182
   32MOL    C9717519   4.904   6.525   4.616  0.2868 -0.4657  0.4697
   32MOL    H9817520   5.075   6.897   4.548 -1.4095 -0.5430 -0.0580
   32MOL    H9917521   5.222   6.836   4.614 -0.9754 -1.2712  0.2217
   32MOL   H10017522   5.026   6.678   4.437 -0.5602  0.7644 -0.5871
   32MOL   H10117523   5.202   6.573   4.427 -4.6183 -1.2828 -0.4785
   32MOL   H10217524   4.907   6.732   4.629 -2.0008 -1.2990 -0.3779
   32MOL   H10317525   5.110   6.595   4.791 -1.2736 -1.8007 -0.8141
   32MOL   H10417526   5.092   6.772   4.793 -0.0888  0.0709  1.0276
   32MOL   H10517527   4.852   6.734   4.861 -1.7348 -1.4805 -0.5604
   32MOL   H10617528   5.052   6.632   5.023  0.2032 -0.2429 -0.3389
   32MOL   H10717529   4.945   6.453   4.898  1.2474  1.9233  0.1193
   32MOL   H10817530   4.793   6.534   5.079 -0.4574  0.2705 -0.1312
   32MOL   H10917531   4.685   6.543   4.939 -1.0063 -0.9021 -1.3088
   32MOL   H11017532   4.732   6.570   4.724 -0.4522 -0.0084 -1.3804
   32MOL   H11117533   4.774   6.399   4.726  1.0241 -0.6150 -0.8178
   32MOL   H11217534   4.852   6.536   4.521  1.8427 -0.4435 -0.4120
   32MOL   H11317535   4.974   6.441   4.607  0.4681 -0.2828  0.1434
   32MOL   O11417536   4.757   6.348   4.990  0.2772 -0.0031 -0.0045
   32MOL   C11517537   4.633   6.324   5.060 -0.1578 -0.1497 -0.1938
   32MOL   C11617538   4.571   6.192   5.017 -0.1143 -0.1911  0.9629
   32MOL   O11717539   4.532   6.118   5.125 -0.2398 -0.3842 -0.0147
   32MOL   C11817540   4.470   6.204   4.900  0.2743 -0.5840  0.1597
   32MOL   C11917541   4.414   6.068   4.850  0.0402 -0.4301  0.2765
   32MOL   C12017542   4.297   6.091   4.756 -0.4165  0.2460 -0.5058
   32MOL   O12117543   4.249   5.965   4.721 -0.2372  0.0489 -0.1552
   32MOL   C12217544   4.334   6.176   4.631 -0.2369 -0.7427  0.3820
   32MOL   C12317545   4.213   6.207   4.536 -0.1735 -0.6139 -0.0490
   32MOL   C12417546   4.396   6.305   4.679 -0.1924 -0.5956 -0.2014
   32MOL   C12517547   4.515   6.283   4.773  0.0819 -0.1790 -0.1399
   32MOL   H12617548   4.552   6.396   5.048  0.0120 -0.6190 -4.7009
   32MOL   H12717549   4.650   6.311   5.167 -1.6986 -0.6215  0.0054
   32MOL   H12817550   4.649   6.133   4.969 -0.6464 -0.4929  0.4529
   32MOL   H12917551   4.582   6.038   5.127  1.3393  0.5618 -0.7622
   32MOL   H13017552   4.379   6.248   4.940 -0.2037 -0.1538 -1.3762
   32MOL   H13117553   4.485   6.007   4.793 -0.6968  0.0573 -1.1977
   32MOL   H13217554   4.378   6.006   4.932  1.6853 -0.2332  1.1574
   32MOL   H13317555   4.222   6.139   4.819 -0.4695 -0.6224  0.1039
   32MOL   H13417556   4.207   5.929   4.797 -0.8049 -0.6706 -0.8042
   32MOL   H13517557   4.412   6.120   4.578 -0.2388  1.0193 -1.5286
   32MOL   H13617558   4.158   6.115   4.517 -1.5718  0.6443 -2.3663
   32MOL   H13717559   4.137   6.267   4.587 -1.9807 -0.7844 -2.4291
   32MOL   H13817560   4.326   6.378   4.719 -1.1362 -1.0237 -1.0319
   32MOL   H13917561   4.419   6.358   4.587  1.7859 -4.2680 -1.9498
   32MOL   H14017562   4.556   6.377   4.808  0.6679 -0.1765 -0.8337
   32MOL   H14117563   4.606   6.240   4.731  0.8838 -2.6025  3.7635
   32MOL   O14217564   4.262   6.280   4.423 -0.1833  0.0860  0.3460
   32MOL   C14317565   4.308   6.202   4.313  0.5932  0.4238 -0.4208
   32MOL   C14417566   4.456   6.201   4.308 -0.2375  0.0748  0.3759
   32MOL   O14517567   4.482   6.112   4.201  0.1079 -0.1247  0.3553
   32MOL   C14617568   4.521   6.332   4.271 -0.1900  0.5912  0.3274
   32MOL   C14717569   4.504   6.381   4.123 -0.1635  0.1027 -0.4677
   32MOL   C14817570   4.581   6.519   4.100  0.1496  0.8219 -0.2413
   32MOL   O14917571   4.567   6.560   3.967  0.2599  0.0433 -0.3830
   32MOL   C15017572   4.732   6.484   4.129 -0.1146 -0.4225 -0.2486
   32MOL   C15117573   4.819   6.609   4.095 -0.1068 -0.1299 -0.3220
   32MOL   C15217574   4.745   6.445   4.274 -0.9226 -0.2103 -0.6269
   32MOL   C15317575   4.670   6.315   4.303 -0.3013 -0.5518 -0.4797
   32MOL   H15417576   4.275   6.249   4.221 -1.9836 -1.0324 -0.2985
   32MOL   H15517577   4.261   6.104   4.319 -0.4461  0.9090 -0.4441
   32MOL   H15617578   4.499   6.152   4.396  1.6983 -0.8151 -1.0124
   32MOL   H15717579   4.429   6.132   4.125  0.7096  1.4930  0.3485
   32MOL   H15817580   4.471   6.410   4.327 -3.6878  0.0595 -1.9407
   32MOL   H15917581   4.533   6.309   4.046  3.8110 -0.1216  1.1069
   32MOL   H16017582   4.400   6.412   4.113 -0.1384 -0.1124 -1.4167
   32MOL   H16117583   4.543   6.601   4.161  0.3152  0.9491 -0.3097
   32MOL   H16217584   4.477   6.585   3.955  0.2269  0.0035 -0.2251
   32MOL   H16317585   4.765   6.403   4.064  1.8560 -0.5688  0.8835
   32MOL   H16417586   4.925   6.587   4.085  0.0840  0.8604 -0.5454
   32MOL   H16517587   4.789   6.641   3.995  0.7573 -1.9524 -1.1966
   32MOL   H16617588   4.694   6.517   4.337 -1.4274 -0.5571 -0.6380
   32MOL   H16717589   4.852   6.442   4.295 -1.2043 -1.0204  0.7595
   32MOL   H16817590   4.697   6.280   4.403  1.4469 -0.7350 -1.0031
   32MOL   H16917591   4.706   6.232   4.242 -0.7473 -0.7235 -0.5097
   32MOL   O17017592   4.801   6.712   4.195  0.2271  0.3655  0.3612
   32MOL   C17117593   4.876   6.832   4.180 -1.1330 -0.6005 -1.1374
   32MOL   C17217594   4.790   6.932   4.256 -0.2295  0.5203  0.2987
   32MOL   O17317595   4.817   6.925   4.395 -0.1465 -0.0660 -0.1595
   32MOL   C17417596   4.824   7.076   4.207 -0.3939  1.1927 -0.6185
   32MOL   C17517597   4.956   7.139   4.246  0.6497  0.4696  0.4523
   32MOL   C17617598   4.964   7.294   4.213 -0.7580 -0.2619  0.0247
   32MOL   O17717599   5.095   7.327   4.252  0.7824  0.0457 -0.6395
   32MOL   C17817600   4.860   7.370   4.283  0.4597  0.0934  0.0837
   32MOL   C17917601   4.873   7.516   4.251 -0.3127 -0.3930  0.4411
   32MOL   C18017602   4.725   7.311   4.242  0.0411 -0.7834  0.1199
   32MOL   C18117603   4.704   7.162   4.260  0.3703 -0.5153  0.5504
   32MOL   H18217604   4.876   6.863   4.076 -1.0379  0.5865 -0.7821
   32MOL   H18317605   4.981   6.827   4.211 -2.1934 -0.3176  2.8309
   32MOL   H18417606   4.686   6.901   4.243  0.3779 -2.0003  1.2401
   32MOL   H18517607   4.801   6.835   4.422  0.5354 -0.5026 -1.1662
   32MOL   H18617608   4.818   7.079   4.099  2.5269 -1.4821 -0.9131
   32MOL   H18717609   4.997   7.119   4.345 -0.6009 -2.0337  0.5104
   32MOL   H18817610   5.024   7.084   4.182 -0.0632 -0.1662  0.2251
   32MOL   H18917611   4.957   7.306   4.105 -1.4732 -1.1917 -0.0349
   32MOL   H19017612   5.101   7.300   4.342  0.1673  3.2617  0.4584
   32MOL   H19117613   4.869   7.354   4.390  1.6931  0.1685 -0.0071
   32MOL   H19217614   4.962   7.565   4.289 -0.9697  1.7840 -0.7241
   32MOL   H19317615   4.884   7.530   4.143  2.7482  2.5952  1.0604
   32MOL   H19417616   4.714   7.322   4.134  0.6012  0.8065  0.2221
   32MOL   H19517617   4.639   7.365   4.283 -3.0519 -2.6086 -3.5306
   32MOL   H19617618   4.611   7.133   4.212  0.4147  0.0277  0.1453
   32MOL   H19717619   4.688   7.142   4.366  2.0293 -0.4700  0.8311
   32MOL   O19817620   4.757   7.589   4.297  0.1852  0.2810  0.7026
   32MOL   C19917621   4.747   7.584   4.436 -0.4162  0.0613 -0.6008
   32MOL   C20017622   4.661   0.080   4.473  0.2205  0.1054 -0.2156
   32MOL   O20117623   4.598   0.071   4.600 -0.5539  0.1939 -0.2067
   32MOL   C20217624   4.727   0.218   4.448  0.1986  0.5575  0.1129
   32MOL   C20317625   4.857   0.241   4.532  0.5121  0.1385  0.2460
   32MOL   C20417626   4.909   0.384   4.520 -0.4557  0.1733 -0.5322
   32MOL   O20517627   5.014   0.403   4.620  0.2096  0.2100 -0.1750
   32MOL   C20617628   4.794   0.494   4.535 -0.0052 -0.0615 -0.0631
   32MOL   C20717629   4.861   0.629   4.511  0.3386  0.3346  0.0154
   32MOL   C20817630   4.683   0.465   4.437 -0.9030  0.5790  0.2610
   32MOL   C20917631   4.616   0.329   4.458 -0.2113 -0.5063 -0.2660
   32MOL   H21017632   4.845   7.582   4.483 -0.1947  0.2751 -1.0499
   32MOL   H21117633   4.694   7.496   4.473  0.1022 -0.4591 -1.0997
   32MOL   H21217634   4.573   0.081   4.409 -0.3100  2.7295  0.4957
   32MOL   H21317635   4.579   7.609   4.616 -1.2342  0.4293  0.3653
   32MOL   H21417636   4.779   0.230   4.352  0.0116 -0.4928 -0.1277
   32MOL   H21517637   4.842   0.229   4.639  0.1256 -1.2950  0.0466
   32MOL   H21617638   4.932   0.168   4.505 -0.7491 -0.5978 -1.3637
   32MOL   H21717639   4.954   0.396   4.422  0.6960  1.2005  0.1130
   32MOL   H21817640   4.963   0.421   4.698  0.7463  3.3117 -0.4635
   32MOL   H21917641   4.759   0.492   4.638  0.1184  0.7176 -0.0040
   32MOL   H22017642   4.937   0.650   4.586  1.3325 -3.0509  0.0720
   32MOL   H22117643   4.910   0.632   4.414  4.5980 -0.6090  2.0159
   32MOL   H22217644   4.716   0.472   4.333  1.3543  1.3576  0.9963
   32MOL   H22317645   4.605   0.540   4.448  0.5212  1.9491  1.1663
   32MOL   H22417646   4.541   0.305   4.383 -0.9876  2.6755 -0.6056
   32MOL   H22517647   4.576   0.330   4.559 -1.4711 -1.6470 -0.7409
   32MOL   O22617648   4.755   0.723   4.510 -0.5424 -0.1693  0.1476
   32MOL   C22717649   4.800   0.859   4.473  0.1792 -0.0263 -0.2486
   32MOL   C22817650   4.685   0.943   4.429  0.0721  0.2404  0.2300
   32MOL   O22917651   4.600   0.919   4.533  0.3130  0.2280 -0.5375
   32MOL   C23017652   4.717   1.098   4.406 -0.0735 -0.0945  0.0733
   32MOL   C23117653   4.587   1.174   4.375 -0.1027  0.1526  0.0703
   32MOL   C23217654   4.611   1.326   4.353 -0.0537  0.5912 -0.0779
   32MOL   O23317655   4.480   1.357   4.313  0.1535 -0.7573  0.1030
   32MOL   C23417656   4.714   1.354   4.242 -0.1935 -0.6890 -1.0210
   32MOL   C23517657   4.747   1.507   4.225  0.0355  0.3592  0.3081
   32MOL   C23617658   4.840   1.274   4.260 -0.5292  0.6550 -0.2628
   32MOL   C23717659   4.822   1.123   4.296 -0.1875  0.1708 -0.1844
   32MOL   H23817660   4.888   0.869   4.409  1.0038 -1.9950  0.5051
   32MOL   H23917661   4.838   0.900   4.567  0.0677 -1.9155  0.6568
   32MOL   H24017662   4.642   0.907   4.336  0.2894 -2.1699  1.0324
   32MOL   H24117663   4.593   0.825   4.527  1.3276  0.1774 -1.0199
   32MOL   H24217664   4.754   1.132   4.503 -2.1243  1.6038  0.2964
   32MOL   H24317665   4.533   1.133   4.289 -0.5912 -0.3012  0.5861
   32MOL   H24417666   4.523   1.155   4.461 -1.0094  1.1916 -0.3686
   32MOL   H24517667   4.646   1.374   4.445  0.6240  0.5689 -0.3216
   32MOL   H24617668   4.478   1.355   4.218  0.5054 -2.8837  0.1184
   32MOL   H24717669   4.679   1.328   4.143 -0.4380  1.0380 -1.4102
   32MOL   H24817670   4.661   1.573   4.214 -1.0536 -0.8822  1.2955
   32MOL   H24917671   4.780   1.546   4.321  1.6329  0.2292 -0.1798
   32MOL   H25017672   4.879   1.314   4.354 -0.1037  0.7047 -0.4615
   32MOL   H25117673   4.919   1.296   4.189 -0.3789 -0.3065 -0.4090
   32MOL   H25217674   4.920   1.084   4.324  0.2046  1.3696  0.1706
   32MOL   H25317675   4.799   1.068   4.205 -0.9968 -1.5274  1.0277
   32MOL   O25417676   4.839   1.534   4.118  0.1080  0.1855  0.4621
   32MOL   C25517677   4.901   1.661   4.110 -0.0286  0.4527  0.9131
   32MOL   C25617678   4.999   1.680   4.230 -0.8444 -0.5725  0.0126
   32MOL   O25717679   5.069   1.561   4.238  0.3595 -0.1212  0.5484
   32MOL   C25817680   5.094   1.800   4.223  0.7816  0.2003 -0.0697
   32MOL   C25917681   5.171   1.820   4.359  0.0342 -0.2381 -0.0171
   32MOL   C26017682   5.268   1.943   4.348 -0.2198  0.1645  0.3391
   32MOL   O26117683   5.345   1.954   4.468  0.6347  0.1577 -0.0260
   32MOL   C26217684   5.186   2.072   4.315 -0.7167  1.0908  0.1083
   32MOL   C26317685   5.280   2.189   4.322 -0.2722 -0.5594  0.5876
   32MOL   C26417686   5.122   2.046   4.177 -0.0156 -0.4958 -0.1274
   32MOL   C26517687   5.023   1.934   4.181  0.8363 -0.3838  0.1780
   32MOL   H26617688   4.832   1.743   4.091  2.4587  2.5121  0.4875
   32MOL   H26717689   4.964   1.648   4.022 -0.2319 -2.2557  1.1306
   32MOL   H26817690   4.936   1.686   4.319 -0.9043 -0.0500 -0.0634
   32MOL   H26917691   5.006   1.497   4.266  0.5671 -0.2735  0.6734
   32MOL   H27017692   5.170   1.777   4.149  1.2300  0.1079  0.4115
   32MOL   H27117693   5.096   1.824   4.438  0.0443  1.7555 -0.0887
   32MOL   H27217694   5.229   1.731   4.385 -1.1966 -1.3719 -1.0707
   32MOL   H27317695   5.356   1.924   4.286 -0.5950  3.4742 -1.2957
   32MOL   H27417696   5.374   1.869   4.496 -0.2865 -0.0577  0.3135
   32MOL   H27517697   5.106   2.096   4.386 -1.0258  2.9684 -0.8561
   32MOL   H27617698   5.326   2.191   4.421  0.3176  1.2812  0.2839
   32MOL   H27717699   5.357   2.194   4.246 -0.8050 -1.4096 -0.0215
   32MOL   H27817700   5.198   2.023   4.103 -1.3463 -1.2645 -1.2943
   32MOL   H27917701   5.061   2.130   4.144  0.2022 -0.8846 -1.5303
   32MOL   H28017702   4.988   1.922   4.079  0.8193  0.5005  0.0773
   32MOL   H28117703   4.933   1.955   4.238  0.4072 -2.1148  0.1671
   32MOL   O28217704   5.199   2.304   4.305 -0.1275  0.2940  0.6426
   32MOL   C28317705   5.266   2.429   4.339  0.8008 -0.1038 -0.0467
   32MOL   C28417706   5.171   2.548   4.322 -1.2061 -0.0910 -0.1783
   32MOL   O28517707   5.178   2.579   4.183 -0.7559  0.0942 -0.1416
   32MOL   C28617708   5.028   2.522   4.372  0.5979  0.1132  0.6610
   32MOL   C28717709   4.948   2.655   4.382 -0.1028  0.1200 -0.4267
   32MOL   C28817710   4.805   2.618   4.440 -0.5213  0.1862 -0.4845
   32MOL   O28917711   4.738   2.739   4.468 -0.0558 -0.2658 -0.4456
   32MOL   C29017712   4.804   2.546   4.577  0.6032 -0.0676  0.5621
   32MOL   C29117713   4.656   2.500   4.611 -0.4959 -0.6988 -0.1600
   32MOL   C29217714   4.898   2.426   4.570  0.2592  0.5651 -0.7264
   32MOL   C29317715   5.034   2.467   4.522  0.2666  0.0484 -0.3056
   32MOL   H29417716   5.356   2.440   4.279  0.8203  0.9624  0.1648
   32MOL   H29517717   5.293   2.429   4.445  0.0178  1.2426  0.1601
   32MOL   H29617718   5.225   2.628   4.373 -0.8055  0.7346 -1.8631
   32MOL   H29717719   5.266   2.551   4.162 -1.1197 -2.0522  1.0404
   32MOL   H29817720   4.978   2.456   4.302 -1.3668 -0.6192  2.7206
   32MOL   H29917721   5.003   2.728   4.440  0.5119  0.5671 -1.5621
   32MOL   H30017722   4.932   2.702   4.285 -0.7659 -1.4247 -1.0984
   32MOL   H30117723   4.749   2.559   4.368 -1.2341 -1.2562  1.1825
   32MOL   H30217724   4.717   2.775   4.383 -0.3309 -1.3803 -0.8605
   32MOL   H30317725   4.842   2.617   4.651  0.3834 -0.7781  1.3569
   32MOL   H30417726   4.584   2.573   4.574  1.5371  1.1958 -0.5597
   32MOL   H30517727   4.637   2.424   4.535 -1.3225 -0.4291 -0.2297
   32MOL   H30617728   4.862   2.341   4.511  0.9046  0.9580 -1.6844
   32MOL   H30717729   4.900   2.391   4.673  0.3127  2.6344  0.0041
   32MOL   H30817730   5.089   2.372   4.526  0.1257 -0.0222 -0.0388
   32MOL   H30917731   5.088   2.525   4.597  1.3119  1.0594 -1.8160
   32MOL   O31017732   4.650   2.462   4.746 -0.5428  0.1669  0.1065
   32MOL   C31117733   4.541   2.380   4.768 -0.1137  0.1279  0.3365
   32MOL   C31217734   4.527   2.380   4.927  0.5481 -0.0589 -0.5518
   32MOL   O31317735   4.455   2.498   4.960 -0.1184  0.1376  0.4435
   32MOL   C31417736   4.463   2.249   4.982  0.2137  0.1459  0.4539
   32MOL   C31517737   4.546   2.118   4.987 -0.1311  0.0115 -0.6447
   32MOL   C31617738   4.474   2.006   5.073 -1.8307 -0.5796 -0.1983
   32MOL   O31717739   4.561   1.891   5.053 -0.5588  0.0134  0.0141
   32MOL   C31817740   4.332   1.987   5.030 -0.3851  0.3303  0.0600
   32MOL   C31917741   4.260   1.885   5.115 -0.7294 -0.1783 -0.4580
   32MOL   C32017742   4.258   2.116   5.019  0.0962  0.1578  0.5629
   32MOL   C32117743   4.322   2.218   4.930  0.2362  0.1113  0.4288
   32MOL   H32217744   4.572   2.287   4.719  0.3034  1.5268 -2.1405
   32MOL   H32317745   4.449   2.423   4.728 -0.4508 -1.0173 -0.1527
   32MOL   H32417746   4.626   2.386   4.972  0.5002  1.8837 -0.6738
   32MOL   H32517747   4.500   2.577   4.936 -1.8078  0.5041 -1.7267
   32MOL   H32617748   4.456   2.267   5.089  0.3444  0.8808  0.3402
   32MOL   H32717749   4.566   2.091   4.883 -1.0606  0.7705 -1.0218
   32MOL   H32817750   4.649   2.134   5.020 -0.5448  0.0082  0.6557
   32MOL   H32917751   4.486   2.020   5.180  1.5846 -2.1264 -0.3045
   32MOL   H33017752   4.536   1.850   4.972  0.4751 -0.0792 -0.2685
   32MOL   H33117753   4.329   1.947   4.928  1.7629 -1.4130  0.6349
   32MOL   H33217754   4.327   1.800   5.115 -2.5711 -1.6498 -0.4665
   32MOL   H33317755   4.245   1.924   5.216  2.2286  2.2234 -0.8736
   32MOL   H33417756   4.237   2.153   5.120  0.6189  1.9485  0.0408
   32MOL   H33517757   4.160   2.100   4.976  0.7286  2.5074 -1.9022
   32MOL   H33617758   4.260   2.308   4.923 -2.2555 -1.6743 -1.8872
   32MOL   H33717759   4.320   2.184   4.826  1.7366  1.3917 -0.0300
   32MOL   O33817760   4.136   1.839   5.059 -0.4905  0.6966 -0.1732
   32MOL   C33917761   4.054   1.773   5.160  0.2033  0.5244  0.6243
   32MOL   C34017762   3.999   1.658   5.070 -0.3081 -0.0655 -1.0910
   32MOL   O34117763   3.926   1.727   4.962  0.0299  0.3857  0.1290
   32MOL   C34217764   4.098   1.557   5.006  0.3621  0.3689 -0.3949
   32MOL   C34317765   4.027   1.441   4.938 -0.6856  0.4789 -0.2208
   32MOL   C34417766   4.126   1.339   4.873  0.1245 -0.8943 -0.2333
   32MOL   O34517767   4.050   1.233   4.810 -0.1056  0.7280 -0.5298
   32MOL   C34617768   4.227   1.278   4.975 -0.0324 -0.2111 -0.3148
   32MOL   C34717769   4.327   1.176   4.908  0.5641 -0.0410  0.0118
   32MOL   C34817770   4.292   1.390   5.056  0.4709 -0.5350  0.2985
   32MOL   C34917771   4.182   1.486   5.117 -0.0929  0.2181  0.0265
   32MOL   H35017772   3.977   1.834   5.206 -0.2426 -2.4393  4.0260
   32MOL   H35117773   4.103   1.726   5.245  0.5970  2.3981  1.4515
   32MOL   H35217774   3.929   1.603   5.132 -1.7942  2.6063 -0.3285
   32MOL   H35317775   3.985   1.800   4.949 -0.2394  1.0951  2.6811
   32MOL   H35417776   4.157   1.607   4.929  0.2129  2.3617  0.7541
   32MOL   H35517777   3.970   1.382   5.010 -1.3661  2.8419  1.2050
   32MOL   H35617778   3.953   1.484   4.870 -1.0648 -0.9933 -0.7660
   32MOL   H35717779   4.185   1.390   4.796 -0.8523  1.0105  0.2520
   32MOL   H35817780   4.103   1.193   4.742  0.9863 -1.8456  1.7229
   32MOL   H35917781   4.179   1.210   5.045 -1.3192  0.8339 -0.1870
   32MOL   H36017782   4.386   1.136   4.991  1.1152  1.0749  0.1658
   32MOL   H36117783   4.266   1.092   4.876  1.7520 -1.7839  2.1782
   32MOL   H36217784   4.363   1.451   5.002  0.9589  1.2441  2.8718
   32MOL   H36317785   4.352   1.361   5.143 -0.7556 -0.8598  1.0506
   32MOL   H36417786   4.235   1.560   5.177  0.8243 -1.4167  1.2608
   32MOL   H36517787   4.126   1.426   5.189 -1.1339  0.2686 -0.7304
   32MOL   O36617788   4.414   1.238   4.811  0.5424 -0.2593  0.3626
   32MOL   C36717789   4.520   1.156   4.753 -0.1910 -0.0082 -1.0616
   32MOL   C36817790   4.656   1.148   4.842  0.2221  0.2934  0.2213
   32MOL   O36917791   4.748   1.072   4.761  0.1023 -0.1275 -0.1672
   32MOL   C37017792   4.720   1.292   4.852 -0.9071  0.0319  0.6012
   32MOL   C37117793   4.747   1.368   4.723  0.5784 -0.3923  0.2996
   32MOL   C37217794   4.818   1.505   4.753 -0.5488 -0.3523  0.4625
   32MOL   O37317795   4.846   1.571   4.624 -0.2454 -0.0991 -0.3889
   32MOL   C37417796   4.946   1.490   4.843 -0.2016 -1.1931 -0.3829
   32MOL   C37517797   5.002   1.638   4.869 -0.1523 -0.7282  0.5847
   32MOL   C37617798   4.907   1.421   4.969  0.8352 -0.0113  0.1094
   32MOL   C37717799   4.853   1.284   4.934 -0.0301 -0.3883 -0.3901
   32MOL   H37817800   4.532   1.215   4.663 -1.7724  2.6897  0.4330
   32MOL   H37917801   4.475   1.061   4.724 -3.0047  1.0170 -0.1956
   32MOL   H38017802   4.643   1.104   4.941  0.2930  0.5993  0.3695
   32MOL   H38117803   4.696   1.009   4.714  3.1940 -1.5974 -1.7855
   32MOL   H38217804   4.649   1.344   4.917 -0.7456  1.2179 -0.1787
   32MOL   H38317805   4.786   1.296   4.651  0.3172  1.2353 -1.5072
   32MOL   H38417806   4.652   1.396   4.678  0.9909 -0.6638 -0.7684
   32MOL   H38517807   4.737   1.556   4.805 -0.4858 -2.1635  2.4284
   32MOL   H38617808   4.940   1.564   4.612  0.4924  2.3724  3.1567
   32MOL   H38717809   5.016   1.424   4.792 -0.1851 -1.2151 -0.3323
   32MOL   H38817810   5.070   1.669   4.790 -1.8107  1.2248 -0.1064
   32MOL   H38917811   4.929   1.718   4.877  1.3225  0.7295 -0.3885
   32MOL   H39017812   4.834   1.478   5.027 -0.4476 -1.6078  0.1194
   32MOL   H39117813   4.995   1.404   5.031  2.7431  1.4041 -2.1331
   32MOL   H39217814   4.832   1.236   5.030 -2.9489  0.0476 -0.7693
   32MOL   H39317815   4.928   1.226   4.881  2.0644  1.8416  0.0391
   32MOL   O39417816   5.081   1.629   4.992 -0.7727  0.4271 -0.0186
   32MOL   C39517817   5.162   1.748   5.011  0.0891  0.5800  0.3274
   32MOL   C39617818   5.186   1.784   5.154 -0.6837  0.1659  0.2151
   32MOL   O39717819   5.097   1.892   5.176 -0.5927  0.4806  0.1110
   32MOL   C39817820   5.164   1.676   5.262  0.4122 -0.1605  0.2216
   32MOL   C39917821   5.196   1.725   5.402  0.3179 -0.6307 -0.0122
   32MOL   C40017822   5.159   1.612   5.505  0.1581  0.3438 -0.2804
   32MOL   O40117823   5.190   1.670   5.631  0.3555  0.0198  0.3981
   32MOL   C40217824   5.236   1.482   5.482  0.4172  0.1040  0.5952
   32MOL   C40317825   5.216   1.368   5.585 -0.6057 -0.8473  0.0937
   32MOL   C40417826   5.208   1.438   5.343 -0.2074  0.0750  0.1909
   32MOL   C40517827   5.242   1.544   5.237  0.4290 -0.3448  0.4110
   32MOL   H40617828   5.122   1.833   4.956  0.0851 -0.9904 -2.1605
   32MOL   H40717829   5.257   1.733   4.959 -0.8494 -2.4704 -0.6049
   32MOL   H40817830   5.287   1.826   5.149 -1.1852  1.1835 -3.0797
   32MOL   H40917831   5.007   1.862   5.175 -0.4624  0.1044 -0.4633
   32MOL   H41017832   5.057   1.656   5.269  0.2815 -0.0388 -1.1799
   32MOL   H41117833   5.298   1.764   5.406  0.5839 -1.4065  0.8604
   32MOL   H41217834   5.134   1.811   5.427 -0.7681 -1.1795 -0.7649
   32MOL   H41317835   5.053   1.588   5.505  0.0227  0.8436 -2.2724
   32MOL   H41417836   5.133   1.627   5.693  0.9392  1.0270  1.6480
   32MOL   H41517837   5.342   1.506   5.490  0.3780  0.5101 -0.0773
   32MOL   H41617838   5.197   1.405   5.686  0.1233 -1.2750  0.3837
   32MOL   H41717839   5.121   1.321   5.559 -1.2464  0.5645 -0.1843
   32MOL   H41817840   5.102   1.418   5.322 -0.6819  0.3689  2.2069
   32MOL   H41917841   5.265   1.346   5.333 -2.3693 -1.3699  0.8946
   32MOL   H42017842   5.215   1.506   5.139  1.6712  0.3986 -0.2383
   32MOL   H42117843   5.350   1.561   5.239  0.4027 -0.2283  1.2199
   32MOL   O42217844   5.318   1.270   5.574 -0.2302 -0.5536  0.8361
   32MOL   C42317845   5.437   1.302   5.639 -0.2478  0.0161 -0.5926
   32MOL   C42417846   5.527   1.184   5.629  0.5551 -0.2485  0.8288
   32MOL   O42517847   5.654   1.213   5.679 -0.8488  0.5502 -0.1455
   32MOL   C42617848   5.484   1.052   5.703  0.0610 -0.5582 -0.0304
   32MOL   C42717849   5.478   1.070   5.855  0.2686 -0.2529 -0.1617
   32MOL   C42817850   5.454   0.937   5.933 -0.9335 -0.5625 -0.6864
   32MOL   O42917851   5.484   0.956   6.074 -0.0242  0.3646 -0.0056
   32MOL   C43017852   5.548   0.821   5.876  0.4322 -0.3604  0.7794
   32MOL   C43117853   5.534   0.685   5.948  0.5568 -0.0749  0.2572
   32MOL   C43217854   5.525   0.805   5.725 -0.3344  0.1165 -0.1929
   32MOL   C43317855   5.564   0.928   5.645 -0.1374  0.1170 -0.4308
   32MOL   H43417856   5.426   1.323   5.746  1.6915  2.8194 -0.8998
   32MOL   H43517857   5.475   1.396   5.600  1.0356 -0.7056 -1.0778
   32MOL   H43617858   5.541   1.165   5.522  1.3097 -2.9599  1.3565
   32MOL   H43717859   5.645   1.290   5.733 -1.5239  0.5245 -0.2242
   32MOL   H43817860   5.382   1.029   5.674 -0.8475  1.1610  1.7017
   32MOL   H43917861   5.566   1.122   5.894  0.3050  0.2092 -0.8612
   32MOL   H44017862   5.392   1.130   5.885 -0.6708 -1.3308 -0.6832
   32MOL   H44117863   5.348   0.918   5.922 -1.0308  1.1464 -3.0535
   32MOL   H44217864   5.576   0.941   6.090 -0.6985 -3.0273  1.1058
   32MOL   H44317865   5.654   0.846   5.890  0.0261  1.5079  0.6116
   32MOL   H44417866   5.613   0.621   5.910 -0.7791 -0.8426 -1.3167
   32MOL   H44517867   5.557   0.697   6.054  3.7997 -0.5621 -0.3537
   32MOL   H44617868   5.421   0.785   5.701 -0.7321  0.4996  1.1686
   32MOL   H44717869   5.574   0.713   5.693 -0.6674  0.0769 -0.5969
   32MOL   H44817870   5.560   0.910   5.538 -2.5910  0.0384 -0.3412
   32MOL   H44917871   5.667   0.950   5.676 -0.4944  0.0251  0.8685
   32MOL   O45017872   5.402   0.633   5.929 -0.7571 -0.3392  0.0152
   32MOL   C45117873   5.400   0.490   5.954  0.9308 -0.2639  0.7466
   32MOL   C45217874   5.256   0.441   5.909  0.2660 -0.7968  0.4634
   32MOL   O45317875   5.226   0.503   5.786  0.2813  0.1108  1.0538
   32MOL   C45417876   5.231   0.287   5.913  0.4705  0.1009 -0.1930
   32MOL   C45517877   5.238   0.236   6.065 -0.1067 -0.4230  0.6135
   32MOL   C45617878   5.235   0.084   6.082 -0.1612  0.3997  0.9423
   32MOL   O45717879   5.279   0.055   6.217 -0.0010 -0.2412  0.0754
   32MOL   C45817880   5.321   0.017   5.979 -0.6386 -0.0109 -0.2306
   32MOL   C45917881   5.299   7.490   5.987 -0.0833 -0.5819  0.6531
   32MOL   C46017882   5.291   0.063   5.834  0.2077 -0.2290  0.0496
   32MOL   C46117883   5.330   0.210   5.817 -0.3991  0.0873 -0.4291
   32MOL   H46217884   5.437   0.466   6.053  1.0806  1.5593  1.1421
   32MOL   H46317885   5.472   0.448   5.883 -0.9173 -0.3850 -1.1050
   32MOL   H46417886   5.192   0.492   5.981 -2.1523 -1.6598 -1.0023
   32MOL   H46517887   5.277   0.583   5.790  2.2045 -1.1304  2.1760
   32MOL   H46617888   5.129   0.276   5.876 -0.3633  0.3780  2.0063
   32MOL   H46717889   5.333   0.277   6.099  0.5838 -1.2770 -0.2554
   32MOL   H46817890   5.160   0.286   6.122 -0.0818 -0.5197  0.7312
   32MOL   H46917891   5.133   0.050   6.061  0.1626 -0.0950  0.1641
   32MOL   H47017892   5.205   0.068   6.273 -0.4153  3.2474 -1.1564
   32MOL   H47117893   5.423   0.051   5.997 -0.4296 -0.4003 -0.6697
   32MOL   H47217894   5.360   7.441   5.912  1.0937  1.2832  0.3383
   32MOL   H47317895   5.326   7.451   6.085  1.3343  0.6247  0.7618
   32MOL   H47417896   5.186   0.049   5.811  0.1801  0.7116 -0.4312
   32MOL   H47517897   5.351   0.003   5.765 -0.9378  1.4943 -2.4872
   32MOL   H47617898   5.314   0.240   5.713  1.2375 -0.2426 -0.7916
   32MOL   H47717899   5.435   0.216   5.845  0.0531 -1.4510 -1.6960
   32MOL   O47817900   5.158   7.453   5.973  0.9408  0.2408  0.2080
   32MOL   C47917901   5.125   7.320   5.952 -0.5050 -0.1171  0.0491
   32MOL   C48017902   4.979   7.316   5.919  1.0412 -0.5388 -1.0196
   32MOL   O48117903   4.975   7.356   5.783  0.1777 -0.5319 -0.6785
   32MOL   C48217904   4.910   7.185   5.927 -0.8149 -0.0301 -0.2026
   32MOL   C48317905   4.778   7.173   5.852  0.0367 -0.4467 -0.2533
   32MOL   C48417906   4.740   7.021   5.842  0.2278  0.3491 -0.5200
   32MOL   O48517907   4.617   7.009   5.766 -0.3632 -0.3483  0.1179
   32MOL   C48617908   4.723   6.952   5.977 -0.2591 -0.7156 -0.0466
   32MOL   C48717909   4.706   6.796   5.970  0.3906  0.0292 -0.6660
   32MOL   C48817910   4.846   6.985   6.064 -0.1396  0.5900 -0.0016
   32MOL   C48917911   4.881   7.133   6.070  0.3007 -0.1488 -0.5647
   32MOL   H49017912   5.150   7.267   6.044  1.9476  2.1635  0.7214
   32MOL   H49117913   5.172   7.270   5.868 -1.4842 -0.1443 -0.4953
   32MOL   H49217914   4.923   7.390   5.976  1.2439  0.5831 -2.2541
   32MOL   H49317915   5.007   7.445   5.773  2.3550 -1.4032 -1.8921
   32MOL   H49417916   4.983   7.110   5.897 -0.1492  1.4043 -2.2935
   32MOL   H49517917   4.701   7.223   5.912 -0.7770 -0.6777 -1.0934
   32MOL   H49617918   4.784   7.227   5.758  1.3056 -0.1636 -0.0096
   32MOL   H49717919   4.812   6.962   5.785 -1.1320 -0.7664 -1.1240
   32MOL   H49817920   4.551   7.060   5.810 -0.1598  0.1708 -0.1724
   32MOL   H49917921   4.632   6.990   6.025 -1.0319 -0.4955 -1.6376
   32MOL   H50017922   4.629   6.765   5.899  0.8974  0.8610 -1.5916
   32MOL   H50117923   4.796   6.753   5.925  1.6132 -0.6270  2.2947
   32MOL   H50217924   4.932   6.924   6.035 -0.0065  0.5956  0.3865
   32MOL   H50317925   4.822   6.956   6.167  0.8798 -1.7123 -0.3725
   32MOL   H50417926   4.969   7.149   6.132  1.2098 -2.0838 -1.3291
   32MOL   H50517927   4.805   7.192   6.121 -0.7208 -0.7676 -1.3444
   32MOL   O50617928   4.660   6.735   6.094  0.4159  0.2718 -0.3196
   32MOL   C50717929   4.662   6.600   6.094  0.9507 -0.1553 -0.2424
   32MOL   C50817930   4.623   6.544   6.230 -0.8767  0.5008  0.0850
   32MOL   O50917931   4.731   6.578   6.314  0.0807 -0.0040  0.2641
   32MOL   C51017932   4.488   6.594   6.282  0.0071  0.1487 -0.5569
   32MOL   C51117933   4.479   6.578   6.436  0.3437 -0.7742  0.3917
   32MOL   C51217934   4.354   6.638   6.484 -0.9857  0.0154  0.7029
   32MOL   O51317935   4.351   6.633   6.628 -0.5758 -0.5098 -0.0208
   32MOL   C51417936   4.224   6.589   6.423 -0.0200 -0.4449  1.1967
   32MOL   C51517937   4.114   6.677   6.462  0.2881  0.8981  0.2512
   32MOL   C51617938   4.243   6.580   6.266  0.5412  0.4182 -0.2046
   32MOL   C51717939   4.371   6.520   6.220 -0.2301  0.1691 -0.1769
   32MOL   H51817940   4.763   6.569   6.067  0.6886 -0.2936 -1.0663
   32MOL   H51917941   4.589   6.569   6.019  0.0263 -2.2073  1.4380
   32MOL   H52017942   4.624   6.435   6.223 -0.1439  0.4726  0.6145
   32MOL   H52117943   4.729   6.672   6.308 -0.3652  0.0715  1.5673
   32MOL   H52217944   4.483   6.700   6.257  0.9583 -0.0627 -1.6753
   32MOL   H52317945   4.483   6.473   6.467  1.5241 -1.9654 -3.3997
   32MOL   H52417946   4.566   6.616   6.490  2.3236  0.8354 -3.7066
   32MOL   H52517947   4.352   6.742   6.452 -2.8430  0.0996  1.0420
   32MOL   H52617948   4.317   6.551   6.660  0.6319 -1.2451 -0.5660
   32MOL   H52717949   4.197   6.489   6.459  0.3502 -1.5621 -1.5392
   32MOL   H52817950   4.090   6.650   6.565  2.7101 -1.2980  0.3154
   32MOL   H52917951   4.144   6.781   6.448  1.8023  0.4823  0.3325
   32MOL   H53017952   4.231   6.685   6.239  1.5344  0.4966 -0.3390
   32MOL   H53117953   4.156   6.529   6.224  1.6268 -0.2702 -1.6495
   32MOL   H53217954   4.387   6.523   6.112 -0.7669  0.0192 -0.2627
   32MOL   H53317955   4.373   6.414   6.246  0.0166 -0.1981 -1.6219
   32MOL   O53417956   3.990   6.654   6.386  0.1060  0.0970  0.0667
   32MOL   C53517957   3.884   6.735   6.432  0.2308 -0.4479  0.7789
   32MOL   C53617958   3.763   6.698   6.335  0.1883  0.7145  0.1207
   32MOL   O53717959   3.640   6.724   6.400 -0.2882 -0.4235 -0.1019
   32MOL   C53817960   3.772   6.768   6.192  0.7700  0.3900 -0.4293
   32MOL   C53917961   3.744   6.922   6.200 -0.1106  0.2182 -0.0339
   32MOL   C54017962   3.756   6.988   6.064 -0.0487  0.3595  0.0395
   32MOL   O54117963   3.706   7.114   6.087 -0.0820 -0.9657  0.4521
   32MOL   C54217964   3.677   6.906   5.953 -0.0826 -0.1776  0.6467
   32MOL   C54317965   3.675   6.974   5.813 -1.2827 -0.1345 -0.6234
   32MOL   C54417966   3.724   6.758   5.952 -0.2303  0.1455 -0.2822
   32MOL   C54517967   3.700   6.689   6.087 -0.4943 -0.6952  0.2845
   32MOL   H54617968   3.917   6.839   6.431  0.8559 -0.6360 -0.8296
   32MOL   H54717969   3.847   6.716   6.532  0.6286 -0.3491  0.9431
   32MOL   H54817970   3.765   6.591   6.315  1.2745  0.1190  3.1115
   32MOL   H54917971   3.648   6.803   6.452 -2.5040  0.8159 -1.5559
   32MOL   H55017972   3.877   6.763   6.165  0.2181  1.5765 -2.9173
   32MOL   H55117973   3.643   6.926   6.238  0.6213 -2.3538  2.3746
   32MOL   H55217974   3.809   6.967   6.275  0.9378 -1.5235  0.1288
   32MOL   H55317975   3.861   6.999   6.038  0.4349 -3.0831  0.3858
   32MOL   H55417976   3.614   7.102   6.068 -0.0259  0.6190 -0.8800
   32MOL   H55517977   3.577   6.900   5.996 -0.0314 -0.2066  0.7611
   32MOL   H55617978   3.776   6.983   5.774 -0.4468 -1.3324  1.2092
   32MOL   H55717979   3.618   6.919   5.739 -1.7079 -1.4347  0.6408
   32MOL   H55817980   3.829   6.737   5.930 -1.1307 -4.8058 -0.3992
   32MOL   H55917981   3.662   6.710   5.875 -2.0674 -0.5559  1.6043
   32MOL   H56017982   3.730   6.585   6.090 -2.4092 -1.2159  2.3040
   32MOL   H56117983   3.592   6.701   6.097 -0.5052  1.4652 -1.8407
   32MOL   H56217984   3.643   7.078   5.805 -0.4906  0.1861  0.2518
   33MOL     O117985   3.187   2.044   4.603  0.3718 -0.2918 -0.0975
   33MOL     C217986   3.223   2.024   4.738  0.8013 -0.1565 -0.1756
   33MOL     C317987   3.249   2.166   4.809 -0.7870  1.2844 -0.2431
   33MOL     O417988   3.359   2.211   4.746  0.4155 -0.5307  0.5351
   33MOL     C517989   3.124   2.263   4.798  0.4493 -0.4649 -1.0445
   33MOL     C617990   3.158   2.397   4.858 -0.1604 -0.1373 -0.7596
   33MOL     C717991   3.043   2.495   4.858  0.0241  0.7007  0.0730
   33MOL     O817992   3.085   2.611   4.919 -0.1370  0.2824 -0.6782
   33MOL     C917993   2.918   2.440   4.929 -0.4891 -0.1645 -0.3008
   33MOL    C1017994   2.798   2.524   4.892 -0.0853  0.0884 -0.2756
   33MOL    C1117995   2.890   2.299   4.884  0.8774  0.0830  0.1304
   33MOL    C1217996   3.012   2.210   4.890  0.4147 -0.4595  0.0310
   33MOL    H1317997   3.300   1.949   4.754 -0.0291 -0.7790  0.9911
   33MOL    H1417998   3.135   1.979   4.784  0.0035  1.3872 -0.1355
   33MOL    H1517999   3.284   2.163   4.912 -0.1086  2.3575 -0.4419
   33MOL    H1618000   3.341   2.196   4.654  0.5618  0.0398  0.4108
   33MOL    H1718001   3.090   2.277   4.696  0.0284 -1.8386 -1.1093
   33MOL    H1818002   3.193   2.383   4.961 -0.3515 -0.1173 -0.6922
   33MOL    H1918003   3.245   2.433   4.804  1.4070 -1.8144  0.5936
   33MOL    H2018004   3.015   2.509   4.753 -2.5285 -2.7504  0.2259
   33MOL    H2118005   3.019   2.679   4.910 -1.1974 -0.6432  0.0574
   33MOL    H2218006   2.936   2.446   5.036  2.1355 -1.3703 -0.6228
   33MOL    H2318007   2.814   2.628   4.921 -2.2527 -0.4074  2.9967
   33MOL    H2418008   2.790   2.540   4.785 -0.2744 -0.1650 -0.2994
   33MOL    H2518009   2.856   2.311   4.781 -0.4877 -0.0748  0.5579
   33MOL    H2618010   2.802   2.255   4.930 -0.4099  1.7451 -0.6559
   33MOL    H2718011   2.981   2.106   4.872  0.6008 -0.5696  0.3550
   33MOL    H2818012   3.041   2.191   4.993 -2.6800 -1.0442  0.8664
   33MOL    H2918013   3.156   1.963   4.564 -0.0498  0.4913 -1.4231
   33MOL    O3018014   2.683   2.464   4.937 -0.5396 -0.1832  0.4436
   33MOL    C3118015   2.580   2.485   4.840 -0.2797  0.3904 -0.1304
   33MOL    C3218016   2.460   2.406   4.884 -0.7099 -0.1084 -0.3411
   33MOL    O3318017   2.357   2.401   4.787  0.0389  0.0504  0.1765
   33MOL    C3418018   2.493   2.258   4.910 -0.3955 -0.3699  0.5810
   33MOL    C3518019   2.529   2.174   4.782 -0.6412  0.2870  0.3711
   33MOL    C3618020   2.585   2.033   4.818 -0.7438 -0.6643  0.4131
   33MOL    O3718021   2.606   1.964   4.705  1.0892  0.2503 -0.1992
   33MOL    C3818022   2.489   1.965   4.907 -0.0643  0.2677  0.1022
   33MOL    C3918023   2.554   1.838   4.967  0.0342  0.1590  0.7157
   33MOL    C4018024   2.442   2.048   5.027  0.0126  0.0286 -0.1941
   33MOL    C4118025   2.385   2.186   4.990  0.3235  0.2094  0.7281
   33MOL    H4218026   2.618   2.449   4.744 -0.6952  1.8383 -0.8438
   33MOL    H4318027   2.558   2.591   4.835  1.0343  0.7245  0.7773
   33MOL    H4418028   2.425   2.443   4.981  0.7956 -0.6783  0.4272
   33MOL    H4518029   2.294   2.344   4.828  1.7439 -1.8695  0.2083
   33MOL    H4618030   2.587   2.252   4.965  0.6293  0.8748 -0.9663
   33MOL    H4718031   2.443   2.166   4.714  2.5409 -0.1398 -3.7954
   33MOL    H4818032   2.600   2.227   4.719 -2.1461 -0.4419 -2.0459
   33MOL    H4918033   2.685   2.039   4.861 -0.8911 -0.4372  0.7305
   33MOL    H5018034   2.644   1.887   4.745 -1.3550 -1.6231 -1.3134
   33MOL    H5118035   2.410   1.932   4.840  1.4491 -1.2465 -0.9541
   33MOL    H5218036   2.635   1.858   5.036  1.3097  1.0356 -1.0085
   33MOL    H5318037   2.487   1.801   5.045 -0.1762 -0.5422  0.2041
   33MOL    H5418038   2.533   2.067   5.085 -0.0137  1.7127 -0.6877
   33MOL    H5518039   2.369   1.994   5.087  0.1267  2.2472  2.0106
   33MOL    H5618040   2.372   2.254   5.074  0.5071  0.8654  0.2351
   33MOL    H5718041   2.286   2.184   4.943  0.8438 -1.7172 -0.3166
   33MOL    O5818042   2.606   1.739   4.880  0.6629  0.4844 -0.0152
   33MOL    C5918043   2.645   1.613   4.940  0.1668  0.2926 -0.6456
   33MOL    C6018044   2.689   1.512   4.835 -0.2324 -0.0218 -0.1212
   33MOL    O6118045   2.598   1.522   4.730  0.0613  0.0316 -0.2234
   33MOL    C6218046   2.840   1.523   4.781  0.3515  0.8242 -0.5399
   33MOL    C6318047   2.872   1.667   4.735  0.1564 -0.2514  0.2314
   33MOL    C6418048   2.999   1.686   4.656  0.5145  0.5663  0.8261
   33MOL    O6518049   2.994   1.816   4.590 -0.3526  0.3406 -0.6083
   33MOL    C6618050   3.033   1.579   4.554 -0.7294 -0.0723  0.6362
   33MOL    C6718051   3.174   1.601   4.497  0.1273  0.1586  0.3378
   33MOL    C6818052   3.019   1.433   4.619 -0.5649  0.2481 -0.1248
   33MOL    C6918053   2.877   1.413   4.679  0.1120 -0.1376  0.9969
   33MOL    H7018054   2.557   1.575   4.992  0.2798 -0.2528 -0.8573
   33MOL    H7118055   2.714   1.620   5.024 -0.6501 -2.7161  0.3314
   33MOL    H7218056   2.670   1.417   4.885 -0.6424  0.0355 -0.1629
   33MOL    H7318057   2.589   1.615   4.715 -0.7067 -0.2719 -1.6930
   33MOL    H7418058   2.899   1.512   4.872  1.0616 -0.5072 -1.1364
   33MOL    H7518059   2.792   1.699   4.669 -1.7815 -1.4615  1.9036
   33MOL    H7618060   2.875   1.740   4.816  0.5352 -1.5301  1.3996
   33MOL    H7718061   3.072   1.685   4.738 -0.4055  0.3988  1.6596
   33MOL    H7818062   2.940   1.812   4.512  1.7972 -1.7247 -2.0598
   33MOL    H7918063   2.961   1.588   4.472  0.9709  0.1148 -0.8755
   33MOL    H8018064   3.193   1.526   4.420  0.2775  1.2677 -0.7145
   33MOL    H8118065   3.178   1.692   4.439 -1.6877  0.8047  1.1837
   33MOL    H8218066   3.091   1.421   4.700  0.6947 -0.0741 -1.2742
   33MOL    H8318067   3.027   1.361   4.538 -3.0258  0.6486 -0.7629
   33MOL    H8418068   2.878   1.314   4.726 -1.4048 -0.4293  0.4587
   33MOL    H8518069   2.800   1.418   4.602  2.4980 -0.1321 -1.4473
   33MOL    O8618070   3.275   1.606   4.591 -0.0009  0.2766 -0.0841
   33MOL    C8718071   3.394   1.676   4.561  0.3530 -0.9880  0.5705
   33MOL    C8818072   3.474   1.657   4.692  0.3492 -0.3068  0.0336
   33MOL    O8918073   3.409   1.730   4.797 -0.3720 -0.0290 -0.2516
   33MOL    C9018074   3.495   1.510   4.731 -0.1227  0.3985 -0.6517
   33MOL    C9118075   3.386   1.441   4.816 -0.6525  0.1535  0.1787
   33MOL    C9218076   3.394   1.290   4.790  0.1361  0.1340 -1.0465
   33MOL    O9318077   3.268   1.239   4.856 -0.0638 -0.7899  0.1307
   33MOL    C9418078   3.527   1.228   4.838 -0.5320  0.3827  0.0147
   33MOL    C9518079   3.540   1.089   4.778 -0.6971  0.1748 -0.0667
   33MOL    C9618080   3.642   1.304   4.778  0.2878 -0.9445  0.1700
   33MOL    C9718081   3.629   1.458   4.792  0.5126 -0.4156 -0.3179
   33MOL    H9818082   3.380   1.781   4.537  2.0143 -1.1969 -1.4053
   33MOL    H9918083   3.456   1.634   4.482  0.9617  2.0755 -0.6580
   33MOL   H10018084   3.562   1.715   4.665 -0.7580  1.4110  0.0467
   33MOL   H10118085   3.393   1.677   4.873 -0.6852  1.5039  0.7722
   33MOL   H10218086   3.498   1.451   4.639  0.3725 -0.4041 -0.1207
   33MOL   H10318087   3.396   1.466   4.921 -0.2679  1.9318 -0.2635
   33MOL   H10418088   3.283   1.468   4.789 -0.3182  0.8624 -0.4044
   33MOL   H10518089   3.390   1.271   4.683  0.5659 -0.9984 -0.8741
   33MOL   H10618090   3.234   1.173   4.797 -0.1065  0.0137 -0.7445
   33MOL   H10718091   3.540   1.212   4.945 -2.9991  0.1476  0.3105
   33MOL   H10818092   3.509   1.084   4.673 -1.1682 -1.9013  0.1445
   33MOL   H10918093   3.639   1.043   4.786 -1.5135 -1.6508 -0.1215
   33MOL   H11018094   3.666   1.280   4.674  0.9207  2.7115 -0.5819
   33MOL   H11118095   3.732   1.268   4.828  1.5563  1.8882  0.0150
   33MOL   H11218096   3.718   1.504   4.750  0.6181 -0.2614  0.0721
   33MOL   H11318097   3.637   1.485   4.897 -1.9768  0.8652 -0.4274
   33MOL   O11418098   3.450   1.007   4.858 -0.0500 -0.3366  0.0412
   33MOL   C11518099   3.469   0.865   4.841 -0.2315 -0.2850  0.8906
   33MOL   C11618100   3.348   0.780   4.892 -0.0704 -0.0939 -0.5330
   33MOL   O11718101   3.354   0.655   4.830 -0.0336 -0.3958  0.0814
   33MOL   C11818102   3.365   0.750   5.043  0.1981 -0.3063 -0.0024
   33MOL   C11918103   3.252   0.649   5.085  0.0029 -0.1518 -0.2588
   33MOL   C12018104   3.263   0.618   5.236 -0.0994  1.0088  0.2283
   33MOL   O12118105   3.169   0.529   5.285  0.2286 -0.1880  0.4189
   33MOL   C12218106   3.260   0.747   5.325  0.2929  0.0604  0.7386
   33MOL   C12318107   3.268   0.719   5.472 -0.2540 -0.0221  0.1882
   33MOL   C12418108   3.369   0.837   5.279  0.4789 -0.0613 -0.6136
   33MOL   C12518109   3.350   0.871   5.130 -0.6775 -0.5678  0.6327
   33MOL   H12618110   3.563   0.818   4.869 -0.3981 -0.4726  1.1407
   33MOL   H12718111   3.461   0.855   4.733  2.6522 -0.4617  0.6599
   33MOL   H12818112   3.253   0.826   4.864  0.6942  2.1324  0.4518
   33MOL   H12918113   3.439   0.613   4.837  0.9744  1.3108 -1.2243
   33MOL   H13018114   3.461   0.703   5.066  0.0440  0.7325  2.8534
   33MOL   H13118115   3.152   0.689   5.067  0.0857 -0.4726 -1.4922
   33MOL   H13218116   3.263   0.551   5.038  1.6026  0.1602 -0.5509
   33MOL   H13318117   3.358   0.565   5.241 -2.4739 -3.3432  1.1245
   33MOL   H13418118   3.203   0.500   5.369  0.8353 -0.8214 -0.0384
   33MOL   H13518119   3.167   0.802   5.314 -0.9254 -2.0961  0.0959
   33MOL   H13618120   3.239   0.809   5.527 -1.4693  0.6832 -1.5799
   33MOL   H13718121   3.187   0.653   5.503  0.4295 -1.4757 -1.0318
   33MOL   H13818122   3.464   0.788   5.300 -0.5705 -0.9301  2.4630
   33MOL   H13918123   3.367   0.928   5.339  1.8728 -0.3619 -0.0838
   33MOL   H14018124   3.428   0.937   5.092  0.0797 -1.4003  0.7156
   33MOL   H14118125   3.259   0.928   5.114 -0.0021  0.7061  1.2282
   33MOL   O14218126   3.401   0.683   5.514  0.1673  0.5450  0.2801
   33MOL   C14318127   3.409   0.641   5.653  0.0040 -0.0799  0.0394
   33MOL   C14418128   3.544   0.566   5.671 -0.5261  0.2499 -0.0041
   33MOL   O14518129   3.551   0.482   5.555  0.1195 -0.5453  0.2603
   33MOL   C14618130   3.668   0.656   5.681  0.1576 -0.4274 -0.0960
   33MOL   C14718131   3.797   0.575   5.661 -0.7786  0.5677 -0.1829
   33MOL   C14818132   3.924   0.653   5.711 -0.3300 -0.3002 -0.1844
   33MOL   O14918133   4.037   0.564   5.693  0.4027 -1.0320 -0.1791
   33MOL   C15018134   3.904   0.705   5.853  0.4309 -0.0355 -0.4998
   33MOL   C15118135   4.025   0.784   5.906  0.4573  0.1936  0.2452
   33MOL   C15218136   3.777   0.806   5.868  0.4289  0.1484 -0.1946
   33MOL   C15318137   3.653   0.726   5.817 -0.2215 -0.2989  0.6834
   33MOL   H15418138   3.332   0.569   5.681 -0.1589  0.8167  2.0252
   33MOL   H15518139   3.403   0.721   5.727  2.3899 -0.0542  0.2426
   33MOL   H15618140   3.536   0.500   5.757  0.5699  0.8244  0.5457
   33MOL   H15718141   3.534   0.535   5.478  0.4997 -1.2256 -0.3016
   33MOL   H15818142   3.653   0.733   5.605  1.4593  0.3903  0.4539
   33MOL   H15918143   3.788   0.486   5.723 -1.0408 -1.4895 -3.0722
   33MOL   H16018144   3.822   0.560   5.556 -1.1414 -2.3264  0.1007
   33MOL   H16118145   3.934   0.736   5.642  0.8004  1.0442  1.5614
   33MOL   H16218146   4.095   0.612   5.637 -2.0808  0.5198 -1.5090
   33MOL   H16318147   3.877   0.616   5.909 -0.2616  0.2594 -0.3594
   33MOL   H16418148   4.106   0.719   5.873 -0.8291  0.2805 -3.2782
   33MOL   H16518149   4.043   0.878   5.854  4.8162  0.3279  1.7459
   33MOL   H16618150   3.805   0.894   5.809  3.5353 -0.6359  0.0206
   33MOL   H16718151   3.772   0.843   5.971 -1.2877  1.4904 -0.7316
   33MOL   H16818152   3.572   0.798   5.815  1.0319  1.1431  1.0618
   33MOL   H16918153   3.621   0.654   5.892 -0.1845 -0.7211  0.2917
   33MOL   O17018154   4.015   0.793   6.044  0.5309 -0.3781  0.2356
   33MOL   C17118155   4.143   0.819   6.098 -0.1172  0.2328 -0.2108
   33MOL   C17218156   4.182   0.716   6.201  0.5399  0.0563 -0.0920
   33MOL   O17318157   4.244   0.613   6.126 -0.1096 -0.5345 -0.2960
   33MOL   C17418158   4.276   0.764   6.312 -0.5187  0.4599  0.8166
   33MOL   C17518159   4.408   0.810   6.259  0.2643  0.5343 -0.2334
   33MOL   C17618160   4.510   0.849   6.366 -0.5448  0.3662 -0.3752
   33MOL   O17718161   4.622   0.867   6.280 -0.6374 -0.5091  0.1750
   33MOL   C17818162   4.529   0.740   6.473  0.0417 -0.1484  0.5635
   33MOL   C17918163   4.613   0.784   6.587  0.1031  0.6435 -0.2713
   33MOL   C18018164   4.389   0.702   6.534  0.2666 -0.3661  0.3580
   33MOL   C18118165   4.294   0.649   6.417  0.0321 -0.5215  0.0187
   33MOL   H18218166   4.137   0.910   6.159 -0.0033  0.2621 -0.2453
   33MOL   H18318167   4.227   0.831   6.030  1.6428 -2.1664  1.4485
   33MOL   H18418168   4.094   0.681   6.255 -0.4905  0.1363 -1.6943
   33MOL   H18518169   4.181   0.586   6.061  0.6658 -2.3938 -0.2961
   33MOL   H18618170   4.228   0.849   6.362  1.1118  1.7622  0.2197
   33MOL   H18718171   4.455   0.733   6.197  1.4505  0.3550  0.8789
   33MOL   H18818172   4.394   0.898   6.196 -0.3365  1.7058  1.4962
   33MOL   H18918173   4.482   0.942   6.415 -0.3084  0.8369 -1.1341
   33MOL   H19018174   4.624   0.797   6.217  1.1355 -0.7186  0.4293
   33MOL   H19118175   4.573   0.651   6.429  0.6654  0.5072 -0.1476
   33MOL   H19218176   4.625   0.691   6.643 -0.5815  1.1919  0.7976
   33MOL   H19318177   4.716   0.793   6.552  0.1672  0.7870 -0.0496
   33MOL   H19418178   4.336   0.786   6.579  0.1215  0.7550 -1.8413
   33MOL   H19518179   4.407   0.623   6.607 -0.6741 -2.5753 -1.7547
   33MOL   H19618180   4.201   0.611   6.461  1.6816 -1.6324  2.7085
   33MOL   H19718181   4.340   0.562   6.371 -0.9907 -1.0389 -0.0480
   33MOL   O19818182   4.559   0.894   6.655 -0.3431 -0.2296  0.8070
   33MOL   C19918183   4.635   0.953   6.749 -0.1554 -0.1943  0.2978
   33MOL   C20018184   4.603   1.107   6.737  0.3677 -0.0847 -0.3021
   33MOL   O20118185   4.673   1.186   6.831  0.1869  0.4345 -0.5046
   33MOL   C20218186   4.622   1.163   6.599 -0.6493 -0.3822 -0.3777
   33MOL   C20318187   4.771   1.174   6.556  0.1483 -0.4547  0.0350
   33MOL   C20418188   4.772   1.201   6.402 -0.0999 -0.7996  0.2206
   33MOL   O20518189   4.911   1.198   6.357  0.4425  0.4408 -0.2403
   33MOL   C20618190   4.701   1.334   6.369 -0.0446  0.2653 -0.4160
   33MOL   C20718191   4.691   1.349   6.215 -0.3016  0.6045 -1.2879
   33MOL   C20818192   4.556   1.341   6.437 -0.0359  0.1632  0.0198
   33MOL   C20918193   4.552   1.304   6.582  0.0617  0.4859 -0.3419
   33MOL   H21018194   4.737   0.918   6.732  0.0157 -0.7443  2.3239
   33MOL   H21118195   4.610   0.923   6.851 -2.3796 -0.5878 -0.3271
   33MOL   H21218196   4.500   1.120   6.770 -0.2094 -0.1199 -2.0253
   33MOL   H21318197   4.764   1.177   6.804  0.2381 -1.2633  0.1748
   33MOL   H21418198   4.565   1.098   6.532  0.0112  0.2758 -1.5874
   33MOL   H21518199   4.817   1.254   6.614  2.0030 -0.3224 -1.5274
   33MOL   H21618200   4.819   1.080   6.584  0.1827 -0.8079 -1.1559
   33MOL   H21718201   4.720   1.121   6.350 -0.2957  0.7782 -2.0931
   33MOL   H21818202   4.941   1.109   6.364 -1.7148 -0.2919  0.0691
   33MOL   H21918203   4.759   1.417   6.411  1.0647 -0.3190 -0.7933
   33MOL   H22018204   4.643   1.443   6.186 -2.2091 -0.2431 -0.9605
   33MOL   H22118205   4.786   1.357   6.164  0.4418 -1.7490 -0.3265
   33MOL   H22218206   4.483   1.285   6.380  0.5012 -0.3309 -0.1910
   33MOL   H22318207   4.519   1.443   6.447  0.8576  0.6890 -1.8321
   33MOL   H22418208   4.448   1.303   6.612  0.2321  1.1219  0.2628
   33MOL   H22518209   4.605   1.379   6.641 -0.6449  0.6571  0.0778
   33MOL   O22618210   4.611   1.245   6.162  1.0400 -0.0713 -0.4062
   33MOL   C22718211   4.640   1.210   6.026  0.0111 -0.1974  0.7504
   33MOL   C22818212   4.568   1.302   5.932 -0.0528 -0.0251  0.0687
   33MOL   O22918213   4.669   1.351   5.839 -0.6071  0.1756 -0.0987
   33MOL   C23018214   4.450   1.234   5.855 -1.2128 -0.4692  0.4764
   33MOL   C23118215   4.415   1.325   5.740 -0.2810 -0.1992 -0.3363
   33MOL   C23218216   4.303   1.272   5.655 -0.1179  0.1424  0.8597
   33MOL   O23318217   4.291   1.358   5.549 -0.5988  0.2014  0.4409
   33MOL   C23418218   4.178   1.232   5.739 -0.5518  0.8455 -0.1668
   33MOL   C23518219   4.075   1.160   5.643 -0.0178  0.1852 -0.6046
   33MOL   C23618220   4.222   1.133   5.857 -0.6224  0.7219 -0.7033
   33MOL   C23718221   4.330   1.206   5.939 -0.8405  0.8336 -0.5834
   33MOL   H23818222   4.613   1.106   6.009  1.2159 -0.8502  2.6435
   33MOL   H23918223   4.748   1.216   6.016 -0.0682  2.6257  1.0306
   33MOL   H24018224   4.539   1.396   5.978  1.0452 -0.0373  0.8112
   33MOL   H24118225   4.732   1.284   5.818 -0.7248  0.0665 -0.1020
   33MOL   H24218226   4.482   1.134   5.825 -0.8448  0.1858 -1.3315
   33MOL   H24318227   4.392   1.421   5.787 -2.2452  0.8011 -3.2164
   33MOL   H24418228   4.502   1.347   5.679  0.7925  2.1988  1.9465
   33MOL   H24518229   4.338   1.180   5.608 -0.2071 -0.2225  1.5065
   33MOL   H24618230   4.374   1.358   5.504 -0.6281 -2.5524  0.3044
   33MOL   H24718231   4.139   1.324   5.782  1.1712  0.2852  2.7493
   33MOL   H24818232   4.065   1.226   5.556 -1.1988  1.4671  0.4731
   33MOL   H24918233   4.108   1.063   5.605 -0.7879  0.0809 -1.0094
   33MOL   H25018234   4.267   1.046   5.812  0.4875  1.1397 -0.4095
   33MOL   H25118235   4.137   1.101   5.918  0.5491 -0.1910  0.4574
   33MOL   H25218236   4.342   1.149   6.031  1.3464  1.2397 -0.5869
   33MOL   H25318237   4.288   1.295   5.984 -0.4819  1.6502 -1.8498
   33MOL   O25418238   3.955   1.137   5.718  0.2033 -0.5897 -0.3428
   33MOL   C25518239   3.866   1.250   5.707 -0.0751  0.2574 -0.5708
   33MOL   C25618240   3.740   1.219   5.783 -0.2339 -0.1328 -0.0612
   33MOL   O25718241   3.688   1.108   5.711 -0.2296  0.0810 -0.5557
   33MOL   C25818242   3.763   1.186   5.927  0.3197 -1.0441 -0.9749
   33MOL   C25918243   3.626   1.162   5.994  0.1187 -0.7120  0.5509
   33MOL   C26018244   3.634   1.137   6.139 -0.0616 -0.2328 -1.0493
   33MOL   O26118245   3.507   1.120   6.187 -0.4065  0.0927  0.1833
   33MOL   C26218246   3.690   1.257   6.213 -0.3266 -0.2085 -0.6159
   33MOL   C26318247   3.704   1.239   6.364  0.4891  0.5777  0.2353
   33MOL   C26418248   3.833   1.282   6.151 -0.0537 -0.3849  0.5011
   33MOL   C26518249   3.838   1.298   6.001  0.3308  0.5216  0.0817
   33MOL   H26618250   3.852   1.270   5.601  0.9074 -0.1350 -0.7806
   33MOL   H26718251   3.913   1.340   5.748 -1.0259  0.5510 -0.1205
   33MOL   H26818252   3.683   1.311   5.777 -2.2953 -1.2919  1.0715
   33MOL   H26918253   3.759   1.048   5.695 -0.5854 -0.8897  1.3386
   33MOL   H27018254   3.818   1.093   5.940  1.4929 -0.0852  1.4799
   33MOL   H27118255   3.564   1.250   5.976  0.3149 -0.6865 -0.0097
   33MOL   H27218256   3.576   1.074   5.953 -2.4595  1.1719 -0.4551
   33MOL   H27318257   3.700   1.054   6.165  0.8576  0.4942 -1.0166
   33MOL   H27418258   3.500   1.146   6.277  1.6219 -0.1476  0.4334
   33MOL   H27518259   3.632   1.348   6.202  0.2104  0.1383 -0.5955
   33MOL   H27618260   3.727   1.132   6.369 -1.6299  0.1199  0.8602
   33MOL   H27718261   3.774   1.309   6.409 -1.5539  1.9496  1.3695
   33MOL   H27818262   3.881   1.188   6.177 -1.0796 -0.2082  3.2188
   33MOL   H27918263   3.890   1.362   6.197 -0.9813 -0.4508  1.8065
   33MOL   H28018264   3.941   1.282   5.968  0.2190  1.4051 -0.6967
   33MOL   H28118265   3.794   1.391   5.967 -1.5165 -1.4768 -3.2405
   33MOL   O28218266   3.577   1.249   6.429  0.5232  0.3785  0.2291
   33MOL   C28318267   3.564   1.170   6.551  0.4406  0.2157 -1.2812
   33MOL   C28418268   3.443   1.241   6.615  0.0552 -0.0719 -0.1264
   33MOL   O28518269   3.329   1.198   6.535  0.5991 -0.7464  0.8442
   33MOL   C28618270   3.411   1.233   6.765 -0.6987  0.0303  0.0045
   33MOL   C28718271   3.368   1.093   6.808  0.1198 -1.2083  0.1027
   33MOL   C28818272   3.358   1.092   6.961 -0.5840  1.1049 -0.6111
   33MOL   O28918273   3.321   0.964   6.992  0.2973  0.4800  0.4411
   33MOL   C29018274   3.255   1.196   7.018 -0.0079 -0.5376  0.5834
   33MOL   C29118275   3.257   1.202   7.172 -0.6962 -0.0135  0.1545
   33MOL   C29218276   3.279   1.334   6.961  0.4138  0.9128 -0.0983
   33MOL   C29318277   3.306   1.335   6.811 -0.2217  0.5323  0.0781
   33MOL   H29418278   3.661   1.180   6.600 -0.6395 -0.1136  1.0133
   33MOL   H29518279   3.536   1.066   6.534 -1.9451  0.7327 -0.7539
   33MOL   H29618280   3.462   1.348   6.603 -0.5195  0.2287  1.4849
   33MOL   H29718281   3.336   1.235   6.449 -1.0253 -1.6281  0.3025
   33MOL   H29818282   3.503   1.261   6.816 -0.2705  2.9730 -2.1919
   33MOL   H29918283   3.275   1.053   6.770 -1.2720  0.4047  1.6858
   33MOL   H30018284   3.443   1.021   6.774 -0.3432 -0.8735 -1.6717
   33MOL   H30118285   3.454   1.107   7.009  0.3008 -1.1140 -1.6180
   33MOL   H30218286   3.291   0.955   7.082  1.8381  0.1243  0.9401
   33MOL   H30318287   3.158   1.160   6.984 -0.6208  0.9169  0.7294
   33MOL   H30418288   3.188   1.279   7.207  1.0415  1.9707 -0.6975
   33MOL   H30518289   3.245   1.105   7.220  2.8075 -0.4642  0.2569
   33MOL   H30618290   3.366   1.367   7.017  1.4296 -1.3857 -0.2625
   33MOL   H30718291   3.200   1.403   6.992  0.3957  1.4500 -1.3204
   33MOL   H30818292   3.339   1.438   6.797 -2.3442  1.2205 -0.0406
   33MOL   H30918293   3.214   1.322   6.754  1.2566  1.9675 -2.7387
   33MOL   O31018294   3.389   1.235   7.212  0.2917 -0.1659 -0.4675
   33MOL   C31118295   3.407   1.250   7.350  0.8133  0.6761  0.1687
   33MOL   C31218296   3.407   1.396   7.372  0.1595  0.5568 -0.1613
   33MOL   O31318297   3.276   1.445   7.396 -0.3082  0.4075  0.1045
   33MOL   C31418298   3.505   1.435   7.486  0.8053  0.4598 -0.1488
   33MOL   C31518299   3.465   1.380   7.619  0.4449 -0.8435  0.3568
   33MOL   C31618300   3.574   1.394   0.093 -0.6633 -0.2848  0.2656
   33MOL   O31718301   3.513   1.335   0.204  0.4619  0.1329 -0.0786
   33MOL   C31818302   3.620   1.543   0.103 -0.8288  0.6014 -0.8572
   33MOL   C31918303   3.748   1.550   0.192  0.1057 -0.4601 -0.0951
   33MOL   C32018304   3.652   1.602   7.594  0.1177  0.1106  0.8206
   33MOL   C32118305   3.521   1.585   7.499 -0.0779  0.5534 -0.1774
   33MOL   H32218306   3.503   1.210   7.382  0.9691  0.4831 -0.5073
   33MOL   H32318307   3.329   1.195   7.403  0.8798  1.0164  0.6128
   33MOL   H32418308   3.442   1.450   7.284 -3.0335  0.8621 -1.2762
   33MOL   H32518309   3.223   1.367   7.385  0.3444  0.3474 -3.2616
   33MOL   H32618310   3.598   1.393   7.448 -0.1440 -0.2490 -1.7325
   33MOL   H32718311   3.372   1.426   0.023  1.6229  1.2088  0.9279
   33MOL   H32818312   3.439   1.275   7.610 -1.7034 -0.2916 -0.0877
   33MOL   H32918313   3.664   1.336   0.069  0.1934  0.8464  0.7342
   33MOL   H33018314   3.572   1.339   0.277 -0.1603  4.0145  0.3265
   33MOL   H33118315   3.543   1.600   0.155 -0.7983 -0.2882  0.1850
   33MOL   H33218316   3.720   1.534   0.296  1.3152  3.6135  0.9587
   33MOL   H33318317   3.821   1.480   0.151 -0.9370 -0.7232 -1.5294
   33MOL   H33418318   3.742   1.562   7.548  0.0269  0.3620  0.4158
   33MOL   H33518319   3.681   1.707   7.607 -0.6813  0.2540  1.4934
   33MOL   H33618320   3.541   1.620   7.398  1.0060 -2.4671 -1.0646
   33MOL   H33718321   3.432   1.632   7.540  0.3853  0.9798  0.3546
   33MOL   O33818322   3.804   1.679   0.190  0.1129 -0.2682  0.3782
   33MOL   C33918323   3.756   1.783   0.267  0.4542  0.3224  0.1991
   33MOL   C34018324   3.825   1.901   0.206 -0.0673 -0.1742 -0.0583
   33MOL   O34118325   3.789   1.927   0.070  0.0301  0.2628 -0.0995
   33MOL   C34218326   3.814   2.027   0.289  0.2823 -0.5743  0.2485
   33MOL   C34318327   3.669   2.058   0.333 -0.8812  0.2899 -0.6369
   33MOL   C34418328   3.666   2.172   0.434 -0.2929  0.4243 -0.1676
   33MOL   O34518329   3.535   2.199   0.473  0.3114  0.3993  0.1121
   33MOL   C34618330   3.733   2.299   0.380 -0.1168  0.6162  0.3279
   33MOL   C34718331   3.738   2.419   0.472  0.2732 -0.1020 -0.4962
   33MOL   C34818332   3.876   2.269   0.316 -0.4346 -1.2572 -0.3156
   33MOL   C34918333   3.883   2.142   0.228 -0.2352 -0.6959  0.1147
   33MOL   H35018334   3.769   1.786   0.376  1.6398 -0.8911  0.1095
   33MOL   H35118335   3.651   1.790   0.239  0.4740  1.7048  0.4272
   33MOL   H35218336   3.927   1.865   0.194  0.1741  0.1381  0.9505
   33MOL   H35318337   3.697   1.905   0.063  0.0457 -0.3323  1.3449
   33MOL   H35418338   3.871   2.002   0.378  1.6736 -1.0507 -0.7424
   33MOL   H35518339   3.614   2.081   0.242 -3.1410 -0.3224  0.5183
   33MOL   H35618340   3.625   1.968   0.377 -3.7633  2.7461  1.7200
   33MOL   H35718341   3.714   2.132   0.523 -1.1851  0.6251  0.4183
   33MOL   H35818342   3.497   2.116   0.497  0.3158 -0.4676 -2.7008
   33MOL   H35918343   3.673   2.323   0.292  0.7674  0.7747 -0.2442
   33MOL   H36018344   3.792   2.494   0.414  0.9307 -1.7495 -2.0819
   33MOL   H36118345   3.646   2.455   0.516  1.0411  0.0842  0.9823
   33MOL   H36218346   3.940   2.244   0.401 -0.5989  0.8507  0.4508
   33MOL   H36318347   3.918   2.358   0.270 -0.6745 -0.5324  0.8680
   33MOL   H36418348   3.988   2.114   0.226  0.5313  1.9252  1.3980
   33MOL   H36518349   3.855   2.176   0.128  4.5298 -0.7854 -1.3663
   33MOL   O36618350   3.829   2.396   0.575  0.0726  0.0858  0.0475
   33MOL   C36718351   3.863   2.508   0.648  0.8093  0.3026 -0.4179
   33MOL   C36818352   3.941   2.461   0.778 -0.0560 -0.2345  0.2192
   33MOL   O36918353   4.071   2.411   0.733  0.9673  0.1219 -0.4995
   33MOL   C37018354   3.960   2.561   0.898  0.1180  0.0996 -0.1358
   33MOL   C37118355   3.827   2.594   0.979 -0.1524 -0.1417 -0.0434
   33MOL   C37218356   3.860   2.677   1.107  0.1603  0.2662 -0.3999
   33MOL   O37318357   3.738   2.720   1.166  0.0628 -0.3274 -0.3158
   33MOL   C37418358   3.935   2.810   1.057  0.5880  0.4234  0.1507
   33MOL   C37518359   3.969   2.903   1.171 -0.1586  0.8051  0.3841
   33MOL   C37618360   4.063   2.775   0.982  0.1825 -0.1494  0.0248
   33MOL   C37718361   4.030   2.690   0.863 -0.0591  0.1698 -0.1294
   33MOL   H37818362   3.774   2.564   0.675  0.2602  0.0920 -1.7654
   33MOL   H37918363   3.930   2.574   0.592 -1.6778  1.9478 -1.5068
   33MOL   H38018364   3.891   2.374   0.820  1.1744 -0.4600  1.2759
   33MOL   H38118365   4.048   2.371   0.651 -3.0052 -0.0959  0.5990
   33MOL   H38218366   4.024   2.507   0.967 -0.4681  0.4849  0.7242
   33MOL   H38318367   3.755   2.647   0.918  1.9222 -1.4050 -3.7364
   33MOL   H38418368   3.776   2.504   1.011  1.5146 -2.0353 -2.5440
   33MOL   H38518369   3.918   2.619   1.179 -0.7315  0.9347  0.8675
   33MOL   H38618370   3.659   2.726   1.115 -0.1183 -2.5689 -0.3766
   33MOL   H38718371   3.871   2.858   0.982  0.3743 -1.5707 -0.9702
   33MOL   H38818372   3.875   2.933   1.217  0.3001 -1.5402  3.0288
   33MOL   H38918373   4.041   2.854   1.237 -0.9428  0.1766  0.7841
   33MOL   H39018374   4.134   2.723   1.046 -1.0480 -1.5880  0.2382
   33MOL   H39118375   4.103   2.868   0.940 -0.5878 -0.1075 -0.6375
   33MOL   H39218376   4.119   2.655   0.810 -0.3686  0.4450 -0.8488
   33MOL   H39318377   3.966   2.750   0.798  0.4506  0.7376 -0.1015
   33MOL   O39418378   4.035   3.016   1.111 -0.1311  0.4083 -0.6394
   33MOL   C39518379   4.070   3.118   1.201  0.8732  0.4011  0.1003
   33MOL   C39618380   4.106   3.233   1.106  0.7260 -0.6963  0.0297
   33MOL   O39718381   4.221   3.192   1.030  0.3417  0.7381 -0.5504
   33MOL   C39818382   4.005   3.295   1.008  0.7343  0.2312  0.1198
   33MOL   C39918383   3.885   3.353   1.089 -0.2866  0.2902  0.6778
   33MOL   C40018384   3.792   3.432   1.000  0.1132 -0.6312  0.4142
   33MOL   O40118385   3.691   3.489   1.083 -0.1454 -0.0348 -0.0572
   33MOL   C40218386   3.738   3.326   0.899  0.5578  0.1444 -0.2269
   33MOL   C40318387   3.620   3.391   0.819  0.2107  0.0823 -0.1507
   33MOL   C40418388   3.854   3.276   0.810 -0.8499 -0.0400 -0.0646
   33MOL   C40518389   3.955   3.199   0.897 -0.4475 -0.1141  0.3191
   33MOL   H40618390   4.160   3.102   1.260 -0.3703 -0.0395  1.9271
   33MOL   H40718391   3.991   3.154   1.267  1.5050  1.6858  0.1750
   33MOL   H40818392   4.139   3.312   1.173  0.4552  0.1608 -0.8457
   33MOL   H40918393   4.288   3.174   1.094  0.8454 -0.5276 -1.4191
   33MOL   H41018394   4.060   3.375   0.958 -0.5804  0.9819 -0.1241
   33MOL   H41118395   3.839   3.272   1.145  0.0307  0.4873  1.2239
   33MOL   H41218396   3.926   3.427   1.157 -1.5586 -0.6896  2.5370
   33MOL   H41318397   3.848   3.508   0.945 -2.5080 -0.3776 -2.0356
   33MOL   H41418398   3.628   3.425   1.111  0.1442 -0.3124 -0.0412
   33MOL   H41518399   3.695   3.241   0.953 -1.8968  0.6833 -1.2346
   33MOL   H41618400   3.533   3.398   0.883 -0.3254  1.0232 -0.9819
   33MOL   H41718401   3.623   3.498   0.803  0.1668 -0.0700 -1.2183
   33MOL   H41818402   3.895   3.361   0.756  0.3591 -1.3458 -1.2236
   33MOL   H41918403   3.813   3.209   0.734 -0.4139 -0.3915  0.0050
   33MOL   H42018404   4.044   3.180   0.837  0.3225  0.5605  1.2395
   33MOL   H42118405   3.914   3.102   0.926  0.0614 -0.2497  0.5902
   33MOL   O42218406   3.581   3.312   0.707 -0.0971  0.0112  0.2907
   33MOL   C42318407   3.561   3.388   0.591  0.1034  0.2297  0.3803
   33MOL   C42418408   3.425   3.469   0.590  0.4513  0.5080  0.1745
   33MOL   O42518409   3.441   3.608   0.615 -0.0686 -0.2354  0.5107
   33MOL   C42618410   3.349   3.465   0.459  0.5805  0.2491 -0.5443
   33MOL   C42718411   3.415   3.510   0.322 -0.6381  0.2228  0.9127
   33MOL   C42818412   3.321   3.484   0.202  0.0558 -0.3450 -0.6166
   33MOL   O42918413   3.382   3.553   0.095 -0.0359 -0.8332 -0.4506
   33MOL   C43018414   3.179   3.537   0.223 -0.7029  1.0648  0.3253
   33MOL   C43118415   3.086   3.498   0.108  0.5632  0.2614  0.5935
   33MOL   C43218416   3.110   3.505   0.351  0.2168  0.0106 -0.0705
   33MOL   C43318417   3.211   3.538   0.466 -0.0482 -0.1791 -0.5505
   33MOL   H43418418   3.558   3.313   0.511 -4.0511  0.6488 -0.0092
   33MOL   H43518419   3.646   3.454   0.578  1.1558 -0.9515  1.2352
   33MOL   H43618420   3.361   3.439   0.673  0.3661  0.2793  0.0289
   33MOL   H43718421   3.412   3.631   0.701 -0.8739 -0.3484  0.2717
   33MOL   H43818422   3.311   3.363   0.451  1.4549 -0.2058  0.8823
   33MOL   H43918423   3.442   3.615   0.324  1.1624 -0.2199  0.7870
   33MOL   H44018424   3.512   3.463   0.307 -0.6944  0.4958 -0.3049
   33MOL   H44118425   3.307   3.378   0.180 -1.0310  0.3388 -3.3632
   33MOL   H44218426   3.361   3.645   0.098  0.4976 -0.7467  0.7893
   33MOL   H44318427   3.192   3.645   0.228 -1.3312  1.1103  0.9721
   33MOL   H44418428   3.140   3.535   0.020 -0.5063 -2.1803 -1.1585
   33MOL   H44518429   3.080   3.390   0.099  1.2244  0.2297  0.5136
   33MOL   H44618430   3.098   3.396   0.357  1.3071 -0.1209 -0.2169
   33MOL   H44718431   3.017   3.555   0.378  0.8199  0.6975  0.7530
   33MOL   H44818432   3.160   3.521   0.562  0.1461 -1.8355 -0.7152
   33MOL   H44918433   3.228   3.645   0.472  1.0505 -0.3160 -1.1666
   33MOL   O45018434   2.955   3.540   0.105 -0.0763  0.5476  0.4560
   33MOL   C45118435   2.905   3.530   7.601 -0.0294 -0.0410 -0.0936
   33MOL   C45218436   2.757   3.582   7.608  0.7518 -0.4854 -0.3359
   33MOL   O45318437   2.683   3.492   0.061 -0.7297 -0.6277  0.1005
   33MOL   C45418438   2.737   3.729   0.035 -0.2028 -0.2103  0.1869
   33MOL   C45518439   2.590   3.775   7.625 -0.3568  0.5275 -0.5406
   33MOL   C45618440   2.564   3.925   0.034  0.2712  0.1313 -1.2399
   33MOL   O45718441   2.432   3.950   7.623 -0.3296  0.2217  0.3623
   33MOL   C45818442   2.668   4.023   7.613 -0.2396 -0.0298 -0.0923
   33MOL   C45918443   2.637   4.168   0.035  0.1409  0.1349  0.4923
   33MOL   C46018444   2.804   3.971   0.026 -0.6597 -0.5591 -0.3175
   33MOL   C46118445   2.833   3.828   7.604  0.2839 -0.0014 -0.3383
   33MOL   H46218446   2.888   3.425   7.577  1.9745 -0.0854 -1.3699
   33MOL   H46318447   2.967   3.571   7.522  2.0024 -1.9859  0.4304
   33MOL   H46418448   2.714   3.579   7.508 -0.1792 -0.2201  0.0486
   33MOL   H46518449   2.731   3.463   0.137 -1.8810 -3.6829 -0.2660
   33MOL   H46618450   2.755   3.718   0.142  0.2893 -0.3888  0.0882
   33MOL   H46718451   2.576   3.766   7.517 -3.5900  0.1992 -0.1493
   33MOL   H46818452   2.516   3.710   0.045  0.2822  0.1531 -0.0657
   33MOL   H46918453   2.558   3.923   0.143  1.4162 -1.5240 -1.1833
   33MOL   H47018454   2.419   3.926   7.533 -0.6105 -1.7509  0.8967
   33MOL   H47118455   2.676   4.025   7.504  0.8102 -1.0211 -0.0375
   33MOL   H47218456   2.561   4.220   7.606  0.2062 -0.6581 -0.3072
   33MOL   H47318457   2.602   4.177   0.138  0.3187 -1.6842  0.7254
   33MOL   H47418458   2.808   3.965   0.134 -0.9240  0.8392 -0.2218
   33MOL   H47518459   2.887   4.034   7.625  0.3036 -1.5151  0.3036
   33MOL   H47618460   2.938   3.808   7.626 -0.0742 -0.5821  0.8666
   33MOL   H47718461   2.816   3.825   7.496 -1.1072  1.5154 -0.1749
   33MOL   O47818462   2.750   4.255   0.017 -0.3216 -0.3515  0.4746
   33MOL   C47918463   2.744   4.369   0.100 -0.3020 -0.7852 -0.4958
   33MOL   C48018464   2.889   4.394   0.129 -0.2924 -0.2330 -0.1625
   33MOL   O48118465   2.950   4.409   0.007  0.5884 -0.2770  0.0973
   33MOL   C48218466   2.923   4.509   0.223 -0.2270 -0.4795  0.1555
   33MOL   C48318467   2.873   4.651   0.182 -0.4992 -0.3334  0.0564
   33MOL   C48418468   2.916   4.772   0.265 -0.1639 -0.4195 -0.8713
   33MOL   O48518469   2.869   4.892   0.199  0.0849 -0.2296  0.0376
   33MOL   C48618470   3.069   4.781   0.283 -0.2570  0.5727  0.4445
   33MOL   C48718471   3.110   4.887   0.389 -0.0877  0.4208 -0.3684
   33MOL   C48818472   3.127   4.647   0.333  0.9191  0.2076  0.1966
   33MOL   C48918473   3.075   4.524   0.247 -1.0061 -0.1464 -0.4847
   33MOL   H49018474   2.702   4.344   0.198 -0.0864  0.9417  0.0516
   33MOL   H49118475   2.701   4.456   0.052 -0.1274 -0.9946 -1.0324
   33MOL   H49218476   2.919   4.300   0.177 -0.3153 -0.8176 -1.2632
   33MOL   H49318477   2.902   4.345   7.587 -1.1356  2.0797 -1.3909
   33MOL   H49418478   2.892   4.477   0.323  0.3971  1.4621  0.9960
   33MOL   H49518479   2.915   4.660   0.082  0.9629  1.7581  0.8299
   33MOL   H49618480   2.764   4.654   0.177 -0.3974  1.3793 -2.2161
   33MOL   H49718481   2.862   4.769   0.360 -0.8952 -2.3529 -1.3021
   33MOL   H49818482   2.847   4.951   0.270 -1.6075 -0.7701 -0.0178
   33MOL   H49918483   3.099   4.811   0.182 -1.2151  0.2967  0.0696
   33MOL   H50018484   3.068   4.982   0.355  1.8473  1.6682  0.5993
   33MOL   H50118485   3.076   4.865   0.490  1.7882 -1.7844 -0.1886
   33MOL   H50218486   3.085   4.610   0.426  0.5503 -0.6272 -0.2930
   33MOL   H50318487   3.236   4.649   0.326  0.7910  0.7518 -2.2840
   33MOL   H50418488   3.107   4.426   0.283 -0.5855  0.1649  0.0057
   33MOL   H50518489   3.117   4.533   0.147  0.2550 -1.1920 -0.0648
   33MOL   O50618490   3.251   4.887   0.380 -0.2756  0.0303 -0.2916
   33MOL   C50718491   3.309   4.980   0.476  0.2071  0.1692 -0.1886
   33MOL   C50818492   3.452   5.014   0.426  0.0644  0.1262  0.1570
   33MOL   O50918493   3.453   5.148   0.368  0.6244  0.3117  0.0395
   33MOL   C51018494   3.571   5.010   0.527  0.6248  0.1029 -0.2474
   33MOL   C51118495   3.539   5.109   0.645 -0.1660 -0.3980 -0.0461
   33MOL   C51218496   3.658   5.122   0.745  0.0866  0.6315  0.5070
   33MOL   O51318497   3.626   5.232   0.830  0.2407 -0.0781 -0.2546
   33MOL   C51418498   3.796   5.129   0.676 -0.0440 -0.2031  1.0261
   33MOL   C51518499   3.916   5.128   0.779 -0.1217 -0.0997  0.1139
   33MOL   C51618500   3.820   5.033   0.561  0.2318 -0.1284  0.0084
   33MOL   C51718501   3.702   5.032   0.458  0.5047 -0.5063 -0.2108
   33MOL   H51818502   3.325   4.936   0.574  1.1740  0.8924 -0.0217
   33MOL   H51918503   3.237   5.061   0.488  0.0262 -0.0024 -0.1156
   33MOL   H52018504   3.468   4.943   0.345 -1.3936  0.6326 -0.5797
   33MOL   H52118505   3.370   5.164   0.325  0.7554 -1.3907 -0.9158
   33MOL   H52218506   3.570   4.913   0.577  0.3584  0.9068  1.3627
   33MOL   H52318507   3.496   5.200   0.603  0.2341 -0.7450 -1.2145
   33MOL   H52418508   3.466   5.054   0.705 -0.1414 -0.6109 -0.2109
   33MOL   H52518509   3.661   5.030   0.804 -0.2511  0.8066  0.8046
   33MOL   H52618510   3.685   5.242   0.904  0.3192 -0.7170 -0.2294
   33MOL   H52718511   3.796   5.231   0.639 -2.3410 -0.6803 -0.4116
   33MOL   H52818512   3.918   5.028   0.822  5.1674 -0.0744  0.1809
   33MOL   H52918513   4.008   5.161   0.731 -0.6734  1.3355  0.0014
   33MOL   H53018514   3.826   4.932   0.601 -0.9032  0.5327  1.8942
   33MOL   H53118515   3.920   5.056   0.523  1.1170 -0.3797  2.1257
   33MOL   H53218516   3.722   4.955   0.383  0.6813 -0.7915  0.1235
   33MOL   H53318517   3.692   5.130   0.413  3.4460 -1.0021 -2.0454
   33MOL   O53418518   3.896   5.230   0.873  0.0861 -0.1111 -0.4541
   33MOL   C53518519   3.967   5.235   0.991  0.2529 -0.3992 -0.3734
   33MOL   C53618520   3.914   5.144   1.104 -0.3346 -0.4836  0.9505
   33MOL   O53718521   4.006   5.165   1.215 -0.0238 -0.0197  0.5661
   33MOL   C53818522   3.773   5.184   1.159  0.2094 -0.2609  0.0174
   33MOL   C53918523   3.762   5.330   1.212  0.1047  0.6699 -0.1947
   33MOL   C54018524   3.616   5.363   1.256 -0.4343 -0.0716 -0.8435
   33MOL   O54118525   3.615   5.485   1.330  0.0163  0.2011 -0.4194
   33MOL   C54218526   3.567   5.261   1.351  0.0571 -0.0375 -0.3518
   33MOL   C54318527   3.416   5.280   1.391  0.3359 -0.0600 -0.3759
   33MOL   C54418528   3.584   5.120   1.297  0.1547 -0.2624 -0.8963
   33MOL   C54518529   3.727   5.087   1.263 -0.6343 -0.2961 -0.4683
   33MOL   H54618530   3.972   5.342   1.013  0.4872  0.0396 -2.4625
   33MOL   H54718531   4.070   5.203   0.972  0.7403  0.6754  0.4275
   33MOL   H54818532   3.919   5.044   1.060  1.0154  0.6176 -1.5131
   33MOL   H54918533   4.085   5.133   1.174 -0.5449  0.2803 -0.7147
   33MOL   H55018534   3.706   5.166   1.074  0.9961  0.3598 -0.7459
   33MOL   H55118535   3.835   5.339   1.292  1.0995  1.3180 -1.1686
   33MOL   H55218536   3.799   5.402   1.139 -0.1097 -1.3951 -2.4403
   33MOL   H55318537   3.553   5.371   1.168  0.0381  0.4455 -1.1403
   33MOL   H55418538   3.526   5.513   1.347 -0.0948 -1.0768  1.2112
   33MOL   H55518539   3.619   5.273   1.447 -3.0149 -1.9732  1.6312
   33MOL   H55618540   3.355   5.322   1.311 -0.3381 -2.2381 -1.0252
   33MOL   H55718541   3.369   5.183   1.409  0.4869 -0.1045 -0.2286
   33MOL   H55818542   3.513   5.104   1.216  0.6168 -2.5315 -0.8835
   33MOL   H55918543   3.561   5.050   1.377  0.4807 -1.1016 -1.5274
   33MOL   H56018544   3.737   4.985   1.227  0.3603 -0.5648  0.5509
   33MOL   H56118545   3.786   5.094   1.355 -2.1106  1.0906  0.4144
   33MOL   H56218546   3.414   5.341   1.481 -0.7440  2.2243 -1.8926
   34MOL     O118547   0.434   2.698   5.255 -0.3202 -0.1263 -0.1345
   34MOL     C218548   0.538   2.794   5.240  0.4100 -0.6715  0.1661
   34MOL     C318549   0.660   2.736   5.309  0.0618 -0.0744 -0.0145
   34MOL     O418550   0.680   2.623   5.224  0.5453  0.0513 -0.0853
   34MOL     C518551   0.781   2.826   5.333  0.0885 -0.1757 -0.7793
   34MOL     C618552   0.911   2.751   5.307 -0.2630  0.4879  0.6677
   34MOL     C718553   1.035   2.840   5.322 -0.3023  0.3587  0.1136
   34MOL     O818554   1.154   2.756   5.316  0.3421  0.6905 -0.1592
   34MOL     C918555   1.032   2.925   5.451 -0.8120 -0.4538 -0.3014
   34MOL    C1018556   1.142   3.030   5.468 -0.7193 -0.1370  0.0635
   34MOL    C1118557   0.904   2.998   5.471  1.0957  0.2276  0.4523
   34MOL    C1218558   0.781   2.905   5.471 -0.1794  0.6984 -0.6301
   34MOL    H1318559   0.507   2.891   5.279 -1.5561 -1.0599 -0.3468
   34MOL    H1418560   0.547   2.820   5.135 -3.1696  0.4818  0.0841
   34MOL    H1518561   0.640   2.689   5.405  2.0604 -0.7029  0.1341
   34MOL    H1618562   0.588   2.617   5.202  0.3482  1.0602  0.4219
   34MOL    H1718563   0.786   2.900   5.253  1.3135  0.4797 -0.1212
   34MOL    H1818564   0.919   2.672   5.381 -0.5716  0.1043  0.2985
   34MOL    H1918565   0.920   2.709   5.207 -2.9713  0.1789  0.5096
   34MOL    H2018566   1.047   2.906   5.236 -1.3224  2.3380  1.4591
   34MOL    H2118567   1.223   2.806   5.276  0.7115 -0.2992 -0.7850
   34MOL    H2218568   1.050   2.855   5.533  0.6647  0.4094  0.1275
   34MOL    H2318569   1.237   2.977   5.460 -2.1704 -2.9352  1.0485
   34MOL    H2418570   1.125   3.101   5.386 -0.9266 -0.1607  0.0844
   34MOL    H2518571   0.907   3.077   5.395  0.1970  0.6323  0.8349
   34MOL    H2618572   0.895   3.053   5.564  2.2667  0.6736  0.3138
   34MOL    H2718573   0.687   2.956   5.489 -1.0038 -0.9426 -0.1848
   34MOL    H2818574   0.789   2.834   5.553  0.2170  0.9488 -0.4493
   34MOL    H2918575   0.376   2.736   5.319  1.7923 -1.9626  3.0064
   34MOL    O3018576   1.152   3.105   5.585 -0.1660 -0.5510 -0.1951
   34MOL    C3118577   1.258   3.196   5.596  0.7046  0.2461  0.9956
   34MOL    C3218578   1.281   3.229   5.748 -0.6813 -0.2124 -0.3105
   34MOL    O3318579   1.368   3.135   5.810 -0.0041 -0.7236  0.1423
   34MOL    C3418580   1.325   3.378   5.772 -0.3535 -0.2332 -0.4741
   34MOL    C3518581   1.479   3.406   5.746 -0.3633  0.2344  1.0880
   34MOL    C3618582   1.510   3.559   5.766  0.6459  0.2654  0.5533
   34MOL    O3718583   1.645   3.582   5.729  0.0966  0.2593 -0.1834
   34MOL    C3818584   1.466   3.607   5.910 -0.4642 -0.2452  0.6157
   34MOL    C3918585   1.494   3.761   5.924 -0.4031 -0.3751  0.2440
   34MOL    C4018586   1.319   3.568   5.939  0.0342 -0.7668  0.0872
   34MOL    C4118587   1.282   3.421   5.916 -0.1460 -0.0271 -0.4942
   34MOL    H4218588   1.224   3.276   5.531 -0.3809 -1.0537 -0.0457
   34MOL    H4318589   1.355   3.171   5.554  0.1249  0.0554 -0.2427
   34MOL    H4418590   1.185   3.222   5.800 -1.3764  0.4094 -1.4604
   34MOL    H4518591   1.336   3.048   5.794  0.3610 -1.1931  1.8554
   34MOL    H4618592   1.267   3.432   5.698  0.3702  1.3437  0.0950
   34MOL    H4718593   1.534   3.346   5.818  0.8999  0.6544  0.4698
   34MOL    H4818594   1.510   3.377   5.646 -0.7072 -0.4048  1.1617
   34MOL    H4918595   1.456   3.617   5.691 -1.1755  0.3736  1.9171
   34MOL    H5018596   1.693   3.503   5.746  1.6615  1.2122  0.0106
   34MOL    H5118597   1.522   3.551   5.985 -1.1546 -0.4507  0.9760
   34MOL    H5218598   1.600   3.778   5.912 -0.0381 -1.4392  1.7675
   34MOL    H5318599   1.452   3.827   5.848 -0.0754 -1.2637 -0.7061
   34MOL    H5418600   1.251   3.629   5.880  0.2109  0.0839  0.7542
   34MOL    H5518601   1.300   3.596   6.043 -1.8036  0.2346 -0.4951
   34MOL    H5618602   1.174   3.408   5.922 -0.1761  0.5298  0.3316
   34MOL    H5718603   1.328   3.354   5.988 -1.8556  0.6433  1.2429
   34MOL    O5818604   1.450   3.788   6.053 -0.5309 -0.1162  1.0918
   34MOL    C5918605   1.430   3.926   6.065  0.4518 -0.0398 -0.0609
   34MOL    C6018606   1.407   3.952   6.217 -0.4146 -0.7049 -0.0282
   34MOL    O6118607   1.285   3.874   6.238  0.0734 -0.2907 -0.1934
   34MOL    C6218608   1.524   3.893   6.304 -0.0558 -0.1328 -0.2982
   34MOL    C6318609   1.500   3.892   6.456 -0.4989 -0.5123 -0.4757
   34MOL    C6418610   1.610   3.820   6.540 -0.1257 -0.1341  0.2764
   34MOL    O6518611   1.583   3.832   6.682 -0.5308  0.5519 -0.9821
   34MOL    C6618612   1.752   3.881   6.503 -0.5845 -0.3526 -0.9062
   34MOL    C6718613   1.860   3.797   6.576  0.7136 -0.0656 -0.0092
   34MOL    C6818614   1.771   3.894   6.354 -0.2554  0.6122 -0.0622
   34MOL    C6918615   1.654   3.972   6.287  0.0575  0.3631 -0.1465
   34MOL    H7018616   1.341   3.956   6.009 -0.7866  1.4009  2.5841
   34MOL    H7118617   1.517   3.979   6.026  1.0792 -1.8720 -1.1929
   34MOL    H7218618   1.405   4.061   6.228  0.5086 -0.9552  3.0865
   34MOL    H7318619   1.308   3.795   6.193 -1.9544  0.2711 -2.3147
   34MOL    H7418620   1.532   3.789   6.274 -4.1287 -0.4241 -0.7636
   34MOL    H7518621   1.513   3.996   6.485 -0.6281 -0.6019 -0.0945
   34MOL    H7618622   1.403   3.852   6.489  1.2462 -2.9000  1.9950
   34MOL    H7718623   1.611   3.716   6.510  2.1604  0.2971 -1.2469
   34MOL    H7818624   1.525   3.763   6.710  1.4262 -0.7901 -0.1786
   34MOL    H7918625   1.768   3.986   6.527  1.6687 -0.4912 -1.7299
   34MOL    H8018626   1.845   3.783   6.683 -1.7767 -0.9343 -0.4291
   34MOL    H8118627   1.832   3.693   6.563  1.7218 -0.0569 -2.5494
   34MOL    H8218628   1.778   3.795   6.308 -0.6011  0.7356 -0.3864
   34MOL    H8318629   1.864   3.943   6.327  0.1620  0.1630  0.5547
   34MOL    H8418630   1.675   3.983   6.180 -2.6257  3.2348 -0.4384
   34MOL    H8518631   1.640   4.073   6.324 -0.3893 -0.2742  1.4670
   34MOL    O8618632   1.987   3.817   6.525  0.1611 -0.1053  0.0516
   34MOL    C8718633   2.087   3.739   6.583  0.7063  0.0285  0.7713
   34MOL    C8818634   2.219   3.784   6.534  0.4115  0.4024  0.3855
   34MOL    O8918635   2.241   3.912   6.590 -0.8352 -0.1954 -0.2019
   34MOL    C9018636   2.330   3.678   6.588  0.4087  0.1163  0.3733
   34MOL    C9118637   2.345   3.689   6.746 -0.5070  0.0820 -0.1992
   34MOL    C9218638   2.460   3.614   6.807  0.4658 -0.4955 -0.0987
   34MOL    O9318639   2.465   3.630   6.945  0.2635 -0.1751 -0.4725
   34MOL    C9418640   2.594   3.634   6.726 -0.7496 -0.8397 -0.4719
   34MOL    C9518641   2.720   3.573   6.777  0.1590 -1.2748  0.4203
   34MOL    C9618642   2.566   3.595   6.581 -0.2654  0.7916  0.3577
   34MOL    C9718643   2.464   3.690   6.516  0.5056  0.0960 -0.1544
   34MOL    H9818644   2.054   3.644   6.542  0.6611  0.0519  0.7548
   34MOL    H9918645   2.066   3.738   6.690 -1.8041  0.5286  0.3213
   34MOL   H10018646   2.213   3.786   6.425 -2.2106  1.1118  0.5110
   34MOL   H10118647   2.154   3.946   6.582 -1.3064 -1.2885  0.2316
   34MOL   H10218648   2.286   3.582   6.562  0.8558  0.2098 -0.7270
   34MOL   H10318649   2.344   3.797   6.765  1.7250 -0.0819  1.0457
   34MOL   H10418650   2.258   3.653   6.800  0.1152  0.1770  0.9021
   34MOL   H10518651   2.432   3.510   6.791 -1.4819  0.0828 -0.6111
   34MOL   H10618652   2.557   3.645   6.959  0.0303 -1.0202  1.9983
   34MOL   H10718653   2.623   3.739   6.733 -0.4614 -0.8303 -1.5620
   34MOL   H10818654   2.707   3.468   6.803  2.5847 -1.5974  0.4368
   34MOL   H10918655   2.798   3.590   6.702 -0.8459 -1.4029 -0.6756
   34MOL   H11018656   2.527   3.494   6.574  0.1039  0.6572  0.2317
   34MOL   H11118657   2.654   3.599   6.517 -0.9246  0.6861 -0.5563
   34MOL   H11218658   2.445   3.671   6.410 -4.0734  0.3154  0.5328
   34MOL   H11318659   2.496   3.793   6.526 -1.4461  0.6144  0.9345
   34MOL   O11418660   2.747   3.629   6.906 -0.0233 -0.0803 -0.4197
   34MOL   C11518661   2.868   3.582   6.974  0.0188 -0.6949 -0.2790
   34MOL   C11618662   2.908   3.669   7.097 -0.0239  0.5325 -0.7674
   34MOL   O11718663   2.800   3.658   7.193 -0.0991  0.4519  0.3050
   34MOL   C11818664   3.043   3.622   7.171 -0.0145  0.1970 -0.1722
   34MOL   C11918665   3.067   3.733   7.278 -0.3694  0.1128  0.0536
   34MOL   C12018666   3.198   3.719   7.355  0.7694 -0.4644  0.3293
   34MOL   O12118667   3.211   3.818   7.452 -0.5837 -0.2788  0.2411
   34MOL   C12218668   3.324   3.721   7.268 -0.4175 -0.0275  0.0153
   34MOL   C12318669   3.470   3.701   7.328 -0.3716 -0.4664 -0.2961
   34MOL   C12418670   3.303   3.615   7.157 -0.0852  0.1311  0.2205
   34MOL   C12518671   3.171   3.624   7.077 -0.2929 -0.2938 -0.0419
   34MOL   H12618672   2.942   3.582   6.894  0.9308  1.8490  0.5151
   34MOL   H12718673   2.852   3.481   7.011  1.6162 -0.3772  1.3548
   34MOL   H12818674   2.918   3.773   7.065  1.2979  0.4592 -0.6189
   34MOL   H12918675   2.775   3.568   7.208 -2.2628  0.9249 -0.2378
   34MOL   H13018676   3.020   3.534   7.230 -1.8191  1.0734  0.4804
   34MOL   H13118677   3.051   3.831   7.232 -1.8408  0.5114  1.3639
   34MOL   H13218678   2.990   3.725   7.355 -0.5510  0.4755 -0.0898
   34MOL   H13318679   3.207   3.619   7.397 -0.0503 -0.9796 -0.7295
   34MOL   H13418680   3.241   3.897   7.409 -1.0452 -1.2897 -2.0316
   34MOL   H13518681   3.317   3.818   7.218 -1.6294 -0.1342 -0.0409
   34MOL   H13618682   3.478   3.759   7.420 -0.0160 -0.1646 -0.5137
   34MOL   H13718683   3.495   3.596   7.343 -2.1199 -1.0729 -1.5306
   34MOL   H13818684   3.309   3.517   7.203 -0.4814  0.1104  0.2286
   34MOL   H13918685   3.377   3.624   7.077  0.8319 -3.5297  0.5669
   34MOL   H14018686   3.157   3.553   6.996 -2.0326  0.9165 -0.8430
   34MOL   H14118687   3.157   3.717   7.021  0.4788  0.6331  1.2920
   34MOL   O14218688   3.567   3.763   7.237  0.1004  0.0587 -0.3683
   34MOL   C14318689   3.698   3.715   7.258  0.2218  0.6256 -0.0049
   34MOL   C14418690   3.720   3.583   7.185  0.1764 -0.1247  0.0434
   34MOL   O14518691   3.722   3.614   7.049 -0.0899 -0.2685 -0.1186
   34MOL   C14618692   3.848   3.496   7.214  0.4488  0.2861 -0.3847
   34MOL   C14718693   3.834   3.395   7.328 -0.0753  0.1643  0.2635
   34MOL   C14818694   3.964   3.309   7.348 -0.6043 -0.4232  0.4353
   34MOL   O14918695   3.943   3.234   7.463  0.1788 -0.0474 -0.2996
   34MOL   C15018696   4.084   3.402   7.362  0.1833  0.5728  0.0219
   34MOL   C15118697   4.219   3.331   7.400 -0.4686  0.1923  0.1434
   34MOL   C15218698   4.094   3.491   7.242 -0.0542 -0.3869 -0.8940
   34MOL   C15318699   3.972   3.579   7.235 -0.0835 -0.4407  0.0292
   34MOL   H15418700   3.715   3.707   7.366 -0.0294 -0.5447 -0.0379
   34MOL   H15518701   3.770   3.790   7.228  0.7632 -0.7174 -2.1864
   34MOL   H15618702   3.639   3.514   7.210 -0.4113  0.2109 -0.9065
   34MOL   H15718703   3.645   3.664   7.030  1.1326  1.2237 -1.2645
   34MOL   H15818704   3.865   3.441   7.122  0.2723 -1.3962  0.5752
   34MOL   H15918705   3.800   3.451   7.415 -2.2526  0.4292 -0.7284
   34MOL   H16018706   3.747   3.339   7.295 -1.1587  1.5188  0.7840
   34MOL   H16118707   3.962   3.235   7.268  2.0069  1.4586 -1.4495
   34MOL   H16218708   3.976   3.146   7.455  0.3841 -0.0832  0.8886
   34MOL   H16318709   4.057   3.456   7.453  0.3585  0.3616  0.2027
   34MOL   H16418710   4.208   3.294   7.502 -1.1721 -0.1019 -0.0381
   34MOL   H16518711   4.251   3.247   7.339  0.1153  2.5274 -2.8356
   34MOL   H16618712   4.108   3.432   7.152  1.5337 -1.4440  0.0299
   34MOL   H16718713   4.187   3.547   7.232 -0.6823  1.0452  0.9083
   34MOL   H16818714   3.981   3.643   7.147  0.4419 -1.2312 -0.5039
   34MOL   H16918715   3.958   3.640   7.324  2.3437  0.5128 -0.1901
   34MOL   O17018716   4.322   3.430   7.393  0.2492 -0.8172  0.1881
   34MOL   C17118717   4.337   3.526   7.498 -0.6852  0.0442 -0.2744
   34MOL   C17218718   4.480   3.589   7.503  0.6030 -0.0589  0.3356
   34MOL   O17318719   4.479   3.701   7.581 -0.6688  0.2973 -0.3392
   34MOL   C17418720   4.600   3.504   7.548  0.2628  0.6929 -0.3227
   34MOL   C17518721   4.590   3.424   0.047 -0.3866  0.3721 -0.3317
   34MOL   C17618722   4.711   3.333   0.072 -0.0486 -0.7961  0.2246
   34MOL   O17718723   4.707   3.272   0.197 -0.1743 -0.1239 -0.3954
   34MOL   C17818724   4.849   3.406   0.051 -0.7167  0.6776 -0.3478
   34MOL   C17918725   4.959   3.300   0.063  0.0440 -1.0619  0.3764
   34MOL   C18018726   4.852   3.487   7.549  0.1968  0.0525  0.2450
   34MOL   C18118727   4.731   3.585   7.531 -0.3968  0.0200 -0.1751
   34MOL   H18218728   4.315   3.474   7.591  1.7207  0.8343  0.7787
   34MOL   H18318729   4.258   3.601   7.487 -0.8178  0.1059  0.9895
   34MOL   H18418730   4.498   3.628   7.402  3.1565  1.8743  1.4694
   34MOL   H18518731   4.427   3.690   0.030  0.5547 -0.1724  0.4217
   34MOL   H18618732   4.604   3.423   7.474 -1.8955  0.2565 -0.0107
   34MOL   H18718733   4.576   3.497   0.126 -0.1833  1.0589 -0.9204
   34MOL   H18818734   4.498   3.366   0.047  0.1856 -0.5513 -0.9443
   34MOL   H18918735   4.702   3.257   7.624 -0.8437  0.3113 -0.7946
   34MOL   H19018736   4.715   3.333   0.269  0.3031 -0.3846 -0.2279
   34MOL   H19118737   4.856   3.482   0.129  0.6588  0.5842 -0.3766
   34MOL   H19218738   4.952   3.254   0.162  2.6187 -0.6434  0.8030
   34MOL   H19318739   4.933   3.219   7.625  0.0664 -0.1363 -0.7570
   34MOL   H19418740   4.866   3.415   7.468  2.3291  1.8875 -1.0937
   34MOL   H19518741   4.944   3.545   7.543 -1.3353  2.4451 -0.4470
   34MOL   H19618742   4.744   3.639   7.437 -0.1773  1.3604  0.6049
   34MOL   H19718743   4.731   3.654   7.615 -2.6050  0.3581 -0.4182
   34MOL   O19818744   5.091   3.349   0.054  0.0546  0.3883 -0.0162
   34MOL   C19918745   5.191   3.248   0.049 -0.0052 -0.3671  0.3600
   34MOL   C20018746   5.197   3.192   7.534  0.4175  0.2071 -0.3572
   34MOL   O20118747   5.114   3.084   7.522  0.3531  0.0892  0.1729
   34MOL   C20218748   5.160   3.286   7.414 -0.4405 -0.5370 -0.5395
   34MOL   C20318749   5.170   3.221   7.279  0.0288  0.5183  0.5772
   34MOL   C20418750   5.119   3.313   7.170  0.0928 -0.2682  0.6510
   34MOL   O20518751   5.119   3.235   7.054 -0.6983  0.2265  0.2781
   34MOL   C20618752   5.210   3.436   7.163 -0.0325  0.2219 -0.9724
   34MOL   C20718753   5.150   3.529   7.050 -0.0336 -0.6985 -0.3119
   34MOL   C20818754   5.218   3.497   7.304  0.1932 -0.1554  0.0644
   34MOL   C20918755   5.265   3.403   7.413 -0.4962  0.6728 -0.3622
   34MOL   H21018756   5.184   3.165   0.119  1.2402  2.0704  3.5202
   34MOL   H21118757   5.287   3.299   0.059 -1.2922  2.2990 -0.3286
   34MOL   H21218758   5.299   3.153   7.533  0.6852  0.7551  2.0208
   34MOL   H21318759   5.172   3.018   7.558  0.7376 -0.5017 -1.4564
   34MOL   H21418760   5.057   3.319   7.420 -1.8503 -4.3590 -1.9722
   34MOL   H21518761   5.274   3.198   7.253  0.0354  0.0297  1.0267
   34MOL   H21618762   5.112   3.129   7.284 -0.0271  0.5098 -0.1504
   34MOL   H21718763   5.014   3.337   7.184 -0.3471  0.7619 -3.8972
   34MOL   H21818764   5.204   3.197   7.038 -0.7006  0.0602  0.6590
   34MOL   H21918765   5.309   3.403   7.131 -0.6035  1.2568 -3.9274
   34MOL   H22018766   5.170   3.475   6.958  1.1196 -0.5635 -0.1424
   34MOL   H22118767   5.045   3.551   7.070 -0.1718 -1.5490 -0.0975
   34MOL   H22218768   5.118   3.532   7.330  0.1484 -0.3762  0.1898
   34MOL   H22318769   5.284   3.583   7.296 -2.1995  1.7722  0.3389
   34MOL   H22418770   5.270   3.472   7.497  3.1412 -0.5720  0.5174
   34MOL   H22518771   5.367   3.370   7.392 -0.3553  0.7476  0.2104
   34MOL   O22618772   5.227   3.649   7.052  0.0010 -0.0184  0.5316
   34MOL   C22718773   5.159   3.758   6.987  0.0149 -0.0514 -0.4251
   34MOL   C22818774   5.244   3.890   7.017 -0.7768  0.0303 -0.1335
   34MOL   O22918775   5.332   3.892   6.901  0.2162 -0.5652 -0.2813
   34MOL   C23018776   5.180   4.028   7.003 -0.1292 -0.3773  0.3892
   34MOL   C23118777   5.275   4.136   7.057 -0.3497 -0.0469  0.4496
   34MOL   C23218778   5.230   4.279   7.017 -0.1177  0.1894  0.0479
   34MOL   O23318779   5.321   4.372   7.074  0.7367  0.0749 -0.1062
   34MOL   C23418780   5.085   4.311   7.067 -0.5707  0.1774 -0.2912
   34MOL   C23518781   5.034   4.433   7.000 -0.8567  0.5767  0.3603
   34MOL   C23618782   4.995   4.190   7.031 -0.0664 -0.0507 -0.2752
   34MOL   C23718783   5.051   4.050   7.069 -0.6696 -0.3658 -0.1707
   34MOL   H23818784   5.058   3.772   7.027  0.6677  1.6279  0.7231
   34MOL   H23918785   5.162   3.738   6.880  0.9333  0.0664 -0.4212
   34MOL   H24018786   5.304   3.879   7.108 -0.6857  1.3582 -0.0219
   34MOL   H24118787   5.393   3.820   6.907 -0.7439 -1.5140 -1.5075
   34MOL   H24218788   5.160   4.052   6.898  0.9898 -1.2691 -0.0425
   34MOL   H24318789   5.268   4.137   7.166 -1.0138  0.7465  0.4019
   34MOL   H24418790   5.376   4.127   7.018 -0.1847 -0.3464  0.9434
   34MOL   H24518791   5.239   4.286   6.909 -1.2546 -0.7097 -0.1094
   34MOL   H24618792   5.296   4.390   7.163  0.5331 -1.1457  0.0998
   34MOL   H24718793   5.090   4.324   7.175  0.7705 -0.1593 -0.3075
   34MOL   H24818794   5.090   4.518   7.040 -0.9628  0.7772  0.0819
   34MOL   H24918795   5.044   4.440   6.892 -0.3803  1.0596  0.4307
   34MOL   H25018796   4.973   4.185   6.924  0.9319 -0.9094 -0.4419
   34MOL   H25118797   4.903   4.196   7.090  0.0288 -0.5847 -0.0795
   34MOL   H25218798   4.973   3.981   7.037  0.1028 -0.4771 -1.8676
   34MOL   H25318799   5.071   4.040   7.176 -2.5444  2.5337  0.5116
   34MOL   O25418800   4.896   4.459   7.046 -0.3485 -0.6234 -0.1609
   34MOL   C25518801   4.845   4.584   6.991 -0.4034  0.0548  0.0773
   34MOL   C25618802   4.799   4.688   7.095 -0.4548 -0.8529 -0.0784
   34MOL   O25718803   4.768   4.804   7.021  0.7972 -0.0214  0.3347
   34MOL   C25818804   4.688   4.637   7.187 -0.3520  0.1507 -0.3838
   34MOL   C25918805   4.562   4.580   7.125 -0.4137  0.2217  0.2817
   34MOL   C26018806   4.470   4.522   7.230  0.0002 -0.5910  0.2069
   34MOL   O26118807   4.370   4.461   7.157  0.0751 -0.2643  0.5689
   34MOL   C26218808   4.428   4.618   7.338 -0.2332 -0.0843  0.2360
   34MOL   C26318809   4.337   4.550   7.440  0.5078 -0.5779 -0.5474
   34MOL   C26418810   4.552   4.681   7.390 -0.6154 -0.4326 -0.5184
   34MOL   C26518811   4.641   4.746   7.283  0.1807 -0.0053 -0.1018
   34MOL   H26618812   4.765   4.576   6.917 -0.9255 -0.9442  0.7275
   34MOL   H26718813   4.930   4.635   6.947 -0.7712 -1.0790 -2.0220
   34MOL   H26818814   4.888   4.712   7.152  1.6023  0.9783 -3.9115
   34MOL   H26918815   4.712   4.780   6.949 -1.4742 -1.2118  2.4155
   34MOL   H27018816   4.738   4.558   7.243  3.2735  1.6153 -1.3638
   34MOL   H27118817   4.512   4.664   7.078  3.5751  1.1393 -2.5871
   34MOL   H27218818   4.578   4.511   7.042  1.1812  2.2648 -1.1793
   34MOL   H27318819   4.527   4.446   7.284  2.1388 -0.3026 -1.5582
   34MOL   H27418820   4.325   4.396   7.209 -0.8074 -2.3481 -2.6854
   34MOL   H27518821   4.368   4.699   7.298  2.3927  0.7505 -2.2089
   34MOL   H27618822   4.381   4.457   7.475 -1.1507 -1.6855 -1.3220
   34MOL   H27718823   4.332   4.611   7.530 -1.6295 -0.9374 -0.3791
   34MOL   H27818824   4.602   4.624   7.467  2.8410  2.2494 -0.6468
   34MOL   H27918825   4.511   4.761   7.452 -0.2082 -1.3455  0.9392
   34MOL   H28018826   4.733   4.790   7.322  1.2434  0.2948 -2.8676
   34MOL   H28118827   4.587   4.825   7.232 -1.3723 -0.4721  0.7902
   34MOL   O28218828   4.210   4.543   7.392 -0.1960  0.3027 -0.1565
   34MOL   C28318829   4.137   4.439   7.451  0.1673  0.1597 -0.5422
   34MOL   C28418830   4.009   4.412   7.364  0.1607  0.0037 -0.3034
   34MOL   O28518831   4.041   4.367   7.240 -0.1903  0.2765  0.1552
   34MOL   C28618832   3.908   4.312   7.422 -0.5397 -0.0196  0.0805
   34MOL   C28718833   3.973   4.171   7.418 -0.5881 -0.0513  0.0502
   34MOL   C28818834   3.884   4.070   7.490 -0.2625 -0.2452  0.0621
   34MOL   O28918835   3.954   3.948   7.488  0.0896 -0.6065  0.4864
   34MOL   C29018836   3.739   4.067   7.417 -0.5166  0.0569 -0.2415
   34MOL   C29118837   3.644   3.989   7.514 -0.0669  0.1513  0.4723
   34MOL   C29218838   3.677   4.209   7.393  0.2570 -0.0125 -0.3172
   34MOL   C29318839   3.777   4.311   7.346 -0.2308 -0.2468 -0.2365
   34MOL   H29418840   4.112   4.467   7.553  0.8307  0.0052 -0.3343
   34MOL   H29518841   4.192   4.346   7.466 -1.9177 -0.7773  1.5636
   34MOL   H29618842   3.964   4.511   7.357  0.4738  0.0319 -2.1092
   34MOL   H29718843   4.095   4.436   7.207  0.8967 -0.0807  1.1752
   34MOL   H29818844   3.882   4.322   7.527  1.7430 -0.5822  0.7215
   34MOL   H29918845   3.982   4.148   7.312  1.5978  0.0894  0.1859
   34MOL   H30018846   4.068   4.168   7.470 -0.6382 -0.8350  0.0923
   34MOL   H30118847   3.875   4.102   7.594 -0.2079  1.6456 -0.5067
   34MOL   H30218848   3.918   3.889   7.552 -0.0922 -0.6066  0.3861
   34MOL   H30318849   3.749   4.009   7.325 -0.2794 -2.0857  1.0896
   34MOL   H30418850   3.542   3.995   7.475  0.3177 -2.7811 -1.0507
   34MOL   H30518851   3.675   3.885   7.516  0.4875  0.3230  1.9905
   34MOL   H30618852   3.655   4.243   7.494  2.7931  2.7607 -0.6204
   34MOL   H30718853   3.581   4.214   7.343 -0.0794 -0.1975  0.3080
   34MOL   H30818854   3.738   4.413   7.345 -2.6914 -1.1404 -1.0180
   34MOL   H30918855   3.794   4.277   7.244 -0.1351  0.7225 -0.5444
   34MOL   O31018856   3.644   4.035   0.015  0.1343 -0.1278  0.3864
   34MOL   C31118857   3.568   3.947   0.095  0.3087 -0.1821 -0.0588
   34MOL   C31218858   3.412   3.953   0.080 -0.5058 -0.1903  0.0436
   34MOL   O31318859   3.376   3.818   0.045 -0.1029  0.7810 -0.4049
   34MOL   C31418860   3.337   4.005   0.215  0.1453  0.1920 -0.4809
   34MOL   C31518861   3.361   3.913   0.335  0.0924  1.1830 -0.2408
   34MOL   C31618862   3.286   3.959   0.453  0.1552  0.3151 -0.1214
   34MOL   O31718863   3.318   3.896   0.566  0.1338 -0.4639 -0.2191
   34MOL   C31818864   3.135   3.952   0.431 -0.3997  0.2715 -0.8797
   34MOL   C31918865   3.046   3.993   0.549  0.1379  0.9952 -0.8648
   34MOL   C32018866   3.100   4.031   0.304 -0.1702 -0.4955 -1.1517
   34MOL   C32118867   3.181   4.008   0.179  1.0212 -0.5155 -0.7013
   34MOL   H32218868   3.597   3.966   0.198  0.3510 -0.7928  0.0399
   34MOL   H32318869   3.597   3.843   0.085 -0.6944 -0.4275 -0.4855
   34MOL   H32418870   3.395   4.021   7.626 -1.1306 -2.2672 -1.5562
   34MOL   H32518871   3.301   3.828   7.617  0.4348  2.5238 -0.8450
   34MOL   H32618872   3.370   4.103   0.249 -0.2746  0.7893 -1.7965
   34MOL   H32718873   3.343   3.807   0.317 -0.4757  1.1181  0.6643
   34MOL   H32818874   3.466   3.929   0.361 -0.4434  0.4545  2.5646
   34MOL   H32918875   3.322   4.059   0.475  0.6798  0.2476 -0.6841
   34MOL   H33018876   3.348   3.808   0.547  1.9570  0.1850 -0.3838
   34MOL   H33118877   3.117   3.846   0.412 -1.6259  0.7303 -2.3783
   34MOL   H33218878   3.058   3.946   0.646 -2.0592 -0.2754 -1.1705
   34MOL   H33318879   3.067   4.097   0.575 -0.8673  0.5340  1.8737
   34MOL   H33418880   3.091   4.138   0.326 -1.7387 -0.8102 -0.1671
   34MOL   H33518881   2.994   4.010   0.287 -0.6064 -0.2544  1.0619
   34MOL   H33618882   3.156   4.077   0.099  1.3346 -0.2023 -0.5282
   34MOL   H33718883   3.146   3.910   0.147 -0.1919 -0.2619 -0.2176
   34MOL   O33818884   2.911   3.994   0.512  0.3706  0.1029  0.0134
   34MOL   C33918885   2.848   3.865   0.492 -0.4309 -0.3804  0.6755
   34MOL   C34018886   2.703   3.888   0.429 -0.3748  0.1923 -0.5970
   34MOL   O34118887   2.648   3.759   0.446 -0.5183 -0.3584  0.4676
   34MOL   C34218888   2.614   3.994   0.487 -0.3656  0.6551  0.1452
   34MOL   C34318889   2.657   4.137   0.447 -0.2424  0.3044 -0.4627
   34MOL   C34418890   2.545   4.233   0.492 -0.2840  0.5868 -0.4402
   34MOL   O34518891   2.589   4.361   0.453  0.1326 -0.3780  0.4331
   34MOL   C34618892   2.517   4.236   0.642 -0.1416  0.1834 -0.4198
   34MOL   C34718893   2.396   4.317   0.680 -0.2949 -0.7097 -0.0816
   34MOL   C34818894   2.491   4.090   0.684 -0.4337  0.2337  0.2241
   34MOL   C34918895   2.598   3.994   0.642 -0.3846 -0.0830 -0.1291
   34MOL   H35018896   2.851   3.800   0.579  0.1299 -0.4445  0.6063
   34MOL   H35118897   2.908   3.806   0.423  0.4056 -0.6930  1.6549
   34MOL   H35218898   2.714   3.901   0.321  0.9510  2.3778 -0.2346
   34MOL   H35318899   2.563   3.754   0.406  0.4963  0.5677 -1.9063
   34MOL   H35418900   2.513   3.977   0.451 -0.7112 -0.6235  1.6347
   34MOL   H35518901   2.750   4.162   0.497 -0.2939 -1.3794  0.5348
   34MOL   H35618902   2.679   4.140   0.340 -1.1491  0.8316 -0.6360
   34MOL   H35718903   2.455   4.202   0.439  0.6586 -1.5854 -0.8388
   34MOL   H35818904   2.535   4.425   0.498  0.6112 -0.9086  1.7808
   34MOL   H35918905   2.596   4.276   0.705 -1.4215  0.4082  1.0581
   34MOL   H36018906   2.307   4.269   0.639 -0.8595 -0.0444  0.3445
   34MOL   H36118907   2.389   4.303   0.788  2.1248 -0.5355  0.1161
   34MOL   H36218908   2.399   4.051   0.640  1.0374 -0.6481 -2.1694
   34MOL   H36318909   2.486   4.069   0.791 -0.2613  0.6573  0.3141
   34MOL   H36418910   2.566   3.893   0.668  0.2173 -0.6895 -1.6915
   34MOL   H36518911   2.696   4.011   0.685  0.1794 -2.9508 -0.1637
   34MOL   O36618912   2.402   4.445   0.627 -0.0624  0.3841  0.3000
   34MOL   C36718913   2.278   4.514   0.629 -0.2757 -0.3025 -0.6076
   34MOL   C36818914   2.299   4.660   0.606  0.3559 -0.6030  0.2358
   34MOL   O36918915   2.361   4.713   0.722 -0.0129  0.2919  0.1748
   34MOL   C37018916   2.389   4.709   0.490 -0.2310  0.0768  0.4112
   34MOL   C37118917   2.384   4.866   0.468 -0.3665  0.2638  0.0857
   34MOL   C37218918   2.488   4.912   0.361  0.4727 -0.2753 -0.4633
   34MOL   O37318919   2.522   5.042   0.362 -0.2576 -1.0234  0.8660
   34MOL   C37418920   2.437   4.867   0.227  0.3312 -0.1594  0.4289
   34MOL   C37518921   2.520   4.910   0.096  0.3649 -0.9340 -0.0481
   34MOL   C37618922   2.418   4.718   0.230  1.1438 -0.4971 -0.6908
   34MOL   C37718923   2.347   4.651   0.350  0.5228 -0.2557  0.1422
   34MOL   H37818924   2.219   4.488   0.717  1.8771 -2.2760  0.3344
   34MOL   H37918925   2.228   4.478   0.539  2.8268  2.1325 -3.4146
   34MOL   H38018926   2.202   4.710   0.602  0.2718 -0.5692  2.0475
   34MOL   H38118927   2.424   4.647   0.749  2.0706  2.7011  1.3888
   34MOL   H38218928   2.489   4.674   0.515 -0.1503 -0.5061 -0.6891
   34MOL   H38318929   2.280   4.890   0.447 -1.5813 -4.0279  0.7916
   34MOL   H38418930   2.404   4.918   0.562  0.3514 -0.2169  0.2051
   34MOL   H38518931   2.583   4.859   0.369  0.3261 -1.0422 -3.1009
   34MOL   H38618932   2.486   5.076   0.282  5.1957  0.9312 -0.9687
   34MOL   H38718933   2.341   4.915   0.207  0.4991  0.9881  2.2600
   34MOL   H38818934   2.626   4.920   0.118  0.3668  2.6935 -1.3975
   34MOL   H38918935   2.509   4.831   0.021  0.6472 -0.9992 -0.0188
   34MOL   H39018936   2.518   4.675   0.232  1.2853 -0.2526 -1.9441
   34MOL   H39118937   2.374   4.677   0.139 -0.0901  1.7536 -1.1506
   34MOL   H39218938   2.373   4.545   0.347  1.6510  0.0432 -1.8476
   34MOL   H39318939   2.239   4.663   0.337  0.7726  0.6790 -1.1436
   34MOL   O39418940   2.481   5.036   0.038 -0.2994  0.2012  0.3560
   34MOL   C39518941   2.544   5.070   7.543 -0.6434 -0.2469 -0.0987
   34MOL   C39618942   2.522   5.215   7.496  0.4685  0.6699 -0.1434
   34MOL   O39718943   2.388   5.234   7.468  0.2152  0.6758 -0.4417
   34MOL   C39818944   2.579   5.332   7.579 -0.0342  0.0381  0.1743
   34MOL   C39918945   2.503   5.372   0.078  1.1411 -0.4067  0.3389
   34MOL   C40018946   2.572   5.487   0.153  0.4545 -0.4039 -0.2199
   34MOL   O40118947   2.492   5.522   0.266  0.7615 -0.7280  0.5561
   34MOL   C40218948   2.595   5.608   0.060 -0.5532  0.4418  0.0305
   34MOL   C40318949   2.674   5.725   0.126 -0.7174  0.4981 -0.1574
   34MOL   C40418950   2.671   5.574   7.557 -0.3992 -0.4450 -0.7443
   34MOL   C40518951   2.602   5.460   7.484  0.1297  0.4636 -0.2780
   34MOL   H40618952   2.511   5.003   7.464 -1.4248  1.8420 -1.5819
   34MOL   H40718953   2.653   5.059   7.549 -0.6308 -0.3348 -0.4659
   34MOL   H40818954   2.574   5.207   7.401 -1.3192 -2.7143 -0.9327
   34MOL   H40918955   2.375   5.171   7.399 -1.4291 -0.0829  0.5460
   34MOL   H41018956   2.677   5.304   7.619  0.9431 -0.2750 -2.3718
   34MOL   H41118957   2.398   5.390   0.055  2.4455  3.2556 -3.5046
   34MOL   H41218958   2.487   5.296   0.154 -1.3854  0.6494  0.9388
   34MOL   H41318959   2.668   5.443   0.182  0.6154 -1.2800 -2.0797
   34MOL   H41418960   2.545   5.569   0.329  0.0512  1.4607 -0.4368
   34MOL   H41518961   2.495   5.636   0.029 -0.1421  1.2246 -0.6172
   34MOL   H41618962   2.637   5.744   0.227  0.5060 -2.4173  0.8898
   34MOL   H41718963   2.779   5.700   0.138 -0.9548  0.5690  2.3395
   34MOL   H41818964   2.777   5.554   7.568  0.2917  2.1310 -2.2911
   34MOL   H41918965   2.665   5.667   7.501  1.3193 -0.4767 -1.0114
   34MOL   H42018966   2.649   5.451   7.386  0.0749 -0.1430 -0.2504
   34MOL   H42118967   2.499   5.487   7.460 -0.3191 -0.8408  0.1147
   34MOL   O42218968   2.659   5.844   0.039  0.3534  0.0324 -0.1023
   34MOL   C42318969   2.761   5.936   0.059 -0.4077  0.2023  0.1298
   34MOL   C42418970   2.750   6.052   7.585  0.6636  0.0847  0.0380
   34MOL   O42518971   2.763   5.995   7.456 -0.1095  0.7033 -0.2185
   34MOL   C42618972   2.619   6.142   7.593  0.1931 -0.3386  0.6475
   34MOL   C42718973   2.497   6.067   7.532  0.2118  0.0646  0.4986
   34MOL   C42818974   2.368   6.157   7.541  0.0645 -0.3742 -0.1925
   34MOL   O42918975   2.253   6.104   7.480 -0.0410  0.2427  0.1327
   34MOL   C43018976   2.392   6.309   7.493  0.4741 -0.5539  0.6118
   34MOL   C43118977   2.272   6.395   7.540 -0.2990 -0.1305 -0.0068
   34MOL   C43218978   2.524   6.369   7.554 -0.7169  0.0528 -0.0004
   34MOL   C43318979   2.636   6.275   7.516 -0.7982  0.3393 -0.1054
   34MOL   H43418980   2.859   5.889   0.055 -1.1538 -1.4006 -0.0113
   34MOL   H43518981   2.768   5.974   0.161 -1.3572  2.0425 -0.4779
   34MOL   H43618982   2.824   6.128   7.613  0.4501 -0.3784  1.9026
   34MOL   H43718983   2.691   5.935   7.448  1.1791 -1.2235  1.9561
   34MOL   H43818984   2.611   6.163   0.071  1.4998  1.9305  0.3488
   34MOL   H43918985   2.517   6.050   7.426 -2.2646  1.7134 -0.2879
   34MOL   H44018986   2.478   5.969   7.576  1.6111 -0.4233  0.0476
   34MOL   H44118987   2.321   6.174   0.008 -0.4353  0.0496 -0.5053
   34MOL   H44218988   2.281   6.077   7.394  1.0591 -0.8317  0.8037
   34MOL   H44318989   2.394   6.313   7.384 -1.1584 -0.5698  0.5629
   34MOL   H44418990   2.174   6.348   7.540 -0.5951  0.4834  0.1076
   34MOL   H44518991   2.277   6.407   0.019 -0.2300 -0.0867 -0.0152
   34MOL   H44618992   2.528   6.378   0.033 -0.1430  0.1567 -0.0324
   34MOL   H44718993   2.548   6.469   7.516 -1.7518 -0.9944 -3.6250
   34MOL   H44818994   2.732   6.327   7.522 -1.9429  2.5347 -0.2460
   34MOL   H44918995   2.636   6.239   7.413 -2.1996 -1.2492  0.4336
   34MOL   O45018996   2.257   6.526   7.479 -0.0407  0.0002 -0.5677
   34MOL   C45118997   2.211   6.527   7.347 -0.1497 -0.0641 -0.0228
   34MOL   C45218998   2.094   6.623   7.324 -0.6689  0.3143 -0.3238
   34MOL   O45318999   2.070   6.640   7.188 -0.2936 -0.3144  0.0603
   34MOL   C45419000   1.962   6.590   7.394  0.1075  0.8671 -0.6889
   34MOL   C45519001   1.894   6.468   7.342  0.1285  0.1075  0.0027
   34MOL   C45619002   1.770   6.438   7.423 -0.0704  0.5138  0.3524
   34MOL   O45719003   1.706   6.324   7.365  0.0630  0.0488  0.2200
   34MOL   C45819004   1.668   6.555   7.446  0.7482 -0.4104 -0.2462
   34MOL   C45919005   1.565   6.524   7.559 -0.6929  0.8522 -0.4678
   34MOL   C46019006   1.744   6.689   7.487 -0.4014 -0.1311  0.6998
   34MOL   C46119007   1.875   6.716   7.404  0.4890 -0.6184 -1.4548
   34MOL   H46219008   2.184   6.425   7.321  0.1511 -0.1644  0.0557
   34MOL   H46319009   2.290   6.564   7.281 -0.7722 -1.0271 -1.3123
   34MOL   H46419010   2.125   6.723   7.354  2.4869 -1.0534  1.1484
   34MOL   H46519011   2.083   6.556   7.148 -0.0325 -0.9998  1.5771
   34MOL   H46619012   1.984   6.562   7.498  1.2804  2.5147 -0.4706
   34MOL   H46719013   1.866   6.485   7.238 -0.3534 -1.1400 -0.0757
   34MOL   H46819014   1.961   6.383   7.339 -1.6612 -1.3773  0.9350
   34MOL   H46919015   1.804   6.398   7.519 -0.0754  0.5760  0.3808
   34MOL   H47019016   1.688   6.348   7.276  1.3142  0.0026 -0.0560
   34MOL   H47119017   1.621   6.561   7.348 -0.6081  2.2881  0.5149
   34MOL   H47219018   1.517   6.427   7.551  0.1696  0.2167  1.7395
   34MOL   H47319019   1.617   6.518   0.025 -1.1735  0.8399 -0.2103
   34MOL   H47419020   1.767   6.688   7.594 -0.4600  0.1072  0.7152
   34MOL   H47519021   1.670   6.768   7.477 -0.1514 -0.0088 -0.2060
   34MOL   H47619022   1.934   6.797   7.447 -0.6569 -0.4627 -0.1278
   34MOL   H47719023   1.840   6.740   7.303  2.8875 -0.4631 -2.2779
   34MOL   O47819024   1.458   6.617   7.542 -0.3188  0.0217 -0.4052
   34MOL   C47919025   1.362   6.578   7.443  0.2595  0.3522  0.4228
   34MOL   C48019026   1.271   6.698   7.409  0.0386 -0.2726  0.9683
   34MOL   O48119027   1.192   6.714   7.520  0.0888  0.3917  0.2368
   34MOL   C48219028   1.331   6.825   7.353  0.5764 -0.7700  0.1087
   34MOL   C48319029   1.370   6.932   7.460 -0.0575 -0.2873 -0.1158
   34MOL   C48419030   1.428   7.058   7.402 -0.1002 -0.0368  0.3996
   34MOL   O48519031   1.448   7.147   7.514  0.3580 -0.2460 -0.1134
   34MOL   C48619032   1.343   7.127   7.287 -0.1882 -0.1694  0.1508
   34MOL   C48719033   1.428   7.234   7.216  0.1440 -0.1702  0.2630
   34MOL   C48819034   1.301   7.020   7.184  0.0742  0.1111  0.4656
   34MOL   C48919035   1.226   6.903   7.255  0.0646 -0.0923 -0.5322
   34MOL   H49019036   1.291   6.506   7.485  0.3135  0.7882  1.2846
   34MOL   H49119037   1.401   6.547   7.346 -1.7850 -0.9320 -0.0158
   34MOL   H49219038   1.202   6.663   7.332  0.4541  1.4498 -0.2139
   34MOL   H49319039   1.217   6.658   7.592 -1.3075 -0.8126 -0.1757
   34MOL   H49419040   1.420   6.797   7.296 -0.2934  0.8253 -2.1067
   34MOL   H49519041   1.277   6.956   7.511 -0.1228  0.6304 -0.6398
   34MOL   H49619042   1.438   6.886   7.531 -1.3350  0.7272  1.8058
   34MOL   H49719043   1.526   7.025   7.368 -0.2679 -1.2192  1.0437
   34MOL   H49819044   1.503   7.102   7.576 -1.4884 -1.2534  0.8301
   34MOL   H49919045   1.261   7.173   7.342 -1.7493 -3.3140  0.6052
   34MOL   H50019046   1.468   7.294   7.297  0.5353  2.3133 -1.6974
   34MOL   H50119047   1.512   7.186   7.167  0.4603  1.6382 -1.0137
   34MOL   H50219048   1.388   6.992   7.124 -0.8847  1.5857 -1.7010
   34MOL   H50319049   1.236   7.069   7.112 -2.1096 -1.9014  1.0272
   34MOL   H50419050   1.184   6.842   7.174 -0.7254  0.9036 -0.8836
   34MOL   H50519051   1.137   6.934   7.310  0.3027 -1.8858  0.9020
   34MOL   O50619052   1.335   7.311   7.135 -0.4465  0.2127 -0.8725
   34MOL   C50719053   1.407   7.422   7.087 -0.6819  0.4926  1.0609
   34MOL   C50819054   1.347   7.465   6.955  0.5791  0.2277 -0.3990
   34MOL   O50919055   1.301   7.596   6.970 -0.0170  0.2891  0.2970
   34MOL   C51019056   1.441   7.462   6.832  0.4868 -0.0725 -0.2751
   34MOL   C51119057   1.360   7.466   6.700 -0.3788  0.2015 -0.0982
   34MOL   C51219058   1.446   7.464   6.571  0.9759  0.1570  0.8271
   34MOL   O51319059   1.352   7.454   6.468 -0.2290 -0.0843  0.6729
   34MOL   C51419060   1.550   7.351   6.567 -0.0146 -0.6412  0.3135
   34MOL   C51519061   1.641   7.331   6.445 -0.6337  0.9059 -0.6372
   34MOL   C51619062   1.633   7.352   6.696  0.8275  0.5703  0.0017
   34MOL   C51719063   1.540   7.352   6.820  0.7912  0.9392 -0.3043
   34MOL   H51819064   1.515   7.412   7.091 -0.1496  4.2814 -1.3059
   34MOL   H51919065   1.400   7.498   7.164 -0.2123  0.3575  1.2379
   34MOL   H52019066   1.257   7.410   6.929  0.6930  0.9040 -2.2765
   34MOL   H52119067   1.231   7.596   7.032 -0.5408 -1.8251 -0.2532
   34MOL   H52219068   1.501   7.553   6.840 -0.2916  0.7211 -2.8988
   34MOL   H52319069   1.298   7.376   6.696  0.1744 -0.2037  0.2992
   34MOL   H52419070   1.294   7.552   6.704 -0.6840 -0.0544  0.5474
   34MOL   H52519071   1.498   7.559   6.570  0.5690  0.3873 -1.3006
   34MOL   H52619072   1.313   7.540   6.464 -1.1709 -0.4683  1.6115
   34MOL   H52719073   1.500   7.254   6.575  0.6613 -0.9375  1.0691
   34MOL   H52819074   1.695   7.238   6.459 -2.0865  0.4308  2.3148
   34MOL   H52919075   1.576   7.325   6.358 -0.3932  1.0958 -0.8345
   34MOL   H53019076   1.693   7.442   6.687  1.1809  0.1418 -2.0182
   34MOL   H53119077   1.707   7.272   6.687  1.4736  1.1755 -0.0892
   34MOL   H53219078   1.617   7.354   6.897 -0.0583 -1.0607  0.6244
   34MOL   H53319079   1.483   7.262   6.841  1.2437  0.6932 -0.1328
   34MOL   O53419080   1.740   7.440   6.444 -0.4779 -0.4367  0.3426
   34MOL   C53519081   1.830   7.423   6.335  0.1118  0.2980 -0.4403
   34MOL   C53619082   1.963   7.494   6.342  0.7439  0.2753  0.4935
   34MOL   O53719083   2.031   7.430   6.456 -0.3947 -0.4723  0.1207
   34MOL   C53819084   2.036   7.479   6.211  0.5438 -0.5620 -0.9835
   34MOL   C53919085   2.184   7.519   6.224 -0.2681  0.8374 -0.0625
   34MOL   C54019086   2.267   7.491   6.095 -0.1588  0.2320  0.2051
   34MOL   O54119087   2.400   7.544   6.106 -0.2667 -0.7413 -0.4969
   34MOL   C54219088   2.196   7.547   5.973  0.0922  0.3919  0.2824
   34MOL   C54319089   2.252   7.495   5.840  0.1333  0.4722 -0.2069
   34MOL   C54419090   2.045   7.520   5.974 -0.8139  0.1169 -0.2992
   34MOL   C54519091   1.977   7.562   6.104  0.0651  0.1819 -0.3641
   34MOL   H54619092   1.784   7.434   6.237 -0.1802 -1.8464 -0.5676
   34MOL   H54719093   1.856   7.317   6.333  0.3721  0.3659 -0.8769
   34MOL   H54819094   1.950   7.601   6.358 -0.0404  0.3082 -0.3824
   34MOL   H54919095   2.007   7.494   6.522  0.5367  0.0753 -0.0621
   34MOL   H55019096   2.033   7.372   6.190  1.2618 -0.4494 -1.6836
   34MOL   H55119097   2.201   7.622   6.255  0.8542  0.8229 -0.6068
   34MOL   H55219098   2.235   7.457   6.297  0.3942  1.7956  0.3070
   34MOL   H55319099   2.295   7.387   6.082 -0.0473  0.2739  0.1049
   34MOL   H55419100   2.400   7.629   6.065  0.5927 -1.3151 -1.6929
   34MOL   H55519101   2.202   0.026   5.973  1.4232  0.3276 -0.8383
   34MOL   H55619102   2.190   7.526   5.755  0.2937  0.6459 -0.2628
   34MOL   H55719103   2.339   7.551   5.803 -1.3595  2.5072 -0.7370
   34MOL   H55819104   2.024   7.418   5.942  1.1356  0.5384 -3.1000
   34MOL   H55919105   2.004   7.582   5.894  1.3350  1.3033 -0.5147
   34MOL   H56019106   1.871   7.539   6.096 -0.3962  2.4878 -1.2143
   34MOL   H56119107   1.985   0.040   6.122  1.0334  0.2337 -1.0722
   34MOL   H56219108   2.271   7.388   5.834  0.3405  0.5912 -2.3179
   35MOL     O119109   3.886   4.512   0.900 -0.0675  0.0476 -0.1373
   35MOL     C219110   3.984   4.605   0.953  0.2512  0.2055 -0.0153
   35MOL     C319111   4.047   4.667   0.828  0.1104  0.7443  0.0358
   35MOL     O419112   3.942   4.746   0.770 -0.5575 -0.2994  0.0479
   35MOL     C519113   4.163   4.758   0.867 -0.7027 -0.4727  0.3006
   35MOL     C619114   4.141   4.867   0.975  0.8390 -0.0366  0.0201
   35MOL     C719115   4.267   4.956   0.991  0.4527  0.1638 -0.3231
   35MOL     O819116   4.237   5.057   1.089 -0.0024  0.3161 -0.1050
   35MOL     C919117   4.302   5.024   0.857  0.4997  0.7067  0.2800
   35MOL    C1019118   4.413   5.122   0.865 -0.0682  0.6993 -0.0939
   35MOL    C1119119   4.330   4.920   0.754 -0.7007  0.2788  0.4968
   35MOL    C1219120   4.214   4.831   0.737  0.6509  0.0933  0.3785
   35MOL    H1319121   4.065   4.557   1.007 -2.1022 -1.4546  2.1334
   35MOL    H1419122   3.927   4.677   1.012  0.1922 -1.5644  2.1344
   35MOL    H1519123   4.073   4.590   0.755  2.1363 -1.0010  2.4822
   35MOL    H1619124   3.858   4.710   0.792 -1.4345  1.7918  0.2729
   35MOL    H1719125   4.240   4.689   0.901 -0.0506  0.2081  0.2075
   35MOL    H1819126   4.054   4.925   0.944  1.9005  1.9227  0.5729
   35MOL    H1919127   4.119   4.819   1.070 -0.7425  0.1012 -0.2746
   35MOL    H2019128   4.343   4.884   1.024  2.8232  1.9358 -1.7527
   35MOL    H2119129   4.315   5.105   1.113 -1.1184  1.8116  0.5998
   35MOL    H2219130   4.208   5.074   0.833  0.4997 -0.5174 -2.3628
   35MOL    H2319131   4.508   5.072   0.880 -0.4725  0.5533  2.0737
   35MOL    H2419132   4.436   5.167   0.768  1.1001  0.3714  0.0244
   35MOL    H2519133   4.423   4.865   0.770  1.8449  3.8481 -1.3656
   35MOL    H2619134   4.343   4.961   0.654 -4.1884 -0.8832 -0.4909
   35MOL    H2719135   4.232   4.748   0.668  1.7214  1.2387 -0.7515
   35MOL    H2819136   4.137   4.889   0.685 -0.2027 -1.9467 -0.7335
   35MOL    H2919137   3.933   4.447   0.850 -1.8468  0.9236 -3.0518
   35MOL    O3019138   4.395   5.230   0.958 -0.6272 -0.0713 -0.1118
   35MOL    C3119139   4.514   5.312   0.965  0.3333  0.2408  0.2935
   35MOL    C3219140   4.481   5.458   1.012 -0.6588  0.6825 -0.0474
   35MOL    O3319141   4.400   5.526   0.919 -0.0442 -0.0854  0.0062
   35MOL    C3419142   4.420   5.477   1.154 -0.0934 -0.2696  0.2205
   35MOL    C3519143   4.282   5.415   1.175 -0.1757  0.3916  0.7245
   35MOL    C3619144   4.220   5.430   1.315 -1.3520 -0.5177 -0.3485
   35MOL    O3719145   4.084   5.410   1.309 -0.3501 -0.2917 -0.5034
   35MOL    C3819146   4.243   5.568   1.382  0.7314  0.2971 -0.5926
   35MOL    C3919147   4.213   5.555   1.533 -0.2017 -0.8044  0.4447
   35MOL    C4019148   4.384   5.624   1.359 -0.7344 -0.9382  0.1929
   35MOL    C4119149   4.418   5.618   1.212 -0.5350  0.4840  0.3286
   35MOL    H4219150   4.547   5.331   0.862 -2.3378 -0.3607 -0.6980
   35MOL    H4319151   4.589   5.261   1.026 -0.1000 -0.4847  0.2256
   35MOL    H4419152   4.581   5.500   1.023 -0.1367 -0.8916  1.4625
   35MOL    H4519153   4.326   5.471   0.898 -0.7639  0.8685  0.0095
   35MOL    H4619154   4.494   5.430   1.219  0.8235 -0.4777 -0.9552
   35MOL    H4719155   4.211   5.453   1.101  0.7649 -0.0414 -0.4270
   35MOL    H4819156   4.283   5.309   1.148  0.0176  0.7844 -0.8927
   35MOL    H4919157   4.259   5.354   1.384 -0.0094  2.0192  1.7811
   35MOL    H5019158   4.078   5.317   1.293  2.5904 -0.7630  0.8407
   35MOL    H5119159   4.168   5.633   1.336 -0.7378 -1.9228 -1.4053
   35MOL    H5219160   4.110   5.530   1.562 -0.4190  0.0396  0.4128
   35MOL    H5319161   4.281   5.477   1.565  0.2400 -0.2812  0.7795
   35MOL    H5419162   4.454   5.572   1.424 -3.3633 -1.2673  2.8900
   35MOL    H5519163   4.382   5.728   1.389 -1.6600 -0.8248 -0.2345
   35MOL    H5619164   4.516   5.666   1.211  1.1256 -2.7385 -2.2237
   35MOL    H5719165   4.348   5.678   1.154 -2.4150 -1.1494  0.8301
   35MOL    O5819166   4.245   5.680   1.590  0.8544  0.1323  0.6453
   35MOL    C5919167   4.348   5.678   1.687  0.2729 -0.1602  0.3663
   35MOL    C6019168   4.384   5.826   1.715  0.3117 -0.7865  0.0362
   35MOL    O6119169   4.417   5.880   1.592  0.2242  0.3756  0.3762
   35MOL    C6219170   4.283   5.917   1.783  0.4487 -0.1676 -0.4302
   35MOL    C6319171   4.351   6.056   1.798 -0.0970  0.5736 -0.0125
   35MOL    C6419172   4.269   6.156   1.865  0.2130  0.4847 -0.2932
   35MOL    O6519173   4.339   6.283   1.850 -0.1679  0.3182  0.4583
   35MOL    C6619174   4.252   6.119   2.011 -0.3488 -0.0838 -0.3705
   35MOL    C6719175   4.171   6.212   2.098 -0.1079  0.0003  0.7360
   35MOL    C6819176   4.174   5.985   2.010  0.1320 -0.7842  0.8041
   35MOL    C6919177   4.253   5.874   1.928  0.4461 -0.2862 -0.2385
   35MOL    H7019178   4.438   5.623   1.661  0.8189  0.4799  0.8656
   35MOL    H7119179   4.314   5.639   1.783 -1.2235 -0.3260 -0.2138
   35MOL    H7219180   4.483   5.817   1.760  0.8366  2.9124 -0.2740
   35MOL    H7319181   4.352   5.853   1.529  0.4830  2.7453 -0.9765
   35MOL    H7419182   4.191   5.933   1.725 -0.4372  1.8709  1.4639
   35MOL    H7519183   4.447   6.048   1.850 -0.4510  0.0646  0.5719
   35MOL    H7619184   4.381   6.097   1.701  1.8859 -1.8059 -0.4684
   35MOL    H7719185   4.168   6.159   1.824  0.6082 -3.0765 -1.6282
   35MOL    H7819186   4.277   6.341   1.891 -0.1960 -0.1747  1.1414
   35MOL    H7919187   4.350   6.098   2.054  0.5704 -1.9865 -3.2883
   35MOL    H8019188   4.076   6.234   2.050  0.3685  0.5137 -0.0048
   35MOL    H8119189   4.157   6.158   2.191  2.7233 -0.8907  0.6822
   35MOL    H8219190   4.070   5.990   1.979 -0.0615  2.2249  1.7416
   35MOL    H8319191   4.165   5.951   2.114 -0.0102 -2.8033  0.1580
   35MOL    H8419192   4.196   5.781   1.932  1.8925 -1.1242  1.2001
   35MOL    H8519193   4.344   5.844   1.979 -0.4550 -1.1730  0.8839
   35MOL    O8619194   4.245   6.330   2.108 -0.2313  0.4987  0.2205
   35MOL    C8719195   4.325   6.336   2.225 -0.5819  0.9295  0.4699
   35MOL    C8819196   4.402   6.469   2.216  0.1493  0.0297 -0.8395
   35MOL    O8919197   4.316   6.580   2.244  0.3043  0.8677 -0.3615
   35MOL    C9019198   4.518   6.476   2.321 -0.2314 -0.6708 -0.3705
   35MOL    C9119199   4.472   6.469   2.470 -0.6484  0.1410  0.2071
   35MOL    C9219200   4.599   6.479   2.557 -0.6254 -0.0557 -0.0214
   35MOL    O9319201   4.560   6.474   2.693 -0.1105 -0.3072 -0.3269
   35MOL    C9419202   4.672   6.610   2.534 -0.9061  0.1007 -0.0501
   35MOL    C9519203   4.786   6.629   2.635  0.0913  1.1260  0.6656
   35MOL    C9619204   4.729   6.608   2.394 -0.0768  0.0963  0.2057
   35MOL    C9719205   4.619   6.600   2.282  0.4227  0.7239  0.3547
   35MOL    H9819206   4.395   6.253   2.215 -1.8359  0.0316 -1.1404
   35MOL    H9919207   4.266   6.323   2.316 -2.7261  1.1329 -0.8455
   35MOL   H10019208   4.439   6.482   2.114  2.5475 -1.5864 -0.2309
   35MOL   H10119209   4.245   6.574   2.181 -0.9464  0.6463  1.0545
   35MOL   H10219210   4.572   6.387   2.289  0.8463  0.5543 -2.0882
   35MOL   H10319211   4.401   6.546   2.502  0.8376  2.0804 -1.0279
   35MOL   H10419212   4.415   6.378   2.488  0.2563 -0.5964 -0.6318
   35MOL   H10519213   4.668   6.396   2.536 -0.1845 -0.3428  2.3759
   35MOL   H10619214   4.495   6.542   2.704 -0.6426 -0.7339 -0.8188
   35MOL   H10719215   4.590   6.681   2.541 -2.7897 -1.8939 -1.5825
   35MOL   H10819216   4.740   6.657   2.730  0.3113  0.2243  1.0470
   35MOL   H10919217   4.850   6.541   2.629 -3.4952 -1.5129 -0.1648
   35MOL   H11019218   4.794   6.521   2.385  0.2676  0.1274  2.2813
   35MOL   H11119219   4.797   6.691   2.377 -1.4192  1.2255  0.3148
   35MOL   H11219220   4.672   6.584   2.188 -2.4246  0.7756 -1.3016
   35MOL   H11319221   4.569   6.696   2.279 -0.4426  0.2448 -0.6185
   35MOL   O11419222   4.878   6.737   2.607  0.0897  0.6199 -0.3429
   35MOL   C11519223   4.819   6.865   2.627  0.0549 -0.7447  0.4021
   35MOL   C11619224   4.914   6.963   2.546 -0.1253 -0.0999 -0.6483
   35MOL   O11719225   4.836   7.082   2.525  0.6148 -0.1529 -0.2995
   35MOL   C11819226   5.044   6.989   2.616  0.3480  0.0948 -0.3469
   35MOL   C11919227   5.046   7.076   2.744 -0.2792 -0.2123 -0.2385
   35MOL   C12019228   5.174   7.083   2.824 -0.0111 -0.2603 -0.0722
   35MOL   O12119229   5.160   7.171   2.935  0.2220 -0.1319  0.0255
   35MOL   C12219230   5.293   7.126   2.733  0.3651 -0.7003  0.4088
   35MOL   C12319231   5.432   7.133   2.808  0.2720 -0.1584  0.0881
   35MOL   C12419232   5.298   7.033   2.603  0.3991 -0.6361 -0.4854
   35MOL   C12519233   5.161   7.046   2.537 -0.0799 -0.4862  0.1190
   35MOL   H12619234   4.808   6.906   2.727  0.0144  0.5263 -0.1165
   35MOL   H12719235   4.718   6.857   2.587  0.3811 -0.9622 -0.3867
   35MOL   H12819236   4.924   6.904   2.455  2.0565  0.3334 -0.7135
   35MOL   H12919237   4.882   7.157   2.560  0.5206 -0.0573 -0.3830
   35MOL   H13019238   5.067   6.889   2.653  0.8843  0.3547  0.0237
   35MOL   H13119239   5.026   7.177   2.708  1.9811 -0.3393 -1.9555
   35MOL   H13219240   4.967   7.046   2.813 -1.6100  2.6792 -0.4529
   35MOL   H13319241   5.198   6.983   2.860  0.9564 -1.2496 -3.2824
   35MOL   H13419242   5.234   7.151   2.990  0.1935 -0.0917  0.0788
   35MOL   H13519243   5.272   7.227   2.696 -0.4423 -1.1607 -0.4253
   35MOL   H13619244   5.437   7.062   2.890 -1.2196 -0.5029 -0.1079
   35MOL   H13719245   5.516   7.104   2.744  1.0859  1.1769  0.5125
   35MOL   H13819246   5.317   6.933   2.642 -2.1781 -0.6159  0.9437
   35MOL   H13919247   5.383   7.063   2.542  0.3958  0.5144  0.0749
   35MOL   H14019248   5.175   6.999   2.439 -1.0102 -0.0413 -0.2355
   35MOL   H14119249   5.140   7.150   2.512 -0.3502 -0.3818  0.7891
   35MOL   O14219250   5.454   7.258   2.881 -0.5580 -0.1056  0.0405
   35MOL   C14319251   5.587   7.260   2.932 -0.0850  0.5906  0.3251
   35MOL   C14419252   5.616   7.409   2.983  0.3744  0.4486  0.0758
   35MOL   O14519253   5.569   7.408   3.111 -0.4611  0.4988  0.0402
   35MOL   C14619254   5.765   7.449   2.978 -0.0776  0.0476  0.0835
   35MOL   C14719255   5.856   7.360   3.059 -0.7963  0.1909  0.4773
   35MOL   C14819256   6.004   7.395   3.067 -0.6766  0.0175  0.4044
   35MOL   O14919257   6.068   7.298   3.151  0.4859  0.2979 -0.1367
   35MOL   C15019258   6.021   7.544   3.109 -0.5247  0.2354  0.1869
   35MOL   C15119259   6.163   7.598   3.107  0.2994 -0.5551 -0.4425
   35MOL   C15219260   5.943   0.003   3.013 -0.1155  1.0573  0.2554
   35MOL   C15319261   5.790   7.596   3.013 -0.1108 -0.2843 -0.4817
   35MOL   H15419262   5.666   7.245   2.859 -0.6500  0.2849 -0.2237
   35MOL   H15519263   5.600   7.189   3.014 -1.6591 -1.2289 -0.9773
   35MOL   H15619264   5.554   7.477   2.924 -1.0791 -0.5892  0.3945
   35MOL   H15719265   5.481   7.375   3.101  0.5353 -2.0091 -0.6364
   35MOL   H15819266   5.798   7.433   2.875 -1.6911 -0.5677 -0.3534
   35MOL   H15919267   5.822   7.364   3.163 -0.1126  0.7516  0.6809
   35MOL   H16019268   5.841   7.254   3.040 -0.8307  0.1343  0.8141
   35MOL   H16119269   6.062   7.390   2.975 -1.8442  1.5428 -0.4442
   35MOL   H16219270   6.082   7.221   3.098  0.9501 -0.3480  0.9103
   35MOL   H16319271   5.965   7.555   3.201 -1.4191  0.4177 -0.3743
   35MOL   H16419272   6.221   7.540   3.179  2.3261 -0.7291 -2.1338
   35MOL   H16519273   6.212   7.566   3.015 -2.4406 -3.9895 -0.8322
   35MOL   H16619274   5.984   7.604   2.916 -3.2767 -0.9052 -0.5930
   35MOL   H16719275   5.961   0.107   3.039 -0.5753  1.3858 -0.7267
   35MOL   H16819276   5.759   0.035   2.934 -0.4680 -0.2690 -0.3292
   35MOL   H16919277   5.749   7.619   3.112  0.2734 -0.9699 -0.1550
   35MOL   O17019278   6.183   0.107   3.134  0.4469 -0.3692  0.1090
   35MOL   C17119279   6.131   0.163   3.253 -0.4686  0.0678  0.4332
   35MOL   C17219280   6.226   0.276   3.307  0.1703  0.8175  0.5760
   35MOL   O17319281   6.163   0.347   3.414  0.2031  0.3063  0.4533
   35MOL   C17419282   6.367   0.230   3.340  0.6885 -0.0801 -1.0010
   35MOL   C17519283   6.380   0.122   3.446 -0.6321  0.5927  0.0918
   35MOL   C17619284   6.529   0.078   3.455 -0.6407  0.6416 -0.6055
   35MOL   O17719285   6.540   7.613   3.553 -0.0370 -0.0474  0.5323
   35MOL   C17819286   6.626   0.192   3.491 -0.1844  0.6156 -0.2718
   35MOL   C17919287   6.774   0.154   3.504  0.3713  1.0787  0.7246
   35MOL   C18019288   6.605   0.303   3.386 -0.4715 -0.6310  0.8895
   35MOL   C18119289   6.460   0.350   3.360  0.3177 -0.1519 -0.4698
   35MOL   H18219290   6.122   0.086   3.330  2.1497  0.5531  1.2478
   35MOL   H18319291   6.031   0.202   3.233 -0.1402  0.2512 -0.9040
   35MOL   H18419292   6.224   0.344   3.221  0.6126 -0.1134 -0.1800
   35MOL   H18519293   6.149   0.282   3.482 -0.0705 -2.8657 -2.4913
   35MOL   H18619294   6.404   0.187   3.247  0.8087 -0.3890 -0.8125
   35MOL   H18719295   6.356   0.176   3.537  0.2660  0.2758  0.5169
   35MOL   H18819296   6.318   0.034   3.426 -0.4188  0.3905  0.3338
   35MOL   H18919297   6.565   0.029   3.364  1.5129  0.0796  0.5078
   35MOL   H19019298   6.594   7.545   3.514  0.5468  0.3684  0.6170
   35MOL   H19119299   6.580   0.225   3.584 -4.5933 -1.5179 -1.5386
   35MOL   H19219300   6.794   0.071   3.571 -1.7187 -1.2141 -1.3570
   35MOL   H19319301   6.801   0.128   3.402 -2.0022  0.5399  0.2049
   35MOL   H19419302   6.656   0.281   3.292  0.8898 -1.0808  1.7159
   35MOL   H19519303   6.659   0.390   3.424  0.1752 -0.4429 -0.4140
   35MOL   H19619304   6.461   0.414   3.272 -0.6535  0.3715 -0.1120
   35MOL   H19719305   6.432   0.414   3.444 -0.8911  0.6773 -1.4887
   35MOL   O19819306   6.846   0.270   3.545 -0.6025 -0.4163  0.4211
   35MOL   C19919307   6.988   0.246   3.558  0.8181 -0.1042  0.1007
   35MOL   C20019308   7.069   0.370   3.598  0.1053 -0.4542 -0.6780
   35MOL   O20119309   7.065   0.452   3.486 -0.5967  0.3382  0.2364
   35MOL   C20219310   7.018   0.449   3.720 -0.1041 -0.2555  0.0375
   35MOL   C20319311   7.133   0.539   3.777 -0.6956  0.0393 -0.2652
   35MOL   C20419312   7.084   0.634   3.895  0.1212  0.0260 -0.0618
   35MOL   O20519313   7.184   0.714   3.949  0.0412  0.0402 -0.3106
   35MOL   C20619314   7.032   0.546   4.009 -0.9485 -0.2784 -0.2324
   35MOL   C20719315   6.974   0.621   4.126  0.3671 -0.3362  0.0509
   35MOL   C20819316   6.920   0.453   3.951 -0.2347 -0.1745 -0.5024
   35MOL   C20919317   6.960   0.361   3.832 -0.4002  0.2101  0.0252
   35MOL   H21019318   7.028   0.197   3.469 -1.9040 -0.3056 -1.0655
   35MOL   H21119319   6.998   0.178   3.642  0.9294  1.7064  1.5776
   35MOL   H21219320   7.166   0.330   3.626 -0.7701 -1.2482  1.2855
   35MOL   H21319321   7.068   0.401   3.407 -3.1049 -4.0738  2.7320
   35MOL   H21419322   6.937   0.513   3.685 -0.0134 -0.6392 -0.8613
   35MOL   H21519323   7.200   0.461   3.814  0.2517  0.4218 -1.1353
   35MOL   H21619324   7.187   0.592   3.699 -0.5338 -1.2586 -1.0394
   35MOL   H21719325   7.013   0.710   3.862 -0.0703 -0.6335 -1.1835
   35MOL   H21819326   7.149   0.775   4.013  1.2468 -0.4667  0.8702
   35MOL   H21919327   7.118   0.488   4.043  0.7553  1.3134 -1.7259
   35MOL   H22019328   6.886   0.675   4.090  0.9254 -0.1470 -1.0616
   35MOL   H22119329   6.932   0.540   4.185  0.0839 -0.7235 -0.6722
   35MOL   H22219330   6.829   0.503   3.916 -0.4746 -1.1117 -1.2650
   35MOL   H22319331   6.900   0.384   4.032 -2.4387  0.1985 -0.6731
   35MOL   H22419332   6.876   0.305   3.793 -1.9092  3.4965 -1.6968
   35MOL   H22519333   7.032   0.290   3.872  0.4910  1.3387  0.4562
   35MOL   O22619334   7.063   0.704   4.193  0.3656  0.6274  0.0058
   35MOL   C22719335   7.001   0.779   4.302  0.0417  0.8099 -0.4761
   35MOL   C22819336   7.113   0.841   4.396 -0.1338 -0.9587 -0.3005
   35MOL   O22919337   7.163   0.946   4.324 -0.4302  0.3448 -0.2251
   35MOL   C23019338   7.053   0.893   4.538 -0.2355 -0.1766  0.2118
   35MOL   C23119339   6.930   0.987   4.516  0.1583  1.0691  0.3211
   35MOL   C23219340   6.872   1.023   4.656 -1.4298 -0.4853 -0.2144
   35MOL   O23319341   6.784   1.122   4.629  0.2351 -0.0860  0.0264
   35MOL   C23419342   6.972   1.086   4.751  0.0129  0.8153 -0.4751
   35MOL   C23519343   6.919   1.122   4.895 -0.1558  0.4914  0.1890
   35MOL   C23619344   7.103   0.998   4.759 -0.4625 -0.6898  0.4059
   35MOL   C23719345   7.160   0.965   4.621  0.3017  0.1536  0.1675
   35MOL   H23819346   6.937   0.722   4.370 -0.6125  1.1485 -0.7996
   35MOL   H23919347   6.933   0.853   4.260 -0.1280  0.0225 -1.6013
   35MOL   H24019348   7.183   0.761   4.419 -1.6441 -3.5026 -4.1330
   35MOL   H24119349   7.096   1.002   4.287  1.8416  0.6851 -3.9639
   35MOL   H24219350   7.024   0.806   4.597 -1.9829  1.7880  2.3565
   35MOL   H24319351   6.961   1.076   4.462 -0.0713  1.2431  0.4710
   35MOL   H24419352   6.850   0.942   4.457 -1.7516  2.1307  2.0189
   35MOL   H24519353   6.834   0.928   4.695 -0.9438 -0.7280 -0.3278
   35MOL   H24619354   6.704   1.096   4.673  0.2479  0.6230  0.4832
   35MOL   H24719355   7.001   1.181   4.706  3.5896  0.1867  0.3565
   35MOL   H24819356   6.992   1.188   4.943  2.0914 -0.2152 -2.1303
   35MOL   H24919357   6.829   1.182   4.884  0.9012  1.9105 -1.0441
   35MOL   H25019358   7.089   0.900   4.805  1.2311 -0.1188  2.2036
   35MOL   H25119359   7.173   1.051   4.823 -0.3597  0.2051 -0.4418
   35MOL   H25219360   7.241   0.895   4.640 -1.0988 -1.6579 -0.3857
   35MOL   H25319361   7.192   1.054   4.568 -0.8569  2.2088  2.7772
   35MOL   O25419362   6.883   1.011   4.979  0.1351  0.2237 -0.2466
   35MOL   C25519363   6.984   0.978   5.083 -0.2889 -0.0502  0.2703
   35MOL   C25619364   6.940   0.848   5.151  0.4789 -0.9070  0.2181
   35MOL   O25719365   6.808   0.869   5.184 -0.5334  0.2758 -0.4340
   35MOL   C25819366   6.970   0.713   5.071  0.0965 -0.2134  0.0135
   35MOL   C25919367   7.119   0.678   5.046  0.3918  0.1335  0.2469
   35MOL   C26019368   7.130   0.544   4.976 -0.6250 -0.2627 -0.3256
   35MOL   O26119369   7.268   0.531   4.959 -0.5262  0.6025 -0.8939
   35MOL   C26219370   7.062   0.550   4.835 -0.0736 -0.1746  0.2217
   35MOL   C26319371   7.081   0.414   4.756 -0.8383  0.3718 -0.3125
   35MOL   C26419372   6.907   0.585   4.857  0.0388  0.0927 -0.2024
   35MOL   C26519373   6.893   0.713   4.938  0.3681 -0.5531 -0.2348
   35MOL   H26619374   6.992   1.064   5.150  2.8432  0.0128 -0.1183
   35MOL   H26719375   7.084   0.958   5.045 -0.3720 -0.6405  0.3508
   35MOL   H26819376   6.988   0.841   5.249  1.5135  0.5537 -0.1759
   35MOL   H26919377   6.778   0.936   5.124 -0.1087  0.5077 -0.3845
   35MOL   H27019378   6.913   0.642   5.130 -0.7017 -0.5541 -1.1471
   35MOL   H27119379   7.165   0.755   4.984 -0.2055  0.6371  0.4171
   35MOL   H27219380   7.172   0.675   5.141  0.2843 -0.3392  0.2967
   35MOL   H27319381   7.088   0.458   5.027  0.7990 -2.2573 -2.4200
   35MOL   H27419382   7.282   0.438   4.965 -2.7812  0.3978  2.4928
   35MOL   H27519383   7.113   0.631   4.784  1.8260 -1.5100 -0.0375
   35MOL   H27619384   7.185   0.382   4.761 -1.0346  0.0134  1.7480
   35MOL   H27719385   7.027   0.326   4.791 -0.5997 -0.1417 -1.1987
   35MOL   H27819386   6.848   0.506   4.903  0.3809 -0.9482 -1.5319
   35MOL   H27919387   6.863   0.595   4.758 -0.8560  1.2148  0.2938
   35MOL   H28019388   6.791   0.748   4.955 -0.2362 -2.7293  0.7414
   35MOL   H28119389   6.932   0.790   4.872 -0.0761 -0.6707 -0.6334
   35MOL   O28219390   7.064   0.446   4.617 -0.2272 -0.5232  0.2323
   35MOL   C28319391   7.074   0.328   4.548  0.1688  0.4592  0.1892
   35MOL   C28419392   7.025   0.338   4.402 -0.4582 -0.3954  0.1961
   35MOL   O28519393   7.088   0.241   4.321  0.0187 -0.2039 -0.3169
   35MOL   C28619394   6.877   0.326   4.382  0.2535 -0.0239 -0.2511
   35MOL   C28719395   6.795   0.438   4.445  0.2355  0.6142 -0.4287
   35MOL   C28819396   6.640   0.424   4.416 -0.8650  0.0219  0.7439
   35MOL   O28919397   6.568   0.528   4.475 -0.0516  0.6480 -0.2373
   35MOL   C29019398   6.581   0.286   4.434 -0.1414  0.3512 -0.0754
   35MOL   C29119399   6.440   0.275   4.358 -0.2149  0.1282 -0.3334
   35MOL   C29219400   6.681   0.178   4.379  0.6144  0.3913 -0.1493
   35MOL   C29319401   6.820   0.194   4.428 -0.0117 -0.3528  0.8000
   35MOL   H29419402   7.033   0.235   4.588 -0.4675  0.5301 -0.2915
   35MOL   H29519403   7.179   0.303   4.530 -0.2480 -0.7515 -0.6384
   35MOL   H29619404   7.050   0.435   4.360  0.0172  0.3282  2.1225
   35MOL   H29719405   7.178   0.230   4.349 -0.2711  0.1536  0.7465
   35MOL   H29819406   6.862   0.330   4.274  0.6707 -0.2598 -0.3187
   35MOL   H29919407   6.811   0.449   4.552  0.8144  0.7122 -0.5198
   35MOL   H30019408   6.828   0.534   4.405  1.4624 -0.3908 -1.8900
   35MOL   H30119409   6.622   0.441   4.310  2.6682  0.3818  0.1692
   35MOL   H30219410   6.486   0.540   4.431  0.4706 -1.7013 -1.9398
   35MOL   H30319411   6.554   0.265   4.538  0.0890 -0.2827 -0.1370
   35MOL   H30419412   6.377   0.363   4.373  0.1345  0.0584  1.8269
   35MOL   H30519413   6.458   0.279   4.251  1.2142 -0.1398 -0.1205
   35MOL   H30619414   6.679   0.173   4.270 -0.9371 -1.3441 -0.0773
   35MOL   H30719415   6.640   0.085   4.418 -0.1036  0.4472 -0.7546
   35MOL   H30819416   6.880   0.117   4.379  1.3200  1.5408 -0.6127
   35MOL   H30919417   6.833   0.163   4.531  0.1703 -3.2674 -0.0497
   35MOL   O31019418   6.375   0.152   4.396  0.5197 -0.2381 -0.3993
   35MOL   C31119419   6.300   0.166   4.517  0.0047  0.2815  0.2744
   35MOL   C31219420   6.238   0.027   4.548  0.7278 -0.4007 -0.1648
   35MOL   O31319421   6.342   7.564   4.526  0.4075  0.2021  0.0932
   35MOL   C31419422   6.169   0.025   4.690 -0.2734  0.4178  0.0515
   35MOL   C31519423   6.120   7.513   4.729 -0.1482 -0.5677  0.3603
   35MOL   C31619424   6.064   7.519   4.873 -0.1099 -0.5900 -0.5651
   35MOL   O31719425   5.996   7.398   4.891  0.2502 -0.2282  0.0325
   35MOL   C31819426   5.966   0.001   4.902  0.2541 -0.2121  0.2237
   35MOL   C31919427   5.928   0.011   5.056  0.6008  0.2989  0.5237
   35MOL   C32019428   6.011   0.135   4.847  0.2225  0.1068  0.8412
   35MOL   C32119429   6.057   0.131   4.702  0.0955 -0.2359  0.6340
   35MOL   H32219430   6.219   0.239   4.507  0.7910  1.2417  0.7764
   35MOL   H32319431   6.352   0.201   4.606 -1.8072 -1.2624  1.9842
   35MOL   H32419432   6.171   0.011   4.464 -0.3402  2.3009  0.1090
   35MOL   H32519433   6.393   7.590   4.451  0.8664 -0.5084  0.1611
   35MOL   H32619434   6.250   0.052   4.757  0.8359 -2.3180 -0.1379
   35MOL   H32719435   6.045   7.479   4.657  0.6475  0.1454 -0.8323
   35MOL   H32819436   6.203   7.443   4.715  0.0406 -0.0451 -1.3059
   35MOL   H32919437   6.156   7.522   4.930 -1.1855  0.3251  1.1616
   35MOL   H33019438   5.919   7.414   4.943  0.7228 -0.0645  0.6843
   35MOL   H33119439   5.878   7.616   4.839  0.0714  0.9700  0.2017
   35MOL   H33219440   6.013   7.619   5.121  1.2820 -0.7000 -0.6602
   35MOL   H33319441   5.893   0.110   5.082  1.3140  0.4092  1.0839
   35MOL   H33419442   6.094   0.182   4.900  1.6158 -1.2150 -0.1222
   35MOL   H33519443   5.931   0.208   4.860  0.1701  0.0650  0.7561
   35MOL   H33619444   6.095   0.228   4.668  1.9151 -1.6236 -1.3917
   35MOL   H33719445   5.976   0.101   4.635  1.3154  1.0130 -1.4664
   35MOL   O33819446   5.824   7.547   5.064 -0.4236  0.0722 -0.0318
   35MOL   C33919447   5.806   7.472   5.183  0.3591  0.7009 -0.0869
   35MOL   C34019448   5.757   7.568   5.294 -0.3548 -0.1481 -0.0300
   35MOL   O34119449   5.642   0.007   5.243  0.6542  0.5207  0.5937
   35MOL   C34219450   5.740   7.511   5.437  0.3954 -0.4161 -0.2184
   35MOL   C34319451   5.689   7.612   5.543 -0.4554  0.3547  0.1670
   35MOL   C34419452   5.673   7.559   5.684 -0.1815  0.0045 -0.5494
   35MOL   O34519453   5.652   0.030   5.787 -0.3288  0.2241  0.3843
   35MOL   C34619454   5.791   7.462   5.725 -0.3833 -0.1586  0.4138
   35MOL   C34719455   5.776   7.396   5.860 -0.1972  0.3828 -0.3601
   35MOL   C34819456   5.852   7.359   5.624 -0.5061  0.0572  0.8023
   35MOL   C34919457   5.876   7.439   5.490 -0.3499  0.7005  0.4544
   35MOL   H35019458   5.895   7.417   5.214  0.0411 -0.9337 -1.9811
   35MOL   H35119459   5.735   7.396   5.152  1.9037 -0.7686 -0.0822
   35MOL   H35219460   5.841   0.006   5.306 -2.0518  2.0506 -0.1402
   35MOL   H35319461   5.663   0.023   5.153 -1.7267 -1.4413 -0.3712
   35MOL   H35419462   5.659   7.438   5.434  0.9049 -0.9209 -3.3244
   35MOL   H35519463   5.777   0.047   5.538 -0.3360  0.2444  0.8368
   35MOL   H35619464   5.596   0.032   5.515 -1.6011 -1.7267  0.2079
   35MOL   H35719465   5.585   7.495   5.689 -0.0598 -0.1317 -0.1603
   35MOL   H35819466   5.733   0.077   5.797 -0.0756 -0.1951  0.3330
   35MOL   H35919467   5.870   7.535   5.740  0.3819 -0.7057 -0.9023
   35MOL   H36019468   5.864   7.340   5.891 -1.8883 -0.3811  3.3236
   35MOL   H36119469   5.763   7.474   5.935 -0.1252 -1.3918  1.5494
   35MOL   H36219470   5.794   7.267   5.612  0.3302 -0.7600  2.7428
   35MOL   H36319471   5.944   7.321   5.669  0.8882  1.0179 -1.2192
   35MOL   H36419472   5.928   7.374   5.419 -3.3238 -0.8112 -0.4388
   35MOL   H36519473   5.941   7.526   5.498  2.5528 -1.2237 -1.5525
   35MOL   O36619474   5.663   7.309   5.860 -0.0041  0.1804 -0.4443
   35MOL   C36719475   5.624   7.257   5.988 -0.7590 -0.3863  0.2764
   35MOL   C36819476   5.500   7.172   5.952 -0.6113  0.5192 -0.2664
   35MOL   O36919477   5.517   7.120   5.822 -0.1829  0.5598 -0.2807
   35MOL   C37019478   5.473   7.056   6.050 -0.7862 -0.1489 -0.1354
   35MOL   C37119479   5.363   6.961   5.999  0.0795 -0.5885  0.1193
   35MOL   C37219480   5.348   6.838   6.092 -0.7027  0.1815 -0.0125
   35MOL   O37319481   5.254   6.755   6.037  0.5477 -0.3995  0.0354
   35MOL   C37419482   5.324   6.875   6.235 -0.0156  0.8655 -0.3761
   35MOL   C37519483   5.327   6.746   6.323 -0.2136 -0.1039  0.2781
   35MOL   C37619484   5.420   6.978   6.289  0.7209 -0.1139  0.0433
   35MOL   C37719485   5.434   7.099   6.193  0.7043  0.5545 -0.7108
   35MOL   H37819486   5.595   7.336   6.057 -1.5840  0.8515 -1.4644
   35MOL   H37919487   5.718   7.209   6.017 -0.7116 -0.3639  0.1643
   35MOL   H38019488   5.414   7.239   5.948 -3.1575 -2.4294  2.1667
   35MOL   H38119489   5.590   7.166   5.783  0.0536  1.2293  0.9210
   35MOL   H38219490   5.566   6.998   6.055 -0.8530 -0.1676  0.8798
   35MOL   H38319491   5.269   7.015   5.997  0.2279 -0.3451 -2.0105
   35MOL   H38419492   5.382   6.924   5.898 -0.9917  0.3396 -0.4370
   35MOL   H38519493   5.437   6.776   6.086 -2.4132 -2.2792 -0.3912
   35MOL   H38619494   5.293   6.669   6.042 -0.3452 -0.8240 -0.2097
   35MOL   H38719495   5.227   6.923   6.245 -0.2912  0.2450 -0.0457
   35MOL   H38819496   5.307   6.770   6.427 -2.2408  1.5956 -0.4625
   35MOL   H38919497   5.249   6.675   6.292 -0.2211 -0.6971  1.5863
   35MOL   H39019498   5.519   6.932   6.294  1.1048  0.5366 -1.1610
   35MOL   H39119499   5.393   7.000   6.392  1.8785 -1.4356  0.6439
   35MOL   H39219500   5.492   7.185   6.225 -2.2356  1.9431  0.9968
   35MOL   H39319501   5.333   7.138   6.183 -0.1462 -1.2589  0.5577
   35MOL   O39419502   5.462   6.693   6.321  0.4614  0.0220  0.5023
   35MOL   C39519503   5.475   6.574   6.396  0.0419 -0.1562  0.5318
   35MOL   C39619504   5.633   6.558   6.420 -0.0662  1.0194  0.2955
   35MOL   O39719505   5.688   6.508   6.295  0.3884 -0.1204  0.2003
   35MOL   C39819506   5.707   6.685   6.466 -0.7839 -0.4420 -0.3421
   35MOL   C39919507   5.857   6.666   6.486 -0.4995 -0.6074  0.5666
   35MOL   C40019508   5.921   6.784   6.560  1.1365  0.6895  0.3496
   35MOL   O40119509   6.056   6.752   6.567 -0.3657 -0.6367 -0.3333
   35MOL   C40219510   5.856   6.815   6.698  0.2572  0.4353 -0.7554
   35MOL   C40319511   5.923   6.932   6.767 -0.3737  0.0112  0.2656
   35MOL   C40419512   5.708   6.854   6.672 -0.2621 -0.3353  0.7395
   35MOL   C40519513   5.638   6.745   6.597  0.2475  0.1574  0.5579
   35MOL   H40619514   5.447   6.485   6.339  1.7478  0.0219 -0.6428
   35MOL   H40719515   5.417   6.577   6.488 -2.5373 -0.0539 -1.0761
   35MOL   H40819516   5.645   6.477   6.492 -1.9642  1.6728  1.3654
   35MOL   H40919517   5.647   6.561   6.229  1.1162  2.1679  1.5060
   35MOL   H41019518   5.692   6.762   6.390  1.4225  0.2546 -0.1153
   35MOL   H41119519   5.857   6.578   6.551  0.1461 -2.0973 -1.3710
   35MOL   H41219520   5.905   6.639   6.392 -1.1509 -0.9998  0.3430
   35MOL   H41319521   5.929   6.878   6.505  2.1878  0.4375  0.0562
   35MOL   H41419522   6.095   6.746   6.481 -1.0334  1.7629 -0.8433
   35MOL   H41519523   5.865   6.732   6.769 -3.6274  1.6894  1.3094
   35MOL   H41619524   5.946   7.021   6.709 -1.2688 -0.7182 -1.2531
   35MOL   H41719525   5.858   6.969   6.847 -1.9830  0.6086 -1.2818
   35MOL   H41819526   5.699   6.949   6.620 -0.5945 -0.5374  0.4226
   35MOL   H41919527   5.654   6.871   6.766  0.0321 -0.1555  0.8765
   35MOL   H42019528   5.536   6.776   6.575  0.7926  0.6196 -1.4758
   35MOL   H42119529   5.626   6.662   6.666 -1.0539 -1.0905 -1.1235
   35MOL   O42219530   6.046   6.879   6.812 -0.5319 -0.5938  0.1372
   35MOL   C42319531   6.089   6.949   6.927  0.2795  0.7486  0.8214
   35MOL   C42419532   6.238   6.920   6.927  0.3289  0.4711 -0.3572
   35MOL   O42519533   6.251   6.777   6.947 -0.2276  0.5019 -0.3025
   35MOL   C42619534   6.303   6.951   6.788  0.8363  0.4154 -0.2517
   35MOL   C42719535   6.436   6.900   6.764  0.3899  0.1622 -0.1357
   35MOL   C42819536   6.487   6.924   6.615 -0.5808 -0.5236 -0.1378
   35MOL   O42919537   6.624   6.879   6.608 -0.2998 -0.5339  0.6204
   35MOL   C43019538   6.497   7.080   6.588 -0.0738 -0.0979  0.3168
   35MOL   C43119539   6.539   7.118   6.447  0.5062 -0.1376  0.2953
   35MOL   C43219540   6.359   7.135   6.619  0.4342 -0.2598  0.0387
   35MOL   C43319541   6.299   7.103   6.754 -0.5423 -0.6688  0.5966
   35MOL   H43419542   6.040   6.900   7.011 -1.4327 -1.1120 -1.1877
   35MOL   H43519543   6.054   7.052   6.933 -0.9164  0.4586 -0.8425
   35MOL   H43619544   6.282   6.980   7.006 -2.3242  2.4187 -0.3184
   35MOL   H43719545   6.201   6.737   6.878  0.1600  1.3809 -1.1137
   35MOL   H43819546   6.245   6.897   6.713  2.1135 -0.3821 -0.6714
   35MOL   H43919547   6.507   6.947   6.832 -1.0045  1.0285  0.7387
   35MOL   H44019548   6.434   6.792   6.781 -2.2029  0.4317  1.4543
   35MOL   H44119549   6.435   6.875   6.533  0.3446  0.8005 -1.5564
   35MOL   H44219550   6.678   6.957   6.601 -0.4794 -0.3847  0.8851
   35MOL   H44319551   6.574   7.120   6.654  1.4921 -1.5242 -0.5991
   35MOL   H44419552   6.630   7.063   6.421  1.7593 -0.0734  4.1683
   35MOL   H44519553   6.465   7.086   6.374 -1.4484  0.8547  1.7915
   35MOL   H44619554   6.296   7.101   6.536  1.2783  0.4300 -0.8982
   35MOL   H44719555   6.365   7.243   6.608  1.4416 -0.4080 -1.0446
   35MOL   H44819556   6.194   7.133   6.759  0.0216  1.5829 -0.1266
   35MOL   H44919557   6.361   7.150   6.831 -0.8309 -0.0269  0.4419
   35MOL   O45019558   6.551   7.258   6.443  0.0621  0.1003 -0.1333
   35MOL   C45119559   6.612   7.301   6.322 -0.5016 -0.3727  0.0047
   35MOL   C45219560   6.628   7.456   6.334  0.6599  0.2416  0.0899
   35MOL   O45319561   6.697   7.469   6.457 -0.6574 -0.1093 -0.2400
   35MOL   C45419562   6.700   7.528   6.222  0.3935  0.3108 -0.3735
   35MOL   C45519563   6.680   0.052   6.250 -0.3062  0.0033  0.2106
   35MOL   C45619564   6.768   0.137   6.159  0.6752  0.6587  0.2858
   35MOL   O45719565   6.741   0.276   6.182 -0.6122  0.6655 -0.3399
   35MOL   C45819566   6.730   0.102   6.013 -0.1067 -0.7061  0.1696
   35MOL   C45919567   6.815   0.178   5.901  0.1312  0.3847 -0.4383
   35MOL   C46019568   6.734   7.579   5.981 -0.6271  0.1581  0.1659
   35MOL   C46119569   6.655   7.494   6.083  0.1263 -0.9181 -0.2171
   35MOL   H46219570   6.551   7.264   6.239  1.8774  1.4942 -2.7000
   35MOL   H46319571   6.714   7.262   6.327 -0.6653 -1.0477 -1.4857
   35MOL   H46419572   6.531   7.504   6.347  1.3705  1.7010  0.0974
   35MOL   H46519573   6.654   7.405   6.512  0.8872 -0.9741 -0.0113
   35MOL   H46619574   6.806   7.514   6.245 -0.4191 -2.1585  2.2014
   35MOL   H46719575   6.577   0.085   6.247 -0.1354  1.2075  4.1474
   35MOL   H46819576   6.704   0.076   6.354  0.4966 -0.6517  0.1823
   35MOL   H46919577   6.876   0.122   6.173  0.6532  0.2878  0.0539
   35MOL   H47019578   6.783   0.322   6.111  0.2557 -1.3977 -1.2132
   35MOL   H47119579   6.624   0.126   6.006  0.1742  0.5790  0.2138
   35MOL   H47219580   6.924   0.169   5.905  0.0558  0.0876  1.0675
   35MOL   H47319581   6.800   0.144   5.798 -1.0759 -0.8495  0.1393
   35MOL   H47419582   6.835   7.537   5.991  0.0203  1.7604  0.4685
   35MOL   H47519583   6.701   7.545   5.883  0.9082 -0.0464 -0.2924
   35MOL   H47619584   6.678   7.388   6.072 -1.5066 -1.5894  2.3765
   35MOL   H47719585   6.549   7.502   6.060 -0.1756  0.5097  1.5922
   35MOL   O47819586   6.786   0.316   5.921  0.2701  0.4615  0.6831
   35MOL   C47919587   6.867   0.404   5.847 -0.2262  0.4121 -0.7088
   35MOL   C48019588   6.787   0.534   5.823 -0.4984 -0.2942  0.3502
   35MOL   O48119589   6.710   0.519   5.705 -0.2364  0.3369  0.4942
   35MOL   C48219590   6.697   0.582   5.940  0.9718  0.1144 -0.1129
   35MOL   C48319591   6.632   0.717   5.921  0.0879  0.3271 -0.3839
   35MOL   C48419592   6.551   0.759   6.047  0.1475 -0.3514  0.3486
   35MOL   O48519593   6.522   0.897   6.014 -0.1346  0.4698 -0.5749
   35MOL   C48619594   6.638   0.751   6.173  0.0780  0.3986  1.0386
   35MOL   C48719595   6.556   0.779   6.300  0.0650  0.3962  0.0565
   35MOL   C48819596   6.704   0.612   6.199  0.1962  0.6246 -0.0508
   35MOL   C48919597   6.780   0.576   6.070  0.3667 -0.1727  0.0038
   35MOL   H49019598   6.903   0.360   5.753  0.9092 -0.7397  0.2486
   35MOL   H49119599   6.953   0.423   5.912  0.7159 -1.3321 -1.3941
   35MOL   H49219600   6.862   0.608   5.797 -0.6138 -0.2464  0.1536
   35MOL   H49319601   6.718   0.601   5.659  0.2322  1.7794  3.0567
   35MOL   H49419602   6.615   0.513   5.957  0.3361  1.1171  0.9370
   35MOL   H49519603   6.713   0.785   5.895  1.7845 -1.0001  1.2794
   35MOL   H49619604   6.563   0.709   5.837 -1.1635 -2.0389  0.8177
   35MOL   H49719605   6.462   0.699   6.066 -0.4318  0.5292  0.4283
   35MOL   H49819606   6.489   0.914   5.928  0.7469  1.1070 -0.7944
   35MOL   H49919607   6.717   0.826   6.166  0.5987 -0.2277  0.0928
   35MOL   H50019608   6.513   0.879   6.287 -0.4065  0.1630 -0.2160
   35MOL   H50119609   6.464   0.721   6.314  1.4915 -1.4385  2.0813
   35MOL   H50219610   6.640   0.527   6.221  2.8101 -2.0346 -2.1635
   35MOL   H50319611   6.770   0.631   6.284 -1.0775 -0.6662  1.2502
   35MOL   H50419612   6.827   0.479   6.083  3.6238  1.3070 -0.3724
   35MOL   H50519613   6.856   0.654   6.060 -0.1616 -0.1035 -4.6704
   35MOL   O50619614   6.634   0.779   6.419  0.4436  0.0749  0.2628
   35MOL   C50719615   6.648   0.905   6.486 -0.3026 -0.4905 -0.2071
   35MOL   C50819616   6.755   0.998   6.421 -0.4751 -0.6040  0.3804
   35MOL   O50919617   6.717   1.131   6.448 -0.3116 -0.0064 -0.5658
   35MOL   C51019618   6.900   0.990   6.475 -0.1353  0.8453  0.0764
   35MOL   C51119619   6.997   1.058   6.371  0.1176 -0.3299  0.1405
   35MOL   C51219620   7.151   1.048   6.412  0.5628  0.1945  0.1329
   35MOL   O51319621   7.225   1.095   6.297 -0.5440  0.0390  0.1410
   35MOL   C51419622   7.178   0.900   6.442 -0.3138  0.0215 -0.1638
   35MOL   C51519623   7.327   0.872   6.485  0.0721 -0.3028  0.7181
   35MOL   C51619624   7.089   0.847   6.559  0.0101  0.3511  0.0642
   35MOL   C51719625   6.947   0.851   6.509 -0.0628 -0.3810  0.3652
   35MOL   H51819626   6.691   0.890   6.585  2.1784 -0.7217 -1.2900
   35MOL   H51919627   6.557   0.961   6.510  0.5690  0.8265  0.0696
   35MOL   H52019628   6.757   0.983   6.313 -0.7469 -1.6736  0.5180
   35MOL   H52119629   6.624   1.129   6.436 -0.2281 -2.5384 -0.9509
   35MOL   H52219630   6.900   1.041   6.572  1.9364 -1.8347  1.5389
   35MOL   H52319631   6.982   1.008   6.276 -0.8482 -1.4232  0.8630
   35MOL   H52419632   6.963   1.161   6.362  1.5404  0.2090  0.7602
   35MOL   H52519633   7.168   1.112   6.499  0.9915 -0.1843  0.3258
   35MOL   H52619634   7.213   1.187   6.285  3.2572  0.6963  0.6436
   35MOL   H52719635   7.157   0.836   6.357 -1.0342 -0.1263  0.1202
   35MOL   H52819636   7.385   0.915   6.403 -0.2460 -0.7485  0.2544
   35MOL   H52919637   7.349   0.928   6.576  1.7611  0.0269  0.1238
   35MOL   H53019638   7.104   0.909   6.648 -0.7540 -1.2336  1.3260
   35MOL   H53119639   7.113   0.745   6.586  1.7382 -0.0143 -2.6403
   35MOL   H53219640   6.889   0.801   6.586 -0.4975 -0.4115  0.0174
   35MOL   H53319641   6.934   0.780   6.427  0.0270 -0.5403  0.4873
   35MOL   O53419642   7.325   0.735   6.510 -0.0504 -0.0378 -0.1752
   35MOL   C53519643   7.449   0.679   6.549  0.3823 -0.3482  0.3240
   35MOL   C53619644   7.436   0.538   6.604 -0.4581 -0.1634  0.0634
   35MOL   O53719645   7.554   0.490   6.664  0.1663 -0.6631  1.0448
   35MOL   C53819646   7.319   0.523   6.713  0.0659  0.4846  0.4124
   35MOL   C53919647   7.349   0.591   6.846  0.3849 -0.6624 -0.7316
   35MOL   C54019648   7.233   0.567   6.943  0.1890 -0.1045 -0.4674
   35MOL   O54119649   7.267   0.616   7.069  0.3957 -0.1413  0.0302
   35MOL   C54219650   7.198   0.414   6.960 -0.1177  0.2173 -0.6148
   35MOL   C54319651   7.074   0.385   7.052  0.3908  0.2787  0.1816
   35MOL   C54419652   7.176   0.354   6.828 -0.0796  0.7829  0.1371
   35MOL   C54519653   7.294   0.375   6.736 -0.1919  0.1961 -0.1870
   35MOL   H54619654   7.478   0.741   6.634 -1.3637 -0.0059  0.6913
   35MOL   H54719655   7.532   0.674   6.478  0.9980 -0.9700  1.0745
   35MOL   H54819656   7.426   0.476   6.515  1.8126  2.3959 -2.0889
   35MOL   H54919657   7.539   0.402   6.694  1.5563 -0.5277  2.1739
   35MOL   H55019658   7.236   0.578   6.668  0.4633  0.7117 -0.0539
   35MOL   H55119659   7.446   0.568   6.891 -0.4418 -0.2323  1.3112
   35MOL   H55219660   7.359   0.699   6.837  0.1667 -0.6156 -0.4017
   35MOL   H55319661   7.150   0.626   6.906  0.5992 -0.4818 -2.0079
   35MOL   H55419662   7.185   0.628   7.115  0.8016 -0.0173  0.7256
   35MOL   H55519663   7.285   0.364   7.002  0.8685  2.4960  0.0925
   35MOL   H55619664   6.987   0.431   7.006 -1.0405 -0.2398  2.2979
   35MOL   H55719665   7.057   0.277   7.055  0.8875  0.2272  1.1772
   35MOL   H55819666   7.091   0.397   6.773 -2.0544  0.4564  2.8348
   35MOL   H55919667   7.160   0.246   6.827 -0.3495  0.8161  0.5355
   35MOL   H56019668   7.268   0.341   6.636 -2.0163  2.8801 -0.6619
   35MOL   H56119669   7.384   0.316   6.757  0.8070  2.7345  3.1146
   35MOL   H56219670   7.081   0.410   7.158  1.9941  1.6567 -0.2316
   36MOL     O119671   6.691   3.024   1.424 -0.2610  0.4861  0.4052
   36MOL     C219672   6.753   2.907   1.449 -0.2327  0.4288  0.2666
   36MOL     C319673   6.650   2.800   1.473  0.0108 -0.5279  0.1705
   36MOL     O419674   6.567   2.788   1.359 -0.3395 -0.7313 -0.4655
   36MOL     C519675   6.716   2.665   1.502 -0.3511 -0.0064  0.0587
   36MOL     C619676   6.757   2.583   1.384 -0.3882 -0.1722  0.7101
   36MOL     C719677   6.836   2.460   1.425  0.9361 -0.1269  0.0771
   36MOL     O819678   6.889   2.404   1.309 -0.4524  0.6664 -0.3180
   36MOL     C919679   6.751   2.361   1.501 -0.1418  0.4103 -0.1019
   36MOL    C1019680   6.823   2.230   1.553  0.3894 -0.0660 -0.1414
   36MOL    C1119681   6.686   2.431   1.622 -0.0528 -0.4465  0.0201
   36MOL    C1219682   6.625   2.569   1.587 -0.1381 -0.2575  0.0010
   36MOL    H1319683   6.810   2.917   1.541  1.3677  1.1969 -0.7710
   36MOL    H1419684   6.823   2.890   1.366  0.6712  0.9635  0.9092
   36MOL    H1519685   6.581   2.831   1.552 -0.7040 -0.3998 -0.4999
   36MOL    H1619686   6.552   2.876   1.329 -0.0381 -0.2353  0.8155
   36MOL    H1719687   6.798   2.682   1.572 -0.3823  2.5754 -0.4701
   36MOL    H1819688   6.671   2.562   1.320 -0.5337  2.7116 -0.1101
   36MOL    H1919689   6.815   2.642   1.312 -1.9362  0.9654  0.3725
   36MOL    H2019690   6.912   2.490   1.497  1.0457  1.5828 -0.7122
   36MOL    H2119691   6.812   2.385   1.258 -1.6639 -0.6101  1.9377
   36MOL    H2219692   6.674   2.347   1.424 -1.7548  3.1275  0.9535
   36MOL    H2319693   6.882   2.190   1.470  0.4897  2.4243 -1.2934
   36MOL    H2419694   6.892   2.252   1.634 -1.4389  2.3743  0.7779
   36MOL    H2519695   6.767   2.451   1.691 -0.4920 -1.9038  0.9750
   36MOL    H2619696   6.613   2.372   1.678 -1.7373  1.9913  0.4521
   36MOL    H2719697   6.607   2.621   1.681  0.2221 -0.4808  0.1930
   36MOL    H2819698   6.531   2.560   1.532  0.1985  3.8685 -1.4229
   36MOL    H2919699   6.758   3.089   1.410  0.3205 -0.4892 -1.5108
   36MOL    O3019700   6.736   2.127   1.594  0.0586 -0.5946  1.1379
   36MOL    C3119701   6.784   2.049   1.704  0.0794  0.0401  0.2954
   36MOL    C3219702   6.674   1.949   1.738  0.1319  0.0647 -0.3032
   36MOL    O3319703   6.667   1.867   1.619 -0.0694  0.2393 -0.6481
   36MOL    C3419704   6.708   1.856   1.856 -0.3010  0.6706  0.1412
   36MOL    C3519705   6.609   1.736   1.869  0.2068  0.0235 -0.7411
   36MOL    C3619706   6.642   1.651   1.991  0.4358 -0.3435 -0.0125
   36MOL    O3719707   6.539   1.554   1.996  0.1833 -0.1878 -0.5568
   36MOL    C3819708   6.642   1.730   2.123 -0.4537  0.3108  0.5877
   36MOL    C3919709   6.666   1.636   2.238 -0.3116 -0.4060 -0.1756
   36MOL    C4019710   6.746   1.842   2.110  0.3618 -0.3573 -0.6848
   36MOL    C4119711   6.728   1.929   1.987 -0.3724  0.6217 -0.1708
   36MOL    H4219712   6.803   2.116   1.788  2.0465  1.7229 -1.4130
   36MOL    H4319713   6.882   2.003   1.687  0.2980  1.3199 -2.1284
   36MOL    H4419714   6.579   2.001   1.751 -0.2656 -0.9730  1.0234
   36MOL    H4519715   6.645   1.929   1.552  4.5101  0.7705 -1.8229
   36MOL    H4619716   6.805   1.811   1.836 -1.2505 -2.4347  1.9953
   36MOL    H4719717   6.507   1.773   1.884  0.5399  1.2266 -1.3724
   36MOL    H4819718   6.611   1.675   1.779  1.6308 -0.1508 -0.5909
   36MOL    H4919719   6.737   1.607   1.964 -0.1153 -1.7609  0.3147
   36MOL    H5019720   6.454   1.596   1.989 -0.5753 -1.5389  0.2209
   36MOL    H5119721   6.551   1.786   2.143  0.7986  2.0605  1.6127
   36MOL    H5219722   6.577   1.579   2.266  0.6826 -1.5964  0.5960
   36MOL    H5319723   6.749   1.570   2.212 -0.7934 -1.6292  1.2949
   36MOL    H5419724   6.842   1.789   2.106 -0.4222 -1.8273 -0.2555
   36MOL    H5519725   6.742   1.901   2.201  4.3190 -0.0974 -0.5736
   36MOL    H5619726   6.818   1.990   1.981 -0.1572  0.0729 -3.5225
   36MOL    H5719727   6.644   1.994   2.011  0.6135  1.3831  1.3112
   36MOL    O5819728   6.690   1.721   2.345 -0.0453  0.8367  0.0211
   36MOL    C5919729   6.752   1.658   2.454 -0.8556  0.2094  0.6302
   36MOL    C6019730   6.801   1.778   2.537  0.2633 -0.4097  0.0339
   36MOL    O6119731   6.891   1.849   2.458 -0.3440 -0.6302  0.4615
   36MOL    C6219732   6.699   1.870   2.606 -0.0155 -0.3213 -0.3139
   36MOL    C6319733   6.610   1.953   2.512 -0.1045 -0.3716 -0.6867
   36MOL    C6419734   6.506   2.041   2.576 -0.9301 -0.2515 -0.4600
   36MOL    O6519735   6.423   2.107   2.488 -0.5381  0.3643  0.2137
   36MOL    C6619736   6.581   2.142   2.669  0.0930  0.4413 -0.8479
   36MOL    C6719737   6.480   2.232   2.741  0.2507  0.4574  0.5111
   36MOL    C6819738   6.672   2.066   2.770 -0.0069 -0.6558  0.7079
   36MOL    C6919739   6.772   1.974   2.700 -0.3883  0.5200 -0.4001
   36MOL    H7019740   6.827   1.589   2.416 -3.0637 -1.6716 -0.4295
   36MOL    H7119741   6.674   1.603   2.507 -1.0371  1.1637  1.3903
   36MOL    H7219742   6.864   1.732   2.613 -0.9690  0.9130  1.8875
   36MOL    H7319743   6.836   1.884   2.390  0.3203  1.2188  0.8606
   36MOL    H7419744   6.632   1.815   2.671  1.9147 -0.8416  1.2932
   36MOL    H7519745   6.675   2.011   2.447  1.2167  0.7631  1.5905
   36MOL    H7619746   6.556   1.880   2.452 -2.5869  0.6270  0.2624
   36MOL    H7719747   6.431   1.982   2.629  1.1088 -2.1481  0.3731
   36MOL    H7819748   6.464   2.178   2.442  1.0195 -1.2446 -0.9203
   36MOL    H7919749   6.648   2.203   2.607  2.7080 -0.4345  1.0303
   36MOL    H8019750   6.428   2.306   2.680  0.9090  1.1310  0.7612
   36MOL    H8119751   6.401   2.187   2.802 -1.5519  1.1820 -1.2303
   36MOL    H8219752   6.611   2.011   2.843 -2.0331  1.4993  0.7012
   36MOL    H8319753   6.729   2.139   2.828 -0.8896 -0.2349  1.0696
   36MOL    H8419754   6.806   1.928   2.793 -1.0784  0.8063 -0.0012
   36MOL    H8519755   6.851   2.029   2.649 -0.9424  2.3446  0.6905
   36MOL    O8619756   6.559   2.320   2.824  0.1628 -0.3074 -0.4746
   36MOL    C8719757   6.480   2.374   2.932  0.0507  0.1419 -0.3459
   36MOL    C8819758   6.571   2.474   2.998  0.0066 -0.0462  0.5768
   36MOL    O8919759   6.607   2.561   2.891 -0.5523 -0.0686  1.0654
   36MOL    C9019760   6.511   2.559   3.109  0.6673 -0.3532 -0.4386
   36MOL    C9119761   6.622   2.665   3.156  0.2848  0.5695 -0.4416
   36MOL    C9219762   6.585   2.737   3.287  0.6586 -0.6796  0.1051
   36MOL    O9319763   6.678   2.840   3.318 -0.6536 -0.3699 -0.0793
   36MOL    C9419764   6.551   2.641   3.405 -0.1189  0.8944  0.0020
   36MOL    C9519765   6.511   2.708   3.531  0.8129  0.3481 -0.1965
   36MOL    C9619766   6.444   2.537   3.361 -0.6403 -0.4587  0.1449
   36MOL    C9719767   6.484   2.470   3.228  0.0190  0.3790  0.1114
   36MOL    H9819768   6.446   2.296   3.001 -0.1913  1.3783  0.9591
   36MOL    H9919769   6.394   2.419   2.883 -1.6077 -1.7070  0.7792
   36MOL   H10019770   6.657   2.418   3.033  0.7715  0.4466 -0.4810
   36MOL   H10119771   6.613   2.511   2.812  0.8234  1.9766 -0.1688
   36MOL   H10219772   6.418   2.611   3.083  0.9679  0.9167  0.9602
   36MOL   H10319773   6.703   2.598   3.184  0.2670 -0.0604 -1.8206
   36MOL   H10419774   6.660   2.727   3.075 -2.4966  1.7423 -0.9192
   36MOL   H10519775   6.490   2.787   3.266  0.3826 -0.1061  2.5713
   36MOL   H10619776   6.639   2.910   3.368 -0.7690 -0.1861 -0.4234
   36MOL   H10719777   6.636   2.577   3.431  0.1818 -1.0505 -5.2175
   36MOL   H10819778   6.472   2.636   3.603 -0.7658  1.2934 -0.0656
   36MOL   H10919779   6.592   2.759   3.583 -0.4157  1.2929  0.8149
   36MOL   H11019780   6.356   2.597   3.337 -0.5485 -0.4890 -0.2707
   36MOL   H11119781   6.417   2.460   3.433 -1.7548 -2.1536 -2.0302
   36MOL   H11219782   6.412   2.393   3.199 -0.3773  0.2400  1.4398
   36MOL   H11319783   6.567   2.405   3.256 -1.0385 -1.0956 -0.0622
   36MOL   O11419784   6.406   2.801   3.504  0.0555  0.0191  0.3535
   36MOL   C11519785   6.353   2.874   3.609  0.7173 -0.0934  0.4690
   36MOL   C11619786   6.213   2.916   3.570  1.0423 -0.7626 -0.7430
   36MOL   O11719787   6.164   2.988   3.687  0.6911  0.4670  0.2766
   36MOL   C11819788   6.193   2.996   3.435 -0.5612 -0.2177  0.3958
   36MOL   C11919789   6.294   3.116   3.426 -0.1686  0.1321 -0.4252
   36MOL   C12019790   6.274   3.207   3.311 -0.1371 -0.4946  0.6233
   36MOL   O12119791   6.365   3.315   3.333 -0.6324  0.2556  0.0081
   36MOL   C12219792   6.130   3.255   3.286 -0.0203 -0.0852  0.7437
   36MOL   C12319793   6.094   3.346   3.164  0.1521 -0.2486 -0.4605
   36MOL   C12419794   6.039   3.133   3.285  0.1770 -0.1645  0.5335
   36MOL   C12519795   6.048   3.053   3.407 -0.6987  0.7138 -0.3581
   36MOL   H12619796   6.420   2.959   3.621  0.6272 -0.1221  1.2251
   36MOL   H12719797   6.368   2.825   3.706 -0.0243 -1.8172 -0.2668
   36MOL   H12819798   6.150   2.828   3.561 -0.0177 -0.4483  2.8891
   36MOL   H12919799   6.071   2.974   3.698  0.9523 -3.3316 -1.3753
   36MOL   H13019800   6.209   2.925   3.354 -0.6157 -0.0674  0.2542
   36MOL   H13119801   6.297   3.176   3.517  1.9682 -0.2615 -0.2078
   36MOL   H13219802   6.393   3.070   3.428  0.3541  1.2602  0.1282
   36MOL   H13319803   6.310   3.164   3.218 -0.5950  2.1362 -0.8463
   36MOL   H13419804   6.395   3.337   3.246  1.1787 -0.7607  0.3627
   36MOL   H13519805   6.105   3.322   3.369  1.4215  2.5343 -0.8750
   36MOL   H13619806   5.990   3.376   3.161  0.4274  0.6903 -0.9519
   36MOL   H13719807   6.156   3.436   3.164 -0.3822  0.1231 -1.5141
   36MOL   H13819808   6.051   3.081   3.190 -2.6687 -1.0770  0.6179
   36MOL   H13919809   5.940   3.177   3.281  0.9800  1.8036  1.6357
   36MOL   H14019810   5.976   2.971   3.400 -1.1252  0.9083  1.4948
   36MOL   H14119811   6.014   3.108   3.495 -0.7703 -1.0449  0.7587
   36MOL   O14219812   6.129   3.276   3.042  0.1219 -0.5132 -0.7164
   36MOL   C14319813   6.109   3.361   2.931 -0.1637  0.3252  0.0795
   36MOL   C14419814   6.161   3.285   2.801  0.2269 -0.6886 -0.2500
   36MOL   O14519815   6.058   3.202   2.751 -0.5285 -0.1292 -0.0979
   36MOL   C14619816   6.203   3.384   2.688 -1.0015 -0.2976  0.3438
   36MOL   C14719817   6.084   3.448   2.608 -0.7033 -0.9656  0.2495
   36MOL   C14819818   6.143   3.539   2.503  0.5655  0.5060  1.0310
   36MOL   O14919819   6.038   3.581   2.419  0.1419  0.0477  0.7790
   36MOL   C15019820   6.258   3.488   2.416 -0.6383 -0.2280  0.8157
   36MOL   C15119821   6.313   3.592   2.314  0.5188 -0.2502  0.1844
   36MOL   C15219822   6.366   3.418   2.494  0.1301  0.2223  0.1288
   36MOL   C15319823   6.306   3.312   2.590 -0.6964  0.7948 -0.3546
   36MOL   H15419824   6.168   3.451   2.950  1.3094 -0.6308  0.1215
   36MOL   H15519825   6.003   3.382   2.920 -0.6555 -1.8056  0.5929
   36MOL   H15619826   6.249   3.227   2.829  1.4505  0.6020 -1.3185
   36MOL   H15719827   6.088   3.113   2.743 -1.6307 -0.4509 -0.7275
   36MOL   H15819828   6.252   3.466   2.741  0.1235  0.1383 -1.3381
   36MOL   H15919829   6.013   3.382   2.556 -3.7654  3.4539 -1.4755
   36MOL   H16019830   6.022   3.503   2.679  1.1784  2.9800 -1.0203
   36MOL   H16119831   6.174   3.630   2.555 -2.1050  2.0118  0.0582
   36MOL   H16219832   6.027   3.665   2.462  4.4108 -0.2587  2.7945
   36MOL   H16319833   6.209   3.412   2.355 -1.0938  1.5146 -1.0450
   36MOL   H16419834   6.230   3.640   2.263  0.0554 -0.6946  0.5191
   36MOL   H16519835   6.373   3.672   2.360  0.0935  0.1717  0.0116
   36MOL   H16619836   6.426   3.493   2.546 -1.1825  0.8794  0.6976
   36MOL   H16719837   6.438   3.368   2.429  0.7379  0.5152  0.5597
   36MOL   H16819838   6.383   3.256   2.643 -0.9091  1.3759  0.5727
   36MOL   H16919839   6.248   3.247   2.525 -1.2622 -0.9321  1.8223
   36MOL   O17019840   6.398   3.533   2.228 -0.2979  0.0679  0.0700
   36MOL   C17119841   6.333   3.476   2.118  0.1938 -0.6131 -0.1594
   36MOL   C17219842   6.440   3.410   2.045  0.8372 -0.7986 -0.8026
   36MOL   O17319843   6.480   3.307   2.133  0.4190 -0.7054  0.0693
   36MOL   C17419844   6.403   3.357   1.900  0.2887  0.2826  0.2791
   36MOL   C17519845   6.486   3.230   1.865  0.0254 -0.0537 -0.6009
   36MOL   C17619846   6.455   3.168   1.726  0.1231  0.2274 -0.8945
   36MOL   O17719847   6.545   3.067   1.700 -0.3502  0.1383  0.5637
   36MOL   C17819848   6.453   3.285   1.620  0.3472  0.5000  1.6250
   36MOL   C17919849   6.400   3.248   1.478 -0.4094 -0.4213  0.7625
   36MOL   C18019850   6.379   3.414   1.655  0.6983 -0.2867 -0.0807
   36MOL   C18119851   6.423   3.464   1.794  0.1844  0.3190  0.2281
   36MOL   H18219852   6.290   3.556   2.058 -0.6612  0.5621  1.9689
   36MOL   H18319853   6.257   3.405   2.151 -0.6446  0.5474  0.4294
   36MOL   H18419854   6.526   3.477   2.041 -0.2276  0.7160  0.9086
   36MOL   H18519855   6.503   3.353   2.212 -2.3308  0.7194  0.1059
   36MOL   H18619856   6.299   3.327   1.912  0.1819 -0.5709 -2.5288
   36MOL   H18719857   6.588   3.269   1.866 -0.4934  1.2979  0.7689
   36MOL   H18819858   6.489   3.153   1.942 -0.0211 -0.2122 -0.7583
   36MOL   H18919859   6.359   3.118   1.718 -0.6151  1.8240 -2.5525
   36MOL   H19019860   6.552   3.076   1.606 -0.1124 -0.9716  0.4742
   36MOL   H19119861   6.556   3.319   1.617  0.7626 -0.8252 -0.0411
   36MOL   H19219862   6.399   3.331   1.407 -2.1287  0.5592  1.8764
   36MOL   H19319863   6.465   3.172   1.436  0.9693  1.0112  0.2731
   36MOL   H19419864   6.270   3.407   1.665  0.5364  1.4643 -0.3590
   36MOL   H19519865   6.398   3.491   1.580  2.7021 -1.6142 -0.9520
   36MOL   H19619866   6.365   3.554   1.816 -0.5272  0.6794 -2.8602
   36MOL   H19719867   6.527   3.497   1.788  0.7604 -1.3514  0.7130
   36MOL   O19819868   6.269   3.199   1.489  0.1809  0.5300  0.1596
   36MOL   C19919869   6.225   3.121   1.385 -0.1939 -0.6895 -0.2420
   36MOL   C20019870   6.090   3.078   1.435 -0.2475  0.0817  0.5373
   36MOL   O20119871   5.992   3.178   1.439 -0.7175 -0.1402  0.4985
   36MOL   C20219872   6.044   2.958   1.358 -0.1493  0.4131 -0.9378
   36MOL   C20319873   6.003   2.973   1.212  0.1520 -0.6811 -0.0388
   36MOL   C20419874   5.971   2.838   1.151 -0.0612  0.3913  0.7033
   36MOL   O20519875   5.938   2.853   1.014  0.0924  0.1757  0.1368
   36MOL   C20619876   5.852   2.765   1.225  0.4493 -0.3580 -0.4111
   36MOL   C20719877   5.827   2.618   1.172 -0.5008 -0.9385 -0.4195
   36MOL   C20819878   5.889   2.761   1.378  0.6512  0.5275  0.0067
   36MOL   C20919879   5.929   2.894   1.435  0.1628  0.3970  0.2781
   36MOL   H21019880   6.297   3.043   1.360  0.7895 -0.3008  1.3711
   36MOL   H21119881   6.222   3.186   1.297 -0.8642  0.6895  0.7979
   36MOL   H21219882   6.101   3.049   1.540  1.6725  2.1316  0.9608
   36MOL   H21319883   5.965   3.211   1.355 -0.8069  0.5607  0.7976
   36MOL   H21419884   6.132   2.894   1.362  0.2437  0.8543 -2.3934
   36MOL   H21519885   5.921   3.044   1.207  0.2568 -0.6548 -1.6724
   36MOL   H21619886   6.082   3.020   1.152 -0.7567  0.9944  0.0583
   36MOL   H21719887   6.062   2.779   1.155  0.3654  1.1006  1.5063
   36MOL   H21819888   5.971   2.775   0.970  0.7321  0.1064  0.7318
   36MOL   H21919889   5.768   2.831   1.201  1.4123  0.2347 -2.3029
   36MOL   H22019890   5.753   2.568   1.234  0.4486 -0.0085  1.5147
   36MOL   H22119891   5.778   2.625   1.075  1.5162  0.4320 -1.3972
   36MOL   H22219892   5.970   2.690   1.389  0.3917  0.1017 -0.7352
   36MOL   H22319893   5.800   2.721   1.427  0.9168  0.1371  0.1691
   36MOL   H22419894   5.967   2.866   1.534  4.0655  0.1425 -1.1743
   36MOL   H22519895   5.844   2.960   1.448 -0.6023 -0.1056 -1.9744
   36MOL   O22619896   5.955   2.551   1.184 -0.2123  0.1309  0.0250
   36MOL   C22719897   5.961   2.418   1.134 -0.6735 -0.1802 -0.0053
   36MOL   C22819898   5.964   2.427   0.978  0.5471 -0.0071 -0.9131
   36MOL   O22919899   6.046   2.327   0.908 -0.5816  0.0193  0.3163
   36MOL   C23019900   5.829   2.410   0.906 -1.0676 -0.3960  0.1477
   36MOL   C23119901   5.778   2.263   0.893  0.2080 -0.4735  0.1834
   36MOL   C23219902   5.639   2.263   0.830  0.2178  0.6990 -0.0702
   36MOL   O23319903   5.594   2.120   0.829  0.5927  0.2613  0.1342
   36MOL   C23419904   5.652   2.317   0.684  0.1065 -0.2212  0.8153
   36MOL   C23519905   5.523   2.296   0.598 -0.2991 -0.6883  0.3716
   36MOL   C23619906   5.698   2.459   0.703  0.1675  0.3296  0.0880
   36MOL   C23719907   5.834   2.469   0.765 -0.3339 -0.1311 -0.8605
   36MOL   H23819908   5.871   2.381   1.183 -0.8195  2.5555  1.9219
   36MOL   H23919909   6.053   2.366   1.158 -1.4533 -0.3458  2.8317
   36MOL   H24019910   6.003   2.521   0.941  1.2622 -1.4530 -4.0147
   36MOL   H24119911   5.999   2.245   0.914  1.1542 -1.0625 -0.3619
   36MOL   H24219912   5.750   2.454   0.968 -0.6537  0.3893  0.1178
   36MOL   H24319913   5.847   2.207   0.829  0.5470 -0.1456  0.2654
   36MOL   H24419914   5.758   2.210   0.986 -0.1012  0.1549  0.4805
   36MOL   H24519915   5.559   2.310   0.888 -0.4071 -1.7703  1.1412
   36MOL   H24619916   5.501   2.126   0.848  0.2036 -2.7793 -0.5244
   36MOL   H24719917   5.733   2.264   0.633 -0.6245 -2.5434  1.9774
   36MOL   H24819918   5.507   2.192   0.571 -0.7246 -0.4569 -0.2792
   36MOL   H24919919   5.433   2.314   0.656 -0.8487  1.6456 -1.1451
   36MOL   H25019920   5.624   2.512   0.763 -1.1873  0.7665 -1.9119
   36MOL   H25119921   5.709   2.515   0.609 -1.6369 -0.5048 -0.6440
   36MOL   H25219922   5.856   2.576   0.771 -0.4958 -0.1743  0.8279
   36MOL   H25319923   5.915   2.426   0.707  0.5567  0.1744  0.1362
   36MOL   O25419924   5.522   2.380   0.482  0.6668  0.3388  0.1643
   36MOL   C25519925   5.612   2.343   0.382 -0.0702  0.2883 -0.5606
   36MOL   C25619926   5.566   2.410   0.253  0.6675  0.0564 -0.4139
   36MOL   O25719927   5.567   2.547   0.284 -0.3289  0.3115 -0.0955
   36MOL   C25819928   5.663   2.381   0.133 -0.0966 -0.9065  0.0026
   36MOL   C25919929   5.629   2.471   0.010  0.2598  0.0780  0.0314
   36MOL   C26019930   5.717   2.438   7.523  0.0366 -0.1677  0.4090
   36MOL   O26119931   5.672   2.510   7.412  0.3173  0.5817 -0.3430
   36MOL   C26219932   5.723   2.287   7.482  0.9924 -0.1444  0.3182
   36MOL   C26319933   5.820   2.256   7.368  0.2567  0.4175 -0.2583
   36MOL   C26419934   5.745   2.202   7.607  0.8635 -0.7833 -0.5779
   36MOL   C26519935   5.650   2.229   0.098  0.8058 -0.9357  0.9586
   36MOL   H26619936   5.602   2.235   0.379  1.1860  0.0866  1.9401
   36MOL   H26719937   5.714   2.365   0.412 -0.5971 -0.0598  1.5850
   36MOL   H26819938   5.466   2.378   0.224  0.2217  0.6496  0.4561
   36MOL   H26919939   5.528   2.546   0.370 -0.3941 -0.2783 -0.1258
   36MOL   H27019940   5.766   2.401   0.163  0.9766 -0.7764 -3.4723
   36MOL   H27119941   5.521   2.464   7.623 -0.2047 -1.6045  3.4064
   36MOL   H27219942   5.640   2.579   0.025  0.4638 -0.3124  3.0803
   36MOL   H27319943   5.816   2.482   7.535  0.7184 -1.7674  0.9097
   36MOL   H27419944   5.582   2.494   7.388  0.2902  0.4117 -0.1273
   36MOL   H27519945   5.624   2.253   7.453  0.9724  0.1870 -0.0094
   36MOL   H27619946   5.798   2.300   7.271  1.1518  1.0165 -0.1942
   36MOL   H27719947   5.921   2.290   7.390  0.3620 -0.1003  0.0403
   36MOL   H27819948   5.843   2.215   0.024  0.2464  0.5057  0.3941
   36MOL   H27919949   5.742   2.097   7.576  2.8233 -0.7070 -1.0625
   36MOL   H28019950   5.676   2.167   0.183  0.7083 -1.7148  0.4318
   36MOL   H28119951   5.546   2.204   0.077  1.1720 -1.2985 -0.5207
   36MOL   O28219952   5.815   2.120   7.338  0.3369  0.3182 -0.2492
   36MOL   C28319953   5.930   2.042   7.342 -0.0851  0.4308  0.4250
   36MOL   C28419954   6.035   2.100   7.240  0.6412  0.7390 -0.5753
   36MOL   O28519955   6.165   2.070   7.286  0.2657  0.2833 -0.0464
   36MOL   C28619956   6.007   2.043   7.097 -0.1544  0.0558 -0.5991
   36MOL   C28719957   6.125   2.095   7.007 -0.1401  0.4700  0.6294
   36MOL   C28819958   6.104   2.090   6.861  0.2491  0.8734  0.2308
   36MOL   O28919959   6.185   2.183   6.788  0.3590 -0.2304  0.3239
   36MOL   C29019960   5.953   2.104   6.807  0.5084 -0.4142 -0.1363
   36MOL   C29119961   5.933   2.039   6.670 -0.8111 -0.2584  0.5270
   36MOL   C29219962   5.854   2.037   6.903  0.2683 -0.1943 -0.0040
   36MOL   C29319963   5.869   2.085   7.044  0.3320  0.6586  0.4254
   36MOL   H29419964   5.897   1.938   7.330 -0.9806  0.5426  1.8486
   36MOL   H29519965   5.970   2.043   7.443  2.2365  3.8674 -0.4537
   36MOL   H29619966   6.039   2.208   7.228 -0.4644  0.7212 -1.1392
   36MOL   H29719967   6.171   1.976   7.291  2.0837  0.4987  3.0288
   36MOL   H29819968   6.001   1.934   7.099 -1.1470  0.1236  0.2038
   36MOL   H29919969   6.143   2.200   7.030  3.6692 -0.2521  1.1911
   36MOL   H30019970   6.217   2.041   7.030 -0.0994  0.2583 -0.0144
   36MOL   H30119971   6.145   1.996   6.824  1.2403  1.7756 -1.0032
   36MOL   H30219972   6.160   2.268   6.821  0.2558 -0.5971  1.1775
   36MOL   H30319973   5.931   2.210   6.799 -1.9537 -0.8279  0.6639
   36MOL   H30419974   5.992   2.100   6.601 -0.7796 -0.2986  0.5190
   36MOL   H30519975   5.969   1.936   6.672  1.7702  0.5009 -2.0814
   36MOL   H30619976   5.865   1.929   6.913 -2.5129 -0.4682  0.7115
   36MOL   H30719977   5.750   2.050   6.872  1.3000  0.0111 -3.6005
   36MOL   H30819978   5.785   2.040   7.096 -0.7239  1.2450 -0.7435
   36MOL   H30919979   5.858   2.194   7.049 -0.6172  0.4889  2.2397
   36MOL   O31019980   5.800   2.045   6.639  0.0116  0.3492 -0.1920
   36MOL   C31119981   5.776   2.027   6.498 -0.0049 -0.3055 -0.2157
   36MOL   C31219982   5.624   2.052   6.475  0.0782  0.3165  0.9214
   36MOL   O31319983   5.593   2.180   6.532 -0.6587 -0.5313  0.3816
   36MOL   C31419984   5.572   2.055   6.332  0.2725 -1.1446 -0.0363
   36MOL   C31519985   5.416   2.055   6.308 -0.3451  0.2826 -0.2113
   36MOL   C31619986   5.373   2.080   6.165  0.4638  0.2702 -0.4754
   36MOL   O31719987   5.233   2.064   6.148  0.3390  0.2140  0.3560
   36MOL   C31819988   5.439   1.976   6.065  0.1743  0.2097  0.2668
   36MOL   C31919989   5.421   2.026   5.920 -0.2858  0.7097 -0.0527
   36MOL   C32019990   5.591   1.954   6.097  0.2272  0.0705 -0.1363
   36MOL   C32119991   5.616   1.933   6.249  0.3458  0.0533  0.1071
   36MOL   H32219992   5.797   1.923   6.473 -0.8780 -0.6075  0.2647
   36MOL   H32319993   5.827   2.083   6.420  0.8750 -2.1415 -0.9903
   36MOL   H32419994   5.569   1.972   6.525  0.2058 -0.9159 -0.8889
   36MOL   H32519995   5.659   2.206   6.595  0.9640  2.5203 -2.4039
   36MOL   H32619996   5.617   2.135   6.273  0.9843  0.0116  2.0126
   36MOL   H32719997   5.377   1.958   6.338  0.9745  0.7962  3.3888
   36MOL   H32819998   5.376   2.130   6.375 -0.3240 -0.1908  0.3334
   36MOL   H32919999   5.402   2.183   6.142 -0.6178  1.2367  2.2504
   36MOL   H33020000   5.183   2.141   6.170 -0.5085 -0.6274  1.4945
   36MOL   H33120001   5.378   1.887   6.075 -1.2913  1.2355  0.6000
   36MOL   H33220002   5.316   2.028   5.893 -0.5247 -0.3472  0.7500
   36MOL   H33320003   5.466   2.125   5.913 -1.8019  1.1832 -4.0391
   36MOL   H33420004   5.660   2.032   6.063 -0.2689  0.6538  0.1851
   36MOL   H33520005   5.614   1.861   6.045  1.4788  0.6386 -0.6365
   36MOL   H33620006   5.722   1.915   6.266  0.8350  1.2960 -1.5000
   36MOL   H33720007   5.566   1.842   6.282  1.1565 -0.1956  0.6693
   36MOL   O33820008   5.480   1.933   5.838 -0.5383 -0.5052  0.2861
   36MOL   C33920009   5.536   1.994   5.721 -0.0538 -0.4233 -0.5970
   36MOL   C34020010   5.533   1.889   5.606 -0.2726  0.8169  0.2218
   36MOL   O34120011   5.571   1.956   5.479 -0.0749  0.4860  0.1213
   36MOL   C34220012   5.631   1.774   5.632  0.2810 -0.4409 -0.2268
   36MOL   C34320013   5.586   1.665   5.731  0.0212  0.7331 -0.3737
   36MOL   C34420014   5.690   1.545   5.733  0.8622 -0.3710 -0.2446
   36MOL   O34520015   5.645   1.444   5.824  0.0586 -0.6814 -0.2552
   36MOL   C34620016   5.825   1.591   5.773  0.4128 -0.1288 -0.0969
   36MOL   C34720017   5.929   1.482   5.776 -0.0277  0.0325  0.1979
   36MOL   C34820018   5.874   1.701   5.674  0.0135 -0.3098 -0.4058
   36MOL   C34920019   5.776   1.821   5.655  0.1855  0.4777 -0.3353
   36MOL   H35020020   5.632   2.037   5.746 -1.1995  0.5521  2.2584
   36MOL   H35120021   5.479   2.080   5.687 -1.0510 -1.1096 -0.7126
   36MOL   H35220022   5.439   1.836   5.591  0.0483  1.0041 -2.8422
   36MOL   H35320023   5.486   1.984   5.449 -0.4210 -1.5671 -0.8695
   36MOL   H35420024   5.639   1.720   5.538  1.2791  0.3203 -0.5859
   36MOL   H35520025   5.572   1.718   5.825 -1.3314  0.3945 -0.3758
   36MOL   H35620026   5.487   1.637   5.696  1.2660  1.1536 -4.5009
   36MOL   H35720027   5.689   1.502   5.633  2.0887 -1.2436  0.1137
   36MOL   H35820028   5.601   1.483   5.898 -0.4927 -3.4205  0.9365
   36MOL   H35920029   5.823   1.633   5.874  1.3059  0.5124 -0.3390
   36MOL   H36020030   5.898   1.412   5.855  0.8652  1.4630  1.8479
   36MOL   H36120031   5.942   1.428   5.682  2.4741  1.3614 -0.2520
   36MOL   H36220032   5.884   1.657   5.575  3.0697 -2.6157  0.8183
   36MOL   H36320033   5.973   1.742   5.693 -0.3240  0.5634 -0.5069
   36MOL   H36420034   5.813   1.881   5.571 -1.7552 -0.2534 -1.7547
   36MOL   H36520035   5.771   1.879   5.747  0.3865  0.5812 -0.3899
   36MOL   O36620036   6.053   1.542   5.824  0.2919 -0.3847  0.3939
   36MOL   C36720037   6.145   1.441   5.879  0.5974 -0.7399 -0.3908
   36MOL   C36820038   6.282   1.515   5.884  0.9398 -0.4742  0.2626
   36MOL   O36920039   6.269   1.617   5.978  0.5089  0.9234 -0.2351
   36MOL   C37020040   6.403   1.422   5.911  0.2359 -0.4724 -0.2337
   36MOL   C37120041   6.386   1.329   6.032 -0.1155  0.4466  0.9086
   36MOL   C37220042   6.496   1.225   6.037  0.2985 -0.1094 -0.4832
   36MOL   O37320043   6.475   1.129   6.144 -0.2183 -0.2470  0.3450
   36MOL   C37420044   6.633   1.285   6.050  0.2647 -0.2359 -0.2743
   36MOL   C37520045   6.753   1.182   6.050  0.2372 -0.3961 -0.2287
   36MOL   C37620046   6.657   1.402   5.944  0.4688 -0.4091  0.2364
   36MOL   C37720047   6.538   1.497   5.933  0.2343  0.1961  0.5646
   36MOL   H37820048   6.150   1.356   5.811  2.0542  0.6575 -2.0887
   36MOL   H37920049   6.112   1.401   5.975 -0.1475  0.0272 -0.3190
   36MOL   H38020050   6.300   1.552   5.783 -0.5724  0.0239  0.1689
   36MOL   H38120051   6.184   1.650   5.952 -0.2643 -0.0464  0.9950
   36MOL   H38220052   6.419   1.367   5.818  1.9535  1.2639 -0.9983
   36MOL   H38320053   6.383   1.392   6.121 -0.4830  0.3194  0.9887
   36MOL   H38420054   6.290   1.277   6.025  0.0276  0.5245 -2.1867
   36MOL   H38520055   6.488   1.165   5.946  0.4899  0.1060 -0.6410
   36MOL   H38620056   6.495   1.046   6.104  0.4748 -1.1723  2.5699
   36MOL   H38720057   6.638   1.332   6.148 -0.8737  0.2899 -0.4615
   36MOL   H38820058   6.749   1.119   6.139  0.3196  0.1681  0.1722
   36MOL   H38920059   6.748   1.109   5.968 -0.6883 -1.6693  0.9399
   36MOL   H39020060   6.684   1.349   5.852 -1.4966 -1.1814  0.0663
   36MOL   H39120061   6.748   1.458   5.962  1.3675 -1.9516  0.5896
   36MOL   H39220062   6.565   1.567   5.853  0.6240  0.5771  1.0179
   36MOL   H39320063   6.535   1.566   6.018 -1.3742  1.4406 -0.4818
   36MOL   O39420064   6.868   1.263   6.053 -0.0663  0.0310 -0.7067
   36MOL   C39520065   6.988   1.202   6.032 -0.6874  0.0254 -0.0116
   36MOL   C39620066   7.094   1.319   6.035 -0.5048  0.1213 -0.2425
   36MOL   O39720067   7.096   1.339   6.177 -0.1365 -0.0406  0.7040
   36MOL   C39820068   7.230   1.263   5.989 -0.5699 -0.0588  0.5027
   36MOL   C39920069   7.357   1.321   6.056 -0.4800 -0.2605 -1.0412
   36MOL   C40020070   7.481   1.257   5.992 -0.1825 -0.5191 -0.4786
   36MOL   O40120071   7.597   1.315   6.055  0.2685 -0.3926 -0.4939
   36MOL   C40220072   7.482   1.276   5.842  0.0166  0.1783 -0.3773
   36MOL   C40320073   7.616   1.244   5.770 -0.1305  0.8129 -0.6481
   36MOL   C40420074   7.361   1.211   5.775  0.1641 -0.0336 -0.2590
   36MOL   C40520075   7.235   1.272   5.837  0.8377 -0.0508  0.2847
   36MOL   H40620076   6.987   1.159   5.932 -1.8082 -1.1083  0.4565
   36MOL   H40720077   6.993   1.119   6.103  3.0490  0.5838  0.4717
   36MOL   H40820078   7.070   1.406   5.974 -2.1742  1.1210  1.8084
   36MOL   H40920079   7.015   1.373   6.212 -0.2355  0.2985  0.1465
   36MOL   H41020080   7.223   1.161   6.028  0.8577  0.3568  1.9116
   36MOL   H41120081   7.370   1.429   6.046 -1.0508 -0.2336 -1.5833
   36MOL   H41220082   7.340   1.296   6.160 -0.0976 -3.9893 -1.8028
   36MOL   H41320083   7.485   1.153   6.023 -1.3762 -0.7057 -0.9067
   36MOL   H41420084   7.606   1.402   6.019 -2.0079  0.2888  0.4761
   36MOL   H41520085   7.479   1.383   5.820 -0.4579  0.7315  2.2236
   36MOL   H41620086   0.063   1.258   5.846  0.5645 -0.4574 -1.0929
   36MOL   H41720087   0.001   1.136   5.760  2.9895  0.9700  1.5675
   36MOL   H41820088   7.372   1.103   5.790  1.9646  0.1985  0.1110
   36MOL   H41920089   7.363   1.227   5.667 -0.5010  1.5192 -0.0537
   36MOL   H42020090   7.157   1.211   5.790 -0.5030  0.6510  1.5730
   36MOL   H42120091   7.220   1.374   5.804 -0.2979 -0.4702 -0.5160
   36MOL   O42220092   0.019   1.328   5.660  0.1832 -0.5363  0.2006
   36MOL   C42320093   0.117   1.265   5.577 -0.0158  0.1627 -0.0754
   36MOL   C42420094   0.167   1.382   5.481  0.3679 -0.6292 -0.4620
   36MOL   O42520095   0.293   1.443   5.539  0.1866  0.0970  0.7276
   36MOL   C42620096   0.198   1.326   5.340 -0.1060  0.2147 -0.0899
   36MOL   C42720097   0.315   1.224   5.345  0.3106  0.0031  0.1835
   36MOL   C42820098   0.342   1.167   5.204  0.3721  0.2825  0.1029
   36MOL   O42920099   0.463   1.094   5.228  0.0362  0.1398  1.2496
   36MOL   C43020100   0.365   1.272   5.099  1.3021 -0.3695  1.0317
   36MOL   C43120101   0.390   1.212   4.967 -0.1637 -0.5339  0.4364
   36MOL   C43220102   0.249   1.363   5.101  0.2352 -0.1987 -0.1728
   36MOL   C43320103   0.231   1.434   5.237 -0.1315  0.5760  0.6074
   36MOL   H43420104   0.064   1.188   5.521  1.8287 -1.2194  0.0314
   36MOL   H43520105   0.201   1.221   5.631 -0.9010 -0.4007  0.8567
   36MOL   H43620106   0.095   1.464   5.476  0.1252 -0.7642  0.7010
   36MOL   H43720107   0.300   1.433   5.633 -3.1865  0.5313  1.0963
   36MOL   H43820108   0.114   1.269   5.300  0.8422 -1.7060  0.6030
   36MOL   H43920109   0.406   1.265   5.389 -1.1795  2.7678  0.7448
   36MOL   H44020110   0.284   1.138   5.404  0.4921 -0.8209 -0.9001
   36MOL   H44120111   0.258   1.107   5.169 -1.3241  3.2737 -1.1091
   36MOL   H44220112   0.467   1.053   5.313  1.0720 -3.0449 -0.2735
   36MOL   H44320113   0.455   1.324   5.132 -0.1394  2.9691 -0.0080
   36MOL   H44420114   0.470   1.138   4.959 -0.0889 -0.5156  0.9898
   36MOL   H44520115   0.306   1.161   4.921  0.6894 -1.5747  0.0061
   36MOL   H44620116   0.150   1.321   5.082 -0.2124 -0.5882  2.7237
   36MOL   H44720117   0.262   1.434   5.020  0.6903 -0.3900 -0.2652
   36MOL   H44820118   0.152   1.509   5.239 -1.2595 -0.4989 -1.5941
   36MOL   H44920119   0.321   1.487   5.268 -0.2244  0.8678  0.3816
   36MOL   O45020120   0.428   1.322   4.873  0.5435 -0.2330  0.0518
   36MOL   C45120121   0.416   1.279   4.739  0.1401 -0.1984 -0.6921
   36MOL   C45220122   0.464   1.380   4.634 -0.0227  0.2905  0.2191
   36MOL   O45320123   0.595   1.422   4.669  0.0291 -0.3734  0.0022
   36MOL   C45420124   0.448   1.335   4.493  0.2711  0.0912 -0.8763
   36MOL   C45520125   0.538   1.404   4.388  0.2183 -0.5373 -0.2898
   36MOL   C45620126   0.524   1.342   4.250  0.3518  0.0650  0.1045
   36MOL   O45720127   0.615   1.426   4.179  0.3691 -0.1991  0.7467
   36MOL   C45820128   0.381   1.371   4.198 -0.2875  0.0577 -0.4403
   36MOL   C45920129   0.347   1.314   4.055 -0.0969 -0.0569 -0.2734
   36MOL   C46020130   0.283   1.304   4.297  0.3622 -0.0427  0.5484
   36MOL   C46120131   0.300   1.348   4.442  0.2613  1.2824  0.3280
   36MOL   H46220132   0.310   1.272   4.714  0.1765 -0.5445 -0.7535
   36MOL   H46320133   0.461   1.181   4.722 -0.5985 -0.5174 -0.7914
   36MOL   H46420134   0.414   1.474   4.659  0.3950  1.5550 -3.4054
   36MOL   H46520135   0.585   1.439   4.761 -1.3572 -0.8485 -0.0424
   36MOL   H46620136   0.471   1.229   4.495  0.3908  0.0933 -1.9628
   36MOL   H46720137   0.526   1.512   4.396 -0.0435 -0.5080 -1.1275
   36MOL   H46820138   0.638   1.386   4.430  0.1601  0.7686  0.4349
   36MOL   H46920139   0.544   1.235   4.244  1.9748  0.3804 -0.2261
   36MOL   H47020140   0.657   1.483   4.241 -2.1174  0.0698  2.2469
   36MOL   H47120141   0.360   1.478   4.205  2.1285  0.4452  1.4859
   36MOL   H47220142   0.249   1.352   4.027  0.2583  1.1429  0.0903
   36MOL   H47320143   0.415   1.362   3.984 -0.3845 -0.7261 -1.0085
   36MOL   H47420144   0.311   1.199   4.297 -0.5161 -0.2824  0.7758
   36MOL   H47520145   0.178   1.316   4.268  0.0873  0.4034  1.7053
   36MOL   H47620146   0.231   1.287   4.499  4.1390 -2.4989  1.2019
   36MOL   H47720147   0.268   1.452   4.451  0.9568  1.4522  0.8865
   36MOL   O47820148   0.352   1.174   4.048 -0.8003  0.7241  0.4292
   36MOL   C47920149   0.264   1.128   3.942  0.4854  0.0350 -0.0112
   36MOL   C48020150   0.302   0.981   3.914  0.3147 -0.2913  0.4483
   36MOL   O48120151   0.187   0.923   3.852  0.6996  0.5222  0.1126
   36MOL   C48220152   0.416   0.973   3.817 -0.2886  0.0198 -0.1377
   36MOL   C48320153   0.460   0.827   3.778 -0.1511 -0.2055  0.4541
   36MOL   C48420154   0.562   0.838   3.661  0.3017  0.2009 -0.3942
   36MOL   O48520155   0.593   0.710   3.619 -0.2378  0.0709 -0.1383
   36MOL   C48620156   0.693   0.909   3.698  0.0870  0.0041  0.7490
   36MOL   C48720157   0.786   0.911   3.576  0.2905  0.1098  0.3105
   36MOL   C48820158   0.663   1.044   3.756  0.6355  0.4307  0.0745
   36MOL   C48920159   0.552   1.034   3.866 -0.1864 -0.2301 -0.1008
   36MOL   H49020160   0.277   1.188   3.852 -0.9289 -1.8564 -1.4954
   36MOL   H49120161   0.162   1.128   3.980 -1.0310  2.2612 -3.8040
   36MOL   H49220162   0.316   0.928   4.009 -3.8202 -0.7269  0.9194
   36MOL   H49320163   0.119   0.936   3.916  0.1128 -2.1751  0.1035
   36MOL   H49420164   0.388   1.017   3.722 -1.9522 -2.2801 -0.7388
   36MOL   H49520165   0.499   0.784   3.871 -0.4657 -0.1443  0.6149
   36MOL   H49620166   0.374   0.765   3.753 -0.3956  0.6326 -0.7950
   36MOL   H49720167   0.514   0.893   3.579  0.1881 -0.9763 -1.1357
   36MOL   H49820168   0.675   0.688   3.661  0.2828 -2.6027 -2.4354
   36MOL   H49920169   0.742   0.844   3.771 -1.3161 -0.4061  1.3418
   36MOL   H50020170   0.817   0.810   3.550  0.8851  0.1994  0.6533
   36MOL   H50120171   0.738   0.961   3.491 -0.2857 -0.6447  0.1898
   36MOL   H50220172   0.634   1.120   3.683 -0.1475 -0.4049 -0.4968
   36MOL   H50320173   0.755   1.077   3.804 -0.1530 -0.8769  2.5709
   36MOL   H50420174   0.533   1.139   3.888 -2.2757 -0.8459  1.2747
   36MOL   H50520175   0.595   0.991   3.957  1.1018 -0.1183 -0.6533
   36MOL   O50620176   0.894   0.994   3.619  1.0396  0.3452 -0.4633
   36MOL   C50720177   1.001   0.993   3.533  0.1572 -0.1964 -0.0643
   36MOL   C50820178   1.081   1.123   3.564  0.7484  0.2041  0.1698
   36MOL   O50920179   1.142   1.114   3.691 -0.0972  0.2720  0.0181
   36MOL   C51020180   1.176   1.172   3.461 -0.2339  0.6696 -0.3237
   36MOL   C51120181   1.302   1.083   3.451  0.8486  0.0472 -0.6118
   36MOL   C51220182   1.399   1.121   3.340  0.4119 -0.0717  0.0037
   36MOL   O51320183   1.508   1.033   3.347 -0.4743 -0.1557  0.0992
   36MOL   C51420184   1.448   1.267   3.361  0.1538  0.0494 -0.1845
   36MOL   C51520185   1.540   1.308   3.240  0.5084  0.2608  0.8177
   36MOL   C51620186   1.328   1.360   3.374  0.3276  0.0761  0.1863
   36MOL   C51720187   1.225   1.315   3.480 -0.5923  0.0046  0.1200
   36MOL   H51820188   0.973   0.998   3.428 -1.5413  1.0403  0.4249
   36MOL   H51920189   1.064   0.905   3.546 -0.0898 -0.0843  2.0724
   36MOL   H52020190   1.012   1.206   3.579  0.4370 -0.3345  1.8152
   36MOL   H52120191   1.175   1.029   3.716  1.4197  1.1369  1.0076
   36MOL   H52220192   1.124   1.168   3.366 -1.1781 -1.1984  0.2437
   36MOL   H52320193   1.355   1.079   3.547  2.1837  1.4000 -1.2776
   36MOL   H52420194   1.276   0.980   3.426  0.9121  0.0395 -0.6455
   36MOL   H52520195   1.338   1.108   3.251 -0.5960 -1.8616  0.9183
   36MOL   H52620196   1.472   0.946   3.346  0.4905 -0.5534  0.0648
   36MOL   H52720197   1.500   1.285   3.455 -0.6516  0.7810  0.1236
   36MOL   H52820198   1.602   1.229   3.198 -0.8439  0.0924 -0.9477
   36MOL   H52920199   1.478   1.334   3.154  2.0353 -2.0795 -1.0691
   36MOL   H53020200   1.294   1.357   3.270  1.4741 -3.4977 -0.1446
   36MOL   H53120201   1.373   1.457   3.395  0.4262 -0.3253  1.8911
   36MOL   H53220202   1.143   1.386   3.493 -0.6374 -0.4780  2.5856
   36MOL   H53320203   1.278   1.315   3.575  1.1339 -0.8026 -0.8028
   36MOL   O53420204   1.611   1.433   3.258 -0.0499 -0.6286 -0.1882
   36MOL   C53520205   1.721   1.420   3.352  0.3126 -0.1432  0.8468
   36MOL   C53620206   1.822   1.543   3.328 -0.8426  0.4993 -0.0272
   36MOL   O53720207   1.765   1.662   3.374 -0.3843 -0.0512 -0.3861
   36MOL   C53820208   1.960   1.524   3.398  0.5950  0.3109 -0.3530
   36MOL   C53920209   1.946   1.536   3.556  0.1513  0.1063 -0.2655
   36MOL   C54020210   2.085   1.544   3.626  0.9910  0.2442 -0.2021
   36MOL   O54120211   2.059   1.570   3.757  0.4864 -0.7078  0.5293
   36MOL   C54220212   2.177   1.651   3.560  0.1376  0.1720 -0.2518
   36MOL   C54320213   2.321   1.649   3.623 -0.1004 -0.1345  0.8504
   36MOL   C54420214   2.190   1.630   3.407 -0.3319  0.4702 -0.1739
   36MOL   C54520215   2.058   1.639   3.344  0.2092  0.2514  0.2505
   36MOL   H54620216   1.785   1.334   3.336  0.0299  0.0114 -1.2844
   36MOL   H54720217   1.688   1.424   3.456 -1.1611 -2.1758  0.4859
   36MOL   H54820218   1.842   1.550   3.221  1.4987 -0.3283  0.3151
   36MOL   H54920219   1.702   1.680   3.306 -1.2592 -0.3869  0.3229
   36MOL   H55020220   1.994   1.425   3.368 -1.1441 -0.2776 -0.4457
   36MOL   H55120221   1.904   1.630   3.591  1.0150  0.9885 -1.5429
   36MOL   H55220222   1.884   1.452   3.587  2.8106 -2.1231 -0.7464
   36MOL   H55320223   2.131   1.445   3.626  1.9219  0.6718  0.9974
   36MOL   H55420224   2.138   1.600   3.800  1.3575 -1.4246 -0.5629
   36MOL   H55520225   2.127   1.748   3.569  1.7304  0.9855 -0.0883
   36MOL   H55620226   2.326   1.694   3.722 -0.9762 -0.6475  1.1420
   36MOL   H55720227   2.376   1.555   3.625  1.1089  0.5877  1.8537
   36MOL   H55820228   2.232   1.535   3.373 -0.3088  0.2420  0.4808
   36MOL   H55920229   2.259   1.693   3.352 -0.3121  1.0022  0.4657
   36MOL   H56020230   2.075   1.622   3.238 -1.8644 -1.4584  0.1623
   36MOL   H56120231   2.014   1.737   3.367 -1.0683  0.0867 -1.4243
   36MOL   H56220232   2.388   1.710   3.562 -0.6830  0.6754  1.0207
   37MOL     O120233   6.327   2.251   7.434 -0.6224  0.0080  0.3184
   37MOL     C220234   6.303   2.385   7.394 -0.4028 -0.0026  0.2492
   37MOL     C320235   6.290   2.476   7.518 -0.0197 -0.2910  0.5826
   37MOL     O420236   6.346   2.399   7.624  0.1208 -0.4684  0.1435
   37MOL     C520237   6.370   2.616   7.512 -0.1018 -0.0732 -0.0266
   37MOL     C620238   6.369   2.700   0.013  0.3345 -0.1467 -0.2329
   37MOL     C720239   6.449   2.836   0.004 -0.3780 -0.1149  0.1076
   37MOL     O820240   6.431   2.899   0.126  0.2225  0.1391 -0.1121
   37MOL     C920241   6.396   2.914   7.515 -0.1441  0.1815 -0.2001
   37MOL    C1020242   6.468   3.051   7.505  0.5539 -0.5486  0.0552
   37MOL    C1120243   6.406   2.836   7.383  0.2022  0.0780 -0.3891
   37MOL    C1220244   6.332   2.707   7.394 -0.6136  0.4348 -0.4367
   37MOL    H1320245   6.220   2.400   7.325  0.9613  0.7556 -1.2730
   37MOL    H1420246   6.389   2.412   7.332 -0.3794 -1.0696 -0.1989
   37MOL    H1520247   6.185   2.495   7.539 -0.2765 -1.4620  0.4247
   37MOL    H1620248   6.367   2.320   7.578 -1.6238 -0.9647  0.1548
   37MOL    H1720249   6.476   2.598   7.489 -0.2215  1.6997 -2.0764
   37MOL    H1820250   6.264   2.717   0.035  0.7271  1.1439  0.6466
   37MOL    H1920251   6.419   2.637   0.086  0.0411  1.0200  1.0040
   37MOL    H2020252   6.554   2.812   7.616 -0.2932 -1.1308  1.9105
   37MOL    H2120253   6.422   2.992   0.114  1.0251  0.5285  2.0245
   37MOL    H2220254   6.289   2.927   7.536 -0.5827 -2.2051 -0.7937
   37MOL    H2320255   6.576   3.038   7.493  0.3531  0.1111 -2.9285
   37MOL    H2420256   6.439   3.095   7.410 -0.2759 -1.6809 -0.2172
   37MOL    H2520257   6.513   2.819   7.370  0.2305 -1.1657  1.2490
   37MOL    H2620258   6.372   2.891   7.295  2.8600 -1.2779 -2.3424
   37MOL    H2720259   6.342   2.652   7.301 -1.9948 -1.8140  0.7056
   37MOL    H2820260   6.228   2.738   7.402 -0.7880 -0.1025 -0.6141
   37MOL    H2920261   6.313   2.193   7.361 -2.2537 -0.9312  1.3294
   37MOL    O3020262   6.444   3.141   7.614  0.0374 -0.1076  0.1279
   37MOL    C3120263   6.338   3.233   7.586 -0.0360 -0.2283 -0.3945
   37MOL    C3220264   6.395   3.365   7.529  0.1692  1.2855  0.3924
   37MOL    O3320265   6.427   3.335   7.389  0.1084 -0.2110 -0.1318
   37MOL    C3420266   6.300   3.489   7.532 -0.0298  0.0101  0.2534
   37MOL    C3520267   6.167   3.468   7.448 -0.3594 -0.0339 -0.4836
   37MOL    C3620268   6.089   3.599   7.453 -0.0311  0.8484 -0.3515
   37MOL    O3720269   5.983   3.588   7.356  0.2939 -0.6224 -0.2540
   37MOL    C3820270   6.168   3.724   7.413 -0.1831  0.5577  0.1160
   37MOL    C3920271   6.081   3.852   7.434  0.6300  0.3041  0.2680
   37MOL    C4020272   6.301   3.737   7.484  0.3058 -0.4325 -0.1187
   37MOL    C4120273   6.381   3.605   7.481 -0.0076  0.1635  0.7853
   37MOL    H4220274   6.284   3.257   0.049 -0.1680 -0.8319 -0.3104
   37MOL    H4320275   6.274   3.170   7.525  1.9827 -2.6220 -0.1312
   37MOL    H4420276   6.482   3.401   7.584  0.2635 -1.6009  2.2545
   37MOL    H4520277   6.476   3.408   7.355 -1.4131  1.1572  0.5667
   37MOL    H4620278   6.275   3.505   0.007  1.0326 -1.5208  0.7711
   37MOL    H4720279   6.189   3.454   7.342  2.7734 -1.0096  0.2400
   37MOL    H4820280   6.109   3.384   7.485 -0.0655 -0.3130 -0.6496
   37MOL    H4920281   6.038   3.618   7.547  0.1981 -1.3924  0.2576
   37MOL    H5020282   5.902   3.588   7.405  0.3510  1.3368 -0.0881
   37MOL    H5120283   6.175   3.717   7.304 -1.6207  0.7186  0.0047
   37MOL    H5220284   5.984   3.841   7.386  0.1305  1.0839  1.0708
   37MOL    H5320285   6.056   3.875   7.538 -0.7283 -0.7920  0.2011
   37MOL    H5420286   6.280   3.756   7.589 -3.2773 -1.4399 -0.5727
   37MOL    H5520287   6.361   3.818   7.444  1.1244 -0.2815  1.3597
   37MOL    H5620288   6.476   3.617   7.532  0.5587  0.8108 -0.4162
   37MOL    H5720289   6.406   3.576   7.379 -1.2537  1.9625 -0.0676
   37MOL    O5820290   6.140   3.963   7.366  0.4748  0.1673 -0.1895
   37MOL    C5920291   6.213   4.048   7.447 -0.0705 -0.0136 -0.2219
   37MOL    C6020292   6.118   4.161   7.494  0.0468 -0.1803 -0.5883
   37MOL    O6120293   6.075   4.129   7.624 -0.5826 -0.1932 -0.3636
   37MOL    C6220294   6.179   4.302   7.483  0.2465 -0.0612  0.2737
   37MOL    C6320295   6.320   4.315   7.554  0.2735 -0.0300 -0.7777
   37MOL    C6420296   6.378   4.453   7.521  0.5550  0.3160 -0.6318
   37MOL    O6520297   6.499   4.467   7.587  0.3407  0.5481 -0.2934
   37MOL    C6620298   6.283   4.570   7.571  0.9062  0.2675  0.4940
   37MOL    C6720299   6.353   4.707   7.539  0.2340 -0.4159 -0.8728
   37MOL    C6820300   6.141   4.555   7.513  0.0418 -0.5386  0.7559
   37MOL    C6920301   6.082   4.411   7.529 -0.1813  0.0225  0.0527
   37MOL    H7020302   6.300   4.073   7.387 -0.0499  0.6887  0.0885
   37MOL    H7120303   6.256   3.991   7.530  0.0937  0.5655  0.0943
   37MOL    H7220304   6.028   4.162   7.431 -0.8209  0.4629  0.6272
   37MOL    H7320305   6.004   4.066   7.618  1.2797 -2.3512 -0.3793
   37MOL    H7420306   6.193   4.326   7.377  2.5830 -1.1677  0.3041
   37MOL    H7520307   6.326   4.313   0.033  1.3964  1.2116 -0.8085
   37MOL    H7620308   6.382   4.228   7.533 -1.6931 -1.5529 -0.3953
   37MOL    H7720309   6.393   4.455   7.413  1.7090 -2.4675 -0.5730
   37MOL    H7820310   6.564   4.494   7.524  2.0066  1.0267  1.5756
   37MOL    H7920311   6.280   4.562   0.050 -0.2902 -0.1366  0.4331
   37MOL    H8020312   6.459   4.710   7.564  0.0778  2.8749 -0.3694
   37MOL    H8120313   6.349   4.734   7.434 -0.2112  0.7999 -0.5644
   37MOL    H8220314   6.159   4.574   7.407  1.2032  0.4441  1.1139
   37MOL    H8320315   6.069   4.629   7.550 -0.0189  0.5405 -1.4021
   37MOL    H8420316   5.992   4.397   7.469  0.2335 -0.2799 -0.5166
   37MOL    H8520317   6.059   4.389   0.003 -1.4447  0.7743 -0.0587
   37MOL    O8620318   6.287   4.805   7.619 -0.3653 -0.0332 -0.6869
   37MOL    C8720319   6.345   4.934   7.619 -0.8503 -1.0071 -0.5529
   37MOL    C8820320   6.249   5.030   0.071 -0.1987 -0.0882 -0.4910
   37MOL    O8920321   6.229   4.957   0.192  0.2084 -0.0993 -0.1167
   37MOL    C9020322   6.321   5.165   0.101 -0.2927 -0.4408 -0.0087
   37MOL    C9120323   6.233   5.257   0.190 -0.4415 -0.1562 -0.2538
   37MOL    C9220324   6.311   5.389   0.225 -0.5551  0.7725 -0.6436
   37MOL    O9320325   6.217   5.470   0.295 -0.2010  0.2138  0.9130
   37MOL    C9420326   6.365   5.457   0.107 -0.1395 -0.1999 -0.7284
   37MOL    C9520327   6.460   5.567   0.149  0.1559  0.1924  0.1526
   37MOL    C9620328   6.433   5.363   0.010  0.0541 -0.3425 -0.7096
   37MOL    C9720329   6.350   5.242   7.595 -0.8307 -0.1199 -0.3897
   37MOL    H9820330   6.363   4.964   7.515 -0.9903  2.0258  0.2481
   37MOL    H9920331   6.442   4.932   0.039 -1.3178  1.1728  0.4873
   37MOL   H10020332   6.157   5.037   0.015 -1.3269  1.0375  1.4423
   37MOL   H10120333   6.212   4.867   0.171 -2.4543  0.2016  0.6577
   37MOL   H10220334   6.413   5.147   0.156 -0.4456 -0.9887  0.0677
   37MOL   H10320335   6.144   5.295   0.138 -0.7544  1.0818  1.1418
   37MOL   H10420336   6.198   5.210   0.282 -0.8135  1.0639  0.2442
   37MOL   H10520337   6.394   5.377   0.294  0.1060 -0.2702 -1.6007
   37MOL   H10620338   6.256   5.493   0.378  0.7345 -2.2323  1.2084
   37MOL   H10720339   6.277   5.497   0.055  0.2638  1.8734  0.1168
   37MOL   H10820340   6.426   5.635   0.227 -0.5857  1.3231 -1.1407
   37MOL   H10920341   6.553   5.523   0.185  1.3962  2.5960 -0.0417
   37MOL   H11020342   6.529   5.332   0.050  0.5872 -0.0716 -1.7660
   37MOL   H11120343   6.472   5.411   7.550  0.1686 -0.0834 -0.5193
   37MOL   H11220344   6.411   5.184   7.526  1.1355 -0.7705  1.8246
   37MOL   H11320345   6.256   5.252   7.540 -0.4071 -0.9717 -1.2863
   37MOL   O11420346   6.472   5.655   0.035  0.4050 -0.0469 -0.1158
   37MOL   C11520347   6.564   5.765   0.045  0.0691 -0.0812  0.1767
   37MOL   C11620348   6.518   5.876   7.575  0.0763  0.0085  0.1695
   37MOL   O11720349   6.532   6.000   0.014  0.2525  0.2597 -0.3925
   37MOL   C11820350   6.590   5.889   7.434 -0.5245  0.0612 -0.5118
   37MOL   C11920351   6.524   5.988   7.327  0.3127  0.0709  0.8212
   37MOL   C12020352   6.597   5.999   7.189 -0.0840 -0.1523 -0.3662
   37MOL   O12120353   6.523   6.071   7.090  0.1311 -0.1411 -0.1652
   37MOL   C12220354   6.636   5.855   7.137  0.2626  0.3916  0.0996
   37MOL   C12320355   6.728   5.867   7.015 -0.2653  0.0408  0.2562
   37MOL   C12420356   6.689   5.753   7.238  0.0466 -0.1879  0.1215
   37MOL   C12520357   6.601   5.753   7.358  0.5296  0.8448 -0.1962
   37MOL   H12620358   6.665   5.722   0.039 -0.4637 -1.8603  2.7522
   37MOL   H12720359   6.549   5.810   0.143 -0.4030 -0.6037  0.3448
   37MOL   H12820360   6.412   5.866   7.554  0.2011 -1.8440  0.3674
   37MOL   H12920361   6.449   6.044   0.020 -1.5316 -2.7200 -2.4298
   37MOL   H13020362   6.688   5.933   7.450 -1.4898  1.2070  2.7854
   37MOL   H13120363   6.422   5.949   7.327  1.7547 -3.9871 -1.2300
   37MOL   H13220364   6.517   6.086   7.374 -1.9456  0.1204  0.4100
   37MOL   H13320365   6.691   6.050   7.211  0.0979 -1.8923  3.2617
   37MOL   H13420366   6.502   6.159   7.118 -0.9636 -0.2207 -0.6815
   37MOL   H13520367   6.542   5.816   7.099  0.5099 -1.9478  1.7498
   37MOL   H13620368   6.673   5.920   6.937  1.8456 -0.3115 -1.5080
   37MOL   H13720369   6.802   5.942   7.043 -1.4319  2.2112 -2.1913
   37MOL   H13820370   6.789   5.785   7.267 -0.4312  2.2189 -0.7772
   37MOL   H13920371   6.691   5.657   7.187  0.6141 -0.4942  0.7113
   37MOL   H14020372   6.636   5.665   7.412 -0.3626 -1.3243 -3.0169
   37MOL   H14120373   6.505   5.719   7.319  0.5413  1.2120 -0.5477
   37MOL   O14220374   6.782   5.740   6.979  1.0004 -0.2744 -0.2250
   37MOL   C14320375   6.871   5.757   6.870 -0.4577  0.6348 -0.1180
   37MOL   C14420376   7.013   5.780   6.928  0.5361 -0.0039  1.0670
   37MOL   O14520377   7.044   5.670   7.009 -0.4846 -0.7844 -0.3741
   37MOL   C14620378   7.116   5.794   6.822  0.0326  0.1639  0.5137
   37MOL   C14720379   7.253   5.730   6.848 -0.2473  0.3793 -0.8923
   37MOL   C14820380   7.338   5.737   6.722 -0.1779  0.3667  0.6198
   37MOL   O14920381   7.456   5.665   6.737  0.0793 -0.0275 -0.3966
   37MOL   C15020382   7.369   5.885   6.697  0.1453  0.6766  0.1240
   37MOL   C15120383   7.473   5.903   6.580  0.2236  0.2700 -0.0698
   37MOL   C15220384   7.245   5.964   6.677  0.4807 -0.2581  0.5189
   37MOL   C15320385   7.145   5.948   6.799 -0.1686  0.4152 -0.3668
   37MOL   H15420386   6.849   5.833   6.795 -1.0746  0.2854 -0.2929
   37MOL   H15520387   6.857   5.661   6.819 -0.7639  1.2533 -1.2296
   37MOL   H15620388   7.018   5.865   6.996 -0.2629 -0.2618  1.4434
   37MOL   H15720389   6.959   5.643   7.040 -0.5727 -0.1378 -0.0471
   37MOL   H15820390   7.069   5.757   6.731  1.7463  1.4857 -0.9445
   37MOL   H15920391   7.288   5.782   6.938 -0.5688  1.2798 -1.2818
   37MOL   H16020392   7.244   5.629   6.887  0.7204  0.3665 -0.6716
   37MOL   H16120393   7.283   5.689   6.641  0.4057 -0.5463  0.7496
   37MOL   H16220394   7.432   5.575   6.721 -1.5678 -0.0702  1.9412
   37MOL   H16320395   7.419   5.923   6.786  1.8680 -2.7182  0.7237
   37MOL   H16420396   7.571   5.860   6.599  0.0381  0.3925  1.1929
   37MOL   H16520397   7.438   5.848   6.492  1.3177  1.5085 -1.2916
   37MOL   H16620398   7.197   5.935   6.584 -1.3381  2.5899  0.5080
   37MOL   H16720399   7.266   6.069   6.655 -0.2240  0.3169  2.4274
   37MOL   H16820400   7.046   5.989   6.776 -0.5245 -0.1740  0.1156
   37MOL   H16920401   7.176   5.995   6.892  0.8148 -1.2734  0.1676
   37MOL   O17020402   7.492   6.039   6.547 -0.0755 -0.6213  0.1797
   37MOL   C17120403   7.592   6.062   6.455  0.2509 -0.2325 -0.0199
   37MOL   C17220404   7.583   6.211   6.405  0.3350  0.2114 -0.6964
   37MOL   O17320405   0.043   6.225   6.296  0.0628 -0.2179 -0.0271
   37MOL   C17420406   7.450   6.260   6.352  0.4982  0.4361 -0.4037
   37MOL   C17520407   7.370   6.168   6.250 -0.2399  0.5283  0.3246
   37MOL   C17620408   7.228   6.220   6.236  0.0761  0.7685  0.3188
   37MOL   O17720409   7.171   6.135   6.133  0.0062  0.2536  0.2222
   37MOL   C17820410   7.221   6.370   6.193  0.0884  0.0025 -0.2528
   37MOL   C17920411   7.074   6.430   6.195 -0.2629 -0.1835  0.6053
   37MOL   C18020412   7.313   6.454   6.293  0.3660 -0.7585  0.4801
   37MOL   C18120413   7.458   6.404   6.317  0.0748 -0.8962  0.0692
   37MOL   H18220414   7.598   5.988   6.375 -0.5965 -1.6469  1.2140
   37MOL   H18320415   0.059   6.055   6.504 -0.1945  1.9110  1.2219
   37MOL   H18420416   7.619   6.272   6.488 -0.4415  0.0251 -0.2098
   37MOL   H18520417   0.087   6.309   6.293 -0.6530  0.1562 -0.1732
   37MOL   H18620418   7.385   6.255   6.440 -0.5210  1.8852 -1.0546
   37MOL   H18720419   7.431   6.148   6.163  1.3631 -0.4632  1.6671
   37MOL   H18820420   7.368   6.065   6.286  1.8947  0.3660  0.0295
   37MOL   H18920421   7.175   6.198   6.329  0.9277  1.6719  1.0233
   37MOL   H19020422   7.146   6.057   6.180 -0.9188 -0.6241 -1.6323
   37MOL   H19120423   7.264   6.395   6.097 -0.3923 -1.1203 -0.7699
   37MOL   H19220424   7.024   6.375   6.114 -0.3496  1.8788 -0.7594
   37MOL   H19320425   7.008   6.411   6.280 -0.9649 -0.3079  0.0448
   37MOL   H19420426   7.279   6.451   6.396  2.6544 -2.3178  1.2489
   37MOL   H19520427   7.316   6.558   6.261  2.5421 -0.8751  0.1836
   37MOL   H19620428   7.508   6.464   6.393  2.3311 -0.3570 -1.7929
   37MOL   H19720429   7.508   6.412   6.221 -2.2046  1.4901 -0.9587
   37MOL   O19820430   7.082   6.562   6.138 -0.2458 -0.0570  0.0416
   37MOL   C19920431   6.971   6.650   6.177  0.1379 -0.2865 -0.7732
   37MOL   C20020432   6.840   6.611   6.100  0.2381 -0.3074 -0.5753
   37MOL   O20120433   6.763   6.518   6.173  0.0284  0.4394 -0.4662
   37MOL   C20220434   6.752   6.724   6.042 -0.3220  0.0595  0.0796
   37MOL   C20320435   6.825   6.797   5.929 -0.2924 -0.3218  0.3189
   37MOL   C20420436   6.727   6.894   5.863 -0.1356  0.5109  0.2260
   37MOL   O20520437   6.784   6.952   5.747  0.0927  0.5375 -0.9146
   37MOL   C20620438   6.673   7.004   5.968 -0.3013  0.1512  0.0731
   37MOL   C20720439   6.548   7.078   5.906 -0.3172 -0.1443 -0.0287
   37MOL   C20820440   6.624   6.944   6.101 -0.0839  0.6798 -0.6356
   37MOL   C20920441   6.717   6.830   6.150 -0.1852  0.3296  0.3876
   37MOL   H21020442   7.000   6.751   6.147 -2.5947  0.9315  0.4963
   37MOL   H21120443   6.951   6.647   6.284  0.7453  0.9690 -0.6059
   37MOL   H21220444   6.877   6.550   6.018  0.1884 -0.7175 -0.2942
   37MOL   H21320445   6.730   6.453   6.113  4.5672 -0.5756 -2.0685
   37MOL   H21420446   6.666   6.673   5.998  0.0293  1.5427 -2.4176
   37MOL   H21520447   6.901   6.863   5.970 -0.9606  2.3724 -2.6178
   37MOL   H21620448   6.861   6.729   5.851 -1.1721  2.6557 -2.8121
   37MOL   H21720449   6.635   6.842   5.835  0.8942 -1.0961 -0.1853
   37MOL   H21820450   6.827   6.880   5.704  1.3309 -0.2364  1.5653
   37MOL   H21920451   6.756   7.070   5.994 -2.7315  2.6004  1.9460
   37MOL   H22020452   6.584   7.127   5.816  1.7425  0.4610  1.0905
   37MOL   H22120453   6.466   7.006   5.898  1.8260 -2.6728 -0.0572
   37MOL   H22220454   6.528   6.897   6.077 -0.2779  1.3215 -1.1188
   37MOL   H22320455   6.614   7.026   6.172  0.0536 -0.3375  0.5655
   37MOL   H22420456   6.678   6.777   6.237 -2.3114 -1.8733 -1.8479
   37MOL   H22520457   6.815   6.873   6.175  0.6471 -0.4222 -1.4914
   37MOL   O22620458   6.506   7.177   5.988  0.0019 -0.1689  0.7587
   37MOL   C22720459   6.411   7.257   5.919 -0.0295 -0.0332  0.1895
   37MOL   C22820460   6.281   7.298   5.990 -0.3103 -0.2743 -0.2081
   37MOL   O22920461   6.206   7.384   5.908  0.3453 -0.0831  1.0779
   37MOL   C23020462   6.182   7.186   6.035 -0.2064 -0.3647 -0.0330
   37MOL   C23120463   6.245   7.096   6.143  0.5100 -0.2220  0.0196
   37MOL   C23220464   6.126   7.012   6.201  0.0458 -0.3014 -0.3582
   37MOL   O23320465   6.173   6.928   6.303  0.6128 -0.0316 -0.2004
   37MOL   C23420466   6.034   6.933   6.100 -0.4478 -0.6323 -0.1105
   37MOL   C23520467   5.908   6.880   6.168  0.3755  0.6516  0.5051
   37MOL   C23620468   5.995   7.027   5.980 -0.4748  0.4233 -0.9749
   37MOL   C23720469   6.123   7.094   5.927  0.6397 -0.0605  0.7484
   37MOL   H23820470   6.370   7.189   5.845  0.0406  0.5815 -0.4212
   37MOL   H23920471   6.457   7.343   5.871  0.9629  0.0320  1.2363
   37MOL   H24020472   6.314   7.349   6.081 -1.1867 -0.0919  0.0101
   37MOL   H24120473   6.149   7.442   5.956 -0.5903  0.5520 -0.7417
   37MOL   H24220474   6.098   7.236   6.083 -0.2839  0.6124 -1.1599
   37MOL   H24320475   6.323   7.033   6.101  0.1829 -2.8235  3.1818
   37MOL   H24420476   6.295   7.157   6.219 -0.0622  2.4601 -1.6754
   37MOL   H24520477   6.058   7.080   6.252  1.1233  1.0715 -0.7244
   37MOL   H24620478   6.207   6.850   6.262  1.0581 -0.6223  1.2907
   37MOL   H24720479   6.097   6.855   6.058  1.4786  0.3823  0.8243
   37MOL   H24820480   5.925   6.816   6.255  0.0156  2.0287  1.6060
   37MOL   H24920481   5.853   6.969   6.195  1.7663  1.5650  0.3734
   37MOL   H25020482   5.920   7.102   6.006  0.7775  1.7507 -1.0788
   37MOL   H25120483   5.949   6.977   5.895 -1.5363  2.6759 -1.7856
   37MOL   H25220484   6.094   7.161   5.846 -2.6073  0.5151  2.3083
   37MOL   H25320485   6.195   7.021   5.890 -0.3793 -0.8012  0.1989
   37MOL   O25420486   5.818   6.807   6.079 -0.3807  0.1071 -0.3044
   37MOL   C25520487   5.870   6.677   6.049 -0.4761  0.4834 -0.3579
   37MOL   C25620488   5.761   6.602   5.975  0.0616  0.0017 -0.1483
   37MOL   O25720489   5.640   6.624   6.037 -0.0591  0.2185  0.2969
   37MOL   C25820490   5.740   6.644   5.827  0.6654 -0.0668 -0.4122
   37MOL   C25920491   5.696   6.789   5.804 -0.1581  0.1753  0.2641
   37MOL   C26020492   5.679   6.814   5.654 -1.1364  1.0401  0.2151
   37MOL   O26120493   5.646   6.950   5.643  0.8933  0.2254  0.4009
   37MOL   C26220494   5.582   6.726   5.583  0.4955  0.2778  0.4195
   37MOL   C26320495   5.590   6.757   5.437  0.4131 -0.4629 -0.9373
   37MOL   C26420496   5.618   6.574   5.614  0.3915  0.1339  0.0446
   37MOL   C26520497   5.636   6.552   5.766 -0.7406 -0.0716 -0.4327
   37MOL   H26620498   5.883   6.623   6.143 -3.5988  0.5103  0.1466
   37MOL   H26720499   5.959   6.692   5.987  0.0767  1.6188  0.6873
   37MOL   H26820500   5.782   6.496   5.981  1.7849  0.3577  0.3508
   37MOL   H26920501   5.643   6.718   6.045  0.7978  0.1176  1.1818
   37MOL   H27020502   5.834   6.639   5.772 -0.7581 -1.2334 -2.8233
   37MOL   H27120503   5.607   6.823   5.857 -1.0426  0.1618 -1.1851
   37MOL   H27220504   5.775   6.855   5.839 -0.2077  0.6003 -0.4155
   37MOL   H27320505   5.777   6.795   5.610 -0.7505 -0.1321  1.5171
   37MOL   H27420506   5.605   6.972   5.725  0.2287 -0.1496  0.1775
   37MOL   H27520507   5.481   6.742   5.620  1.6777  0.7956  3.5266
   37MOL   H27620508   5.558   6.859   5.417 -2.3357 -1.2245 -0.5583
   37MOL   H27720509   5.689   6.733   5.398  0.8627  0.4466 -0.3789
   37MOL   H27820510   5.702   6.524   5.567 -0.8827 -1.4422 -0.6107
   37MOL   H27920511   5.538   6.512   5.573  0.7807  0.0258 -0.5533
   37MOL   H28020512   5.661   6.446   5.770 -0.7061 -0.0517 -0.1270
   37MOL   H28120513   5.538   6.568   5.811 -0.8146 -0.3338 -0.5015
   37MOL   O28220514   5.507   6.666   5.373  0.1129  0.1649 -0.0308
   37MOL   C28320515   5.472   6.707   5.242 -0.2636  0.1815  0.3335
   37MOL   C28420516   5.436   6.586   5.160 -0.5425  0.4266  0.2378
   37MOL   O28520517   5.299   6.565   5.194  0.1487  1.0668 -0.4106
   37MOL   C28620518   5.449   6.606   5.008  0.0664  0.7348  0.1114
   37MOL   C28720519   5.373   6.505   4.929 -0.0245  0.4124  0.1102
   37MOL   C28820520   5.370   6.537   4.781  0.2381 -0.7389 -0.5029
   37MOL   O28920521   5.295   6.436   4.728  0.6481  0.4382  0.5542
   37MOL   C29020522   5.516   6.540   4.728 -0.3842  0.0248  0.0333
   37MOL   C29120523   5.512   6.579   4.577  0.5273 -0.1766  0.4588
   37MOL   C29220524   5.611   6.642   4.806 -0.1859  0.2371 -0.5313
   37MOL   C29320525   5.596   6.613   4.958 -0.3273  0.1923  0.4749
   37MOL   H29420526   5.551   6.765   5.194  0.6184 -1.5869 -0.3725
   37MOL   H29520527   5.387   6.775   5.256 -0.3068  0.4421 -1.1476
   37MOL   H29620528   5.490   6.499   5.199  0.3059  1.4767  1.4455
   37MOL   H29720529   5.293   6.593   5.284  0.3132  1.0757 -0.4030
   37MOL   H29820530   5.410   6.706   4.987 -0.2485  0.1017 -2.4466
   37MOL   H29920531   5.419   6.412   4.961  1.2832  0.5653 -1.2550
   37MOL   H30020532   5.269   6.503   4.960 -0.2343  0.6723 -0.5624
   37MOL   H30120533   5.328   6.635   4.757 -1.4233 -0.7900  2.0446
   37MOL   H30220534   5.249   6.463   4.650  0.9357 -1.2209 -0.2224
   37MOL   H30320535   5.557   6.440   4.742  0.3413  0.3374  0.1305
   37MOL   H30420536   5.457   6.502   4.523 -1.4096  1.1542  0.5217
   37MOL   H30520537   5.442   6.661   4.565 -1.9115 -2.2061  0.5391
   37MOL   H30620538   5.568   6.742   4.801  0.9190  0.6833 -1.6127
   37MOL   H30720539   5.713   6.645   4.766  0.5357  0.5382  1.3154
   37MOL   H30820540   5.652   6.689   5.011  0.1495 -1.5447  2.5109
   37MOL   H30920541   5.646   6.519   4.981  0.1759 -0.0585 -1.5361
   37MOL   O31020542   5.643   6.600   4.525  0.2755 -0.0308 -0.1425
   37MOL   C31120543   5.640   6.649   4.390 -0.3053 -0.0511  0.7533
   37MOL   C31220544   5.782   6.647   4.324 -0.0158 -0.5181 -0.6598
   37MOL   O31320545   5.813   6.507   4.304 -0.1782 -0.1299  0.3189
   37MOL   C31420546   5.797   6.726   4.194  0.2526  0.0384 -0.0382
   37MOL   C31520547   5.694   6.685   4.081 -0.2832 -1.0183 -0.1757
   37MOL   C31620548   5.710   6.760   3.948  0.0444  0.1962 -0.0010
   37MOL   O31720549   5.632   6.707   3.843 -0.7262 -0.4521 -0.4370
   37MOL   C31820550   5.859   6.768   3.902  0.5680 -0.5607  0.4481
   37MOL   C31920551   5.870   6.866   3.778 -0.0392 -0.0403  0.7719
   37MOL   C32020552   5.951   6.821   4.016 -0.3079  0.6658 -0.1439
   37MOL   C32120553   5.943   6.726   4.136  0.2474  0.6228 -0.9016
   37MOL   H32220554   5.592   6.747   4.383  0.6123  0.3343 -0.2978
   37MOL   H32320555   5.569   6.587   4.335 -0.0152  1.0485 -0.9101
   37MOL   H32420556   5.841   6.688   4.405 -3.4713  2.1492  0.6128
   37MOL   H32520557   5.761   6.462   4.369  0.3283 -0.1990  0.6727
   37MOL   H32620558   5.771   6.830   4.216  1.5294  0.5964 -1.0802
   37MOL   H32720559   5.720   6.583   4.052  0.8166 -0.5003 -1.0774
   37MOL   H32820560   5.593   6.698   4.118 -0.0189 -0.9686  0.5342
   37MOL   H32920561   5.679   6.863   3.964 -0.8774  0.6803 -4.2441
   37MOL   H33020562   5.603   6.620   3.865 -1.0111 -0.5121 -1.0258
   37MOL   H33120563   5.891   6.668   3.873 -0.4817 -0.7236 -0.1675
   37MOL   H33220564   5.976   6.861   3.753 -0.3395  1.3659 -0.9385
   37MOL   H33320565   5.802   6.832   3.701 -1.5847  0.9819  1.6641
   37MOL   H33420566   5.915   6.915   4.058 -1.5610 -1.4347  3.7492
   37MOL   H33520567   6.058   6.814   3.997 -0.7550 -1.6678 -1.9562
   37MOL   H33620568   5.993   6.750   4.230 -0.9626  0.5202 -0.2239
   37MOL   H33720569   5.977   6.632   4.094  0.3388  0.6607 -0.9142
   37MOL   O33820570   5.840   6.997   3.829 -0.4848 -0.0318  0.5541
   37MOL   C33920571   5.850   7.099   3.734  0.3743 -0.0112 -0.3358
   37MOL   C34020572   5.816   7.232   3.805  0.4873  0.1799 -0.0145
   37MOL   O34120573   5.901   7.243   3.917  0.2389 -0.1398 -0.2506
   37MOL   C34220574   5.829   7.363   3.725  0.1073  0.0571  0.4010
   37MOL   C34320575   5.969   7.402   3.674 -0.6078  0.0810  0.2937
   37MOL   C34420576   5.974   7.541   3.594 -0.3708  0.1339  0.4641
   37MOL   O34520577   6.105   7.569   3.546 -0.0450 -0.4106 -0.8454
   37MOL   C34620578   5.909   0.029   3.679 -0.3241  0.2049 -0.1628
   37MOL   C34720579   5.899   0.154   3.593 -0.1826  0.0349 -0.1587
   37MOL   C34820580   5.770   7.616   3.736  0.7203  0.1234  0.4212
   37MOL   C34920581   5.778   7.476   3.816  0.4103  0.2141 -0.0973
   37MOL   H35020582   5.784   7.087   3.648 -0.1294 -1.4771  0.2328
   37MOL   H35120583   5.955   7.100   3.706  0.3945 -0.3594 -0.2743
   37MOL   H35220584   5.717   7.229   3.851  1.2952 -2.2411  1.6397
   37MOL   H35320585   5.919   7.163   3.964  0.6018 -0.1670 -0.4316
   37MOL   H35420586   5.765   7.357   3.636  2.4922  0.8891 -1.4444
   37MOL   H35520587   6.035   7.410   3.760 -1.3864  1.7266  0.7519
   37MOL   H35620588   6.013   7.323   3.613 -1.5855 -0.5036  0.3292
   37MOL   H35720589   5.911   7.526   3.506  0.9936  0.9156 -0.6742
   37MOL   H35820590   6.146   7.490   3.512  0.7381 -0.4483  0.1687
   37MOL   H35920591   5.970   0.048   3.767 -1.6245  0.0665  0.7989
   37MOL   H36020592   5.996   0.190   3.560 -0.0276 -1.0490 -0.8803
   37MOL   H36120593   5.830   0.142   3.510 -2.0601  0.2437  1.3277
   37MOL   H36220594   5.698   7.614   3.655  0.4852  0.1104  0.6317
   37MOL   H36320595   5.722   0.054   3.807  0.7879  0.8659 -0.2411
   37MOL   H36420596   5.676   7.451   3.847  0.2579 -0.5472 -1.2082
   37MOL   H36520597   5.839   7.479   3.907 -1.0403  1.6635  0.8516
   37MOL   O36620598   5.835   0.256   3.655 -0.2532 -0.4702  0.5661
   37MOL   C36720599   5.906   0.327   3.750  0.7914 -0.2199 -0.5000
   37MOL   C36820600   5.804   0.387   3.847 -0.0517  0.4341  0.0153
   37MOL   O36920601   5.785   0.288   3.945  0.2210 -0.8920 -0.2007
   37MOL   C37020602   5.839   0.530   3.903 -0.7384 -0.0813  0.2116
   37MOL   C37120603   5.970   0.531   3.985  0.4070 -0.0354  0.2592
   37MOL   C37220604   6.014   0.676   4.022 -0.8342 -0.1349 -0.4618
   37MOL   O37320605   6.130   0.676   4.105  0.0866  0.5744 -0.1433
   37MOL   C37420606   5.898   0.749   4.091 -0.3844  0.0040 -0.3388
   37MOL   C37520607   5.935   0.897   4.108 -0.5221  0.5288 -0.1858
   37MOL   C37620608   5.771   0.749   4.001  0.2916 -0.0176  0.1808
   37MOL   C37720609   5.721   0.605   3.968  0.4115 -0.3542  0.1224
   37MOL   H37820610   5.963   0.402   3.696 -0.6895  0.7212 -0.7659
   37MOL   H37920611   5.968   0.261   3.811  3.0374 -1.1823 -3.6505
   37MOL   H38020612   5.711   0.382   3.790  0.1999  3.6744 -0.8151
   37MOL   H38120613   5.733   0.224   3.898  1.4390 -1.3874 -0.8876
   37MOL   H38220614   5.860   0.584   3.811  0.2208 -0.5555  0.1433
   37MOL   H38320615   5.964   0.479   4.080  0.6663  2.0648  1.4570
   37MOL   H38420616   6.043   0.470   3.931  0.5539  0.0385  0.3733
   37MOL   H38520617   6.042   0.718   3.926  1.8289 -0.7442  0.0024
   37MOL   H38620618   6.119   0.632   4.187 -0.8938 -0.3852 -0.7859
   37MOL   H38720619   5.882   0.694   4.184  2.0116  0.3387  0.2797
   37MOL   H38820620   6.020   0.908   4.175 -1.7892  0.1869  1.5195
   37MOL   H38920621   5.970   0.941   4.014 -1.7819  0.8709 -0.5111
   37MOL   H39020622   5.785   0.794   3.902  0.3521  1.2822  0.7634
   37MOL   H39120623   5.686   0.805   4.039 -0.3924 -1.5021  0.8814
   37MOL   H39220624   5.632   0.609   3.904  0.0906 -0.5254  0.5514
   37MOL   H39320625   5.699   0.553   4.061  0.8566 -0.4455  0.1739
   37MOL   O39420626   5.824   0.973   4.153 -0.5105  0.5215  0.1586
   37MOL   C39520627   5.834   1.115   4.147 -0.0432 -0.2301  0.5566
   37MOL   C39620628   5.710   1.180   4.205 -0.2945  0.3971  0.1297
   37MOL   O39720629   5.689   1.138   4.337  0.4062  0.1972 -0.0720
   37MOL   C39820630   5.709   1.331   4.204  0.0793 -0.0290  0.6675
   37MOL   C39920631   5.783   1.407   4.312 -0.2987  0.7971 -0.6071
   37MOL   C40020632   5.799   1.558   4.271  0.1991  0.8649  0.3439
   37MOL   O40120633   5.877   1.628   4.357  0.0512 -0.1395  0.1936
   37MOL   C40220634   5.653   1.614   4.250  0.2720 -0.3205  0.6633
   37MOL   C40320635   5.652   1.767   4.205 -0.7286 -0.1907 -0.3226
   37MOL   C40420636   5.558   1.530   4.163  0.5993  0.6658 -0.6014
   37MOL   C40520637   5.567   1.379   4.193  0.2585 -0.7325  0.9641
   37MOL   H40620638   5.855   1.144   4.044 -2.1513 -0.8447 -0.0807
   37MOL   H40720639   5.919   1.143   4.208  0.0530 -1.2501  0.8978
   37MOL   H40820640   5.629   1.139   4.144 -1.1682  1.5819  0.4546
   37MOL   H40920641   5.742   1.061   4.344 -0.6316 -0.4150  1.1381
   37MOL   H41020642   5.752   1.357   4.107 -1.0519  0.3917  0.2614
   37MOL   H41120643   5.727   1.394   4.405 -1.0760 -1.5624 -1.3723
   37MOL   H41220644   5.879   1.358   4.325 -0.6343  0.0384 -0.9862
   37MOL   H41320645   5.858   1.555   4.179  0.3348 -3.6614  0.4523
   37MOL   H41420646   5.901   1.709   4.315 -1.0621  1.4079  2.4819
   37MOL   H41520647   5.606   1.611   4.348 -0.4223 -1.5316  0.2990
   37MOL   H41620648   5.555   1.811   4.226  0.0752  1.8770 -0.7645
   37MOL   H41720649   5.713   1.824   4.276 -1.8483 -0.4174  0.8305
   37MOL   H41820650   5.586   1.540   4.058 -1.4845 -1.2683 -1.3841
   37MOL   H41920651   5.452   1.558   4.160  0.4266  0.3389  1.4599
   37MOL   H42020652   5.517   1.326   4.112 -0.5014 -0.0914  1.0026
   37MOL   H42120653   5.506   1.356   4.281 -0.7262 -2.1151 -0.0424
   37MOL   O42220654   5.703   1.787   4.073  0.2842  0.2034  0.2364
   37MOL   C42320655   5.605   1.836   3.987  0.3231  0.6652 -0.5175
   37MOL   C42420656   5.651   1.839   3.841  0.5550 -0.7415  0.1582
   37MOL   O42520657   5.533   1.846   3.758 -0.2119 -0.3423 -0.0510
   37MOL   C42620658   5.756   1.946   3.805 -0.3272 -1.0207  0.1737
   37MOL   C42720659   5.890   1.924   3.875  0.2376  0.2813  0.0562
   37MOL   C42820660   5.988   2.040   3.857  0.1902  0.2044  0.2878
   37MOL   O42920661   6.097   2.027   3.951 -0.1420 -0.0076  0.1433
   37MOL   C43020662   5.928   2.181   3.872  0.2406 -0.0833  0.6469
   37MOL   C43120663   6.021   2.297   3.830  0.0761  0.6152  0.4448
   37MOL   C43220664   5.795   2.190   3.793 -0.3914  0.4828 -0.5371
   37MOL   C43320665   5.697   2.084   3.847 -0.2994  0.3974 -0.5169
   37MOL   H43420666   5.572   1.928   4.036  2.0373 -0.0778  2.1109
   37MOL   H43520667   5.528   1.760   3.996 -0.9484  1.8467 -1.0814
   37MOL   H43620668   5.709   1.750   3.817  1.7902  0.0867  0.0501
   37MOL   H43720669   5.471   1.782   3.789  0.1837 -0.0400  1.3950
   37MOL   H43820670   5.785   1.946   3.700  2.5199 -3.2153  0.8777
   37MOL   H43920671   5.871   1.921   3.983 -2.3592  1.9527 -0.3081
   37MOL   H44020672   5.925   1.824   3.851 -0.3901 -0.0712  0.5816
   37MOL   H44120673   6.028   2.040   3.756 -0.6247  3.7713 -0.0976
   37MOL   H44220674   6.054   2.021   4.035 -0.1154  1.9360  0.3123
   37MOL   H44320675   5.890   2.194   3.974 -3.5832 -2.5464 -0.3745
   37MOL   H44420676   5.974   2.388   3.866 -0.9042 -0.1880  1.2574
   37MOL   H44520677   6.117   2.286   3.882  1.0195 -0.0651 -1.3908
   37MOL   H44620678   5.815   2.173   3.687 -0.0002 -0.0550 -0.3838
   37MOL   H44720679   5.753   2.289   3.807  1.0002  1.1256 -0.7974
   37MOL   H44820680   5.595   2.088   3.810 -1.3608  0.3044  2.2405
   37MOL   H44920681   5.680   2.091   3.955 -2.6879  0.9256 -0.8959
   37MOL   O45020682   6.046   2.287   3.688  0.3177 -0.1875  0.4768
   37MOL   C45120683   6.033   2.411   3.620  0.1433  0.1767 -0.0306
   37MOL   C45220684   6.055   2.383   3.471  0.0859  0.5073 -0.7741
   37MOL   O45320685   5.955   2.283   3.442  0.2287 -0.0334 -0.3192
   37MOL   C45420686   6.042   2.502   3.380 -0.5634  0.2217 -0.3118
   37MOL   C45520687   5.902   2.556   3.359 -0.1824 -0.3791 -0.0664
   37MOL   C45620688   5.897   2.672   3.255 -0.1317  0.4038 -0.0124
   37MOL   O45720689   5.755   2.705   3.242 -0.7683 -0.0010 -0.2374
   37MOL   C45820690   5.967   2.640   3.123 -0.0199 -0.4599 -0.6932
   37MOL   C45920691   5.987   2.770   3.038  0.0523 -0.4385  0.0963
   37MOL   C46020692   6.104   2.582   3.148 -0.3155  0.4487 -0.8898
   37MOL   C46120693   6.109   2.465   3.245 -0.6827  0.2195 -0.3860
   37MOL   H46220694   6.112   2.482   3.643  1.0126 -0.4515 -1.0311
   37MOL   H46320695   5.932   2.449   3.638 -0.1269 -0.6757  0.2663
   37MOL   H46420696   6.151   2.332   3.463  0.3943  0.6286  1.6578
   37MOL   H46520697   5.948   2.226   3.516  1.5285 -0.9800 -0.9101
   37MOL   H46620698   6.107   2.581   3.417 -0.8714  0.5821 -0.5331
   37MOL   H46720699   5.838   2.474   3.329 -1.7082  0.2665  1.2986
   37MOL   H46820700   5.867   2.602   3.452  0.1900 -0.0155 -0.0995
   37MOL   H46920701   5.933   2.764   3.301 -0.0956  0.0201  0.7386
   37MOL   H47020702   5.759   2.767   3.171  0.2941 -0.0293 -0.2096
   37MOL   H47120703   5.907   2.567   3.068  0.4965 -0.8949 -0.6852
   37MOL   H47220704   6.043   2.845   3.093 -1.4697  2.7382 -2.4725
   37MOL   H47320705   6.033   2.742   2.943 -2.4576 -0.2462 -1.2301
   37MOL   H47420706   6.164   2.660   3.195 -2.2694  0.4960  1.6312
   37MOL   H47520707   6.153   2.548   3.057 -2.1786 -3.6108 -0.4636
   37MOL   H47620708   6.208   2.420   3.255 -0.2816  1.2206  0.1836
   37MOL   H47720709   6.048   2.390   3.195  0.3371  1.7683 -4.1434
   37MOL   O47820710   5.867   2.839   3.020 -0.1920  0.2342 -0.4928
   37MOL   C47920711   5.890   2.955   2.929 -0.3600 -0.3522  1.2041
   37MOL   C48020712   5.755   3.035   2.939  0.2275  0.3872  0.0025
   37MOL   O48120713   5.789   3.170   2.920 -0.1977  0.8936  0.1705
   37MOL   C48220714   5.636   3.002   2.850  0.3219  0.5250  0.0093
   37MOL   C48320715   5.511   3.089   2.896 -0.0657  0.1939  0.9420
   37MOL   C48420716   5.384   3.055   2.814  0.2327 -0.0537 -0.5128
   37MOL   O48520717   5.281   3.117   2.889  0.5842  0.1717  0.3881
   37MOL   C48620718   5.364   2.896   2.826 -0.6508 -0.0011  0.5643
   37MOL   C48720719   5.249   2.858   2.738  0.1957 -0.4287 -0.2745
   37MOL   C48820720   5.493   2.814   2.777  0.0885  0.3196 -0.0387
   37MOL   C48920721   5.611   2.851   2.858  0.3294 -0.4230  0.1657
   37MOL   H49020722   5.905   2.928   2.825  0.4264 -0.7657  1.4174
   37MOL   H49120723   5.970   3.020   2.966 -0.8422  1.0719 -0.2159
   37MOL   H49220724   5.721   3.036   3.043  1.1608 -4.2210  0.4495
   37MOL   H49320725   5.843   3.174   2.843 -1.2413  2.5428 -0.4993
   37MOL   H49420726   5.668   3.025   2.749 -0.3207  0.3151 -0.2465
   37MOL   H49520727   5.494   3.092   3.004 -1.2121  0.9283  0.7520
   37MOL   H49620728   5.533   3.190   2.863  0.3471 -0.4926 -0.9730
   37MOL   H49720729   5.396   3.084   2.710  0.4750  1.3234 -0.1210
   37MOL   H49820730   5.263   3.074   2.972 -0.0680  0.6325  0.4861
   37MOL   H49920731   5.349   2.874   2.931 -0.0123  1.7066  1.0268
   37MOL   H50020732   5.162   2.908   2.781  1.0416  1.2579 -0.4991
   37MOL   H50120733   5.267   2.884   2.633 -0.4096  0.1756 -0.2325
   37MOL   H50220734   5.512   2.846   2.675  0.1091  2.0338  0.4843
   37MOL   H50320735   5.484   2.706   2.784 -0.8725  0.2651 -1.8481
   37MOL   H50420736   5.696   2.794   2.821 -0.8319 -1.1523 -1.4048
   37MOL   H50520737   5.583   2.817   2.958 -2.4589 -0.5404 -0.5944
   37MOL   O50620738   5.218   2.720   2.740  0.0830  0.5175  0.1432
   37MOL   C50720739   5.097   2.691   2.664 -0.4126 -0.1334  0.3483
   37MOL   C50820740   5.118   2.642   2.524  0.3002  0.0412  0.3695
   37MOL   O50920741   5.156   2.750   2.448 -0.1383 -0.3252  0.0928
   37MOL   C51020742   5.202   2.516   2.501  0.7939  0.2992 -0.3778
   37MOL   C51120743   5.221   2.486   2.354  0.3352  0.1138  0.1354
   37MOL   C51220744   5.275   2.345   2.328  0.7646  0.0240 -0.1813
   37MOL   O51320745   5.270   2.319   2.184 -0.7958  0.3967 -0.2996
   37MOL   C51420746   5.220   2.227   2.406  0.1801 -0.5715 -0.7823
   37MOL   C51520747   5.307   2.107   2.400 -0.3989  0.4295 -0.6230
   37MOL   C51620748   5.211   2.268   2.555 -0.1932  0.7641  0.6766
   37MOL   C51720749   5.138   2.397   2.569 -0.4782 -1.0119  0.0240
   37MOL   H51820750   5.035   2.780   2.648  0.3084 -0.1297 -2.7969
   37MOL   H51920751   5.042   2.624   2.730 -1.1229  0.5490  0.4658
   37MOL   H52020752   5.025   2.615   2.474  0.3984 -0.4420  0.4466
   37MOL   H52120753   5.078   2.786   2.408  1.0650  2.6059  0.2323
   37MOL   H52220754   5.303   2.524   2.542  1.8969 -1.5022 -2.6573
   37MOL   H52320755   5.123   2.477   2.308  1.4602  3.9583 -3.2245
   37MOL   H52420756   5.273   2.568   2.305 -0.1902 -0.5854 -1.6354
   37MOL   H52520757   5.382   2.347   2.348  0.1567  1.5181  3.3315
   37MOL   H52620758   5.296   2.229   2.191 -0.4373  0.1641 -3.7436
   37MOL   H52720759   5.114   2.210   2.384  0.6216 -1.9465 -1.9059
   37MOL   H52820760   5.403   2.139   2.442  0.3503 -0.9721 -1.2171
   37MOL   H52920761   5.273   2.023   2.459  3.8621 -0.1315  1.2386
   37MOL   H53020762   5.313   2.275   2.593  0.2104  1.0131 -0.4213
   37MOL   H53120763   5.170   2.189   2.617  2.4642 -1.7223 -0.6209
   37MOL   H53220764   5.135   2.416   2.676 -2.6246  0.2060 -0.2233
   37MOL   H53320765   5.034   2.383   2.540 -1.1275  1.7976  0.8240
   37MOL   O53420766   5.318   2.074   2.260  0.3506 -0.1319 -0.0058
   37MOL   C53520767   5.419   1.990   2.213 -0.0355 -0.2113  1.2279
   37MOL   C53620768   5.426   1.986   2.054  0.4271 -0.1222  0.2236
   37MOL   O53720769   5.480   2.115   2.013  0.0160  0.0388 -0.2510
   37MOL   C53820770   5.512   1.878   1.995  0.7667  0.2595 -0.1254
   37MOL   C53920771   5.599   1.915   1.872 -0.2816  0.2440 -0.4754
   37MOL   C54020772   5.698   1.811   1.849 -0.0423  0.5502 -0.4899
   37MOL   O54120773   5.763   1.848   1.733  0.4198 -0.3907  0.1518
   37MOL   C54220774   5.639   1.672   1.831 -0.3590 -0.0878 -0.8486
   37MOL   C54320775   5.749   1.562   1.838 -0.3150  0.3331 -0.0386
   37MOL   C54420776   5.529   1.635   1.942 -0.2853  0.3917 -0.0704
   37MOL   C54520777   5.430   1.749   1.966 -0.7072  0.3629  0.1641
   37MOL   H54620778   5.423   1.895   2.265 -1.9875 -0.8596  0.2654
   37MOL   H54720779   5.517   2.032   2.235 -0.0405  0.7828 -0.4887
   37MOL   H54820780   5.330   1.974   2.005 -0.3787  0.7761  1.5510
   37MOL   H54920781   5.469   2.120   1.920  0.9368  0.5590 -0.3402
   37MOL   H55020782   5.587   1.853   2.071  0.5275  2.5727  0.8985
   37MOL   H55120783   5.535   1.939   1.787  0.4696 -2.7198 -1.9602
   37MOL   H55220784   5.661   2.003   1.886  0.9129 -0.9520  2.3684
   37MOL   H55320785   5.769   1.822   1.931 -0.4037 -0.0959 -0.0865
   37MOL   H55420786   5.854   1.825   1.748  0.3053 -1.1650 -0.3708
   37MOL   H55520787   5.589   1.671   1.734  0.2006 -0.0601 -1.1394
   37MOL   H55620788   5.785   1.545   1.939  0.9576 -0.2149 -0.5706
   37MOL   H55720789   5.709   1.468   1.800 -1.9490 -0.0647  2.5748
   37MOL   H55820790   5.571   1.613   2.040 -1.6959 -0.5979  0.3190
   37MOL   H55920791   5.475   1.547   1.907 -0.9935  1.5426 -1.9920
   37MOL   H56020792   5.374   1.731   2.057 -0.2157 -0.0544  0.3879
   37MOL   H56120793   5.362   1.769   1.884  1.4349  1.8639 -1.3159
   37MOL   H56220794   5.835   1.592   1.779  0.8260  1.0379  1.9446
   38MOL     O120795   2.180   1.677   0.151  0.2305  0.2843  0.0298
   38MOL     C220796   2.294   1.595   0.194  0.2012  0.1643  0.2275
   38MOL     C320797   2.397   1.576   0.082  0.7183 -0.1616  0.3442
   38MOL     O420798   2.375   1.686   0.005 -0.3452 -0.1607 -0.2132
   38MOL     C520799   2.547   1.560   0.114  0.2239  0.6491  0.1442
   38MOL     C620800   2.634   1.517   0.002  0.2920  0.0696 -0.0858
   38MOL     C720801   2.784   1.527   0.041 -0.1640  0.1719  0.8282
   38MOL     O820802   2.870   1.484   7.565 -0.5823 -0.3436  0.5964
   38MOL     C920803   2.814   1.451   0.173  0.6538 -0.6597 -0.1654
   38MOL    C1020804   2.961   1.470   0.223  0.1462  0.4364  0.5209
   38MOL    C1120805   2.723   1.501   0.289  1.1887  0.2795 -0.1122
   38MOL    C1220806   2.578   1.488   0.245  0.6081  0.0235  0.1691
   38MOL    H1320807   2.256   1.499   0.228  0.5255  0.1818  0.6538
   38MOL    H1420808   2.328   1.648   0.283  0.2881  0.3768  0.0687
   38MOL    H1520809   2.357   1.492   0.025  2.1518 -1.7696  1.6675
   38MOL    H1620810   2.288   1.713   0.031 -1.1024 -2.2740 -0.4558
   38MOL    H1720811   2.582   1.660   0.140  3.0229 -0.2146 -0.1578
   38MOL    H1820812   2.610   1.415   7.599  1.6525 -0.6359  1.0957
   38MOL    H1920813   2.615   1.588   7.551 -1.2629  1.3166  1.3487
   38MOL    H2020814   2.818   1.629   0.054 -1.7967  0.8105  0.1809
   38MOL    H2120815   2.952   1.529   7.576  0.1368 -1.8221  1.5747
   38MOL    H2220816   2.794   1.344   0.164  0.0884 -0.9736  4.0446
   38MOL    H2320817   3.030   1.445   0.142  0.2428  0.1944  0.6773
   38MOL    H2420818   2.965   1.577   0.242 -0.2436  0.4820  0.3378
   38MOL    H2520819   2.734   1.601   0.331 -1.2857  0.5399 -0.0285
   38MOL    H2620820   2.744   1.442   0.378  2.0772 -1.2608 -1.3097
   38MOL    H2720821   2.521   1.525   0.330  1.6673 -0.6834  1.1985
   38MOL    H2820822   2.550   1.383   0.232  0.0790 -0.1600  2.5478
   38MOL    H2920823   2.103   1.635   0.186 -0.3452  1.0744 -0.2756
   38MOL    O3020824   2.982   1.379   0.327  0.1235  0.4579 -0.4276
   38MOL    C3120825   3.103   1.413   0.392 -0.3938 -0.0960  0.1239
   38MOL    C3220826   3.139   1.323   0.517 -0.0034 -0.3055  0.0279
   38MOL    O3320827   3.033   1.336   0.608 -0.2654 -0.0908 -0.0041
   38MOL    C3420828   3.185   1.181   0.499 -0.0983  0.6037  0.5220
   38MOL    C3520829   3.216   1.109   0.627  0.7736 -0.6000 -0.2756
   38MOL    C3620830   3.241   0.961   0.609 -0.2015  1.0062 -0.3052
   38MOL    O3720831   3.281   0.913   0.735 -0.1293  0.1927 -0.7501
   38MOL    C3820832   3.359   0.941   0.510 -0.3946  0.3786  0.5828
   38MOL    C3920833   3.387   0.797   0.477 -0.1404  0.1461 -0.2725
   38MOL    C4020834   3.334   1.016   0.374 -0.2116  0.5045  0.5139
   38MOL    C4120835   3.297   1.166   0.400  0.4031 -0.3502 -0.7235
   38MOL    H4220836   3.086   1.509   0.439 -0.7113  0.3421 -0.8569
   38MOL    H4320837   3.187   1.436   0.327  1.6810 -1.3850  2.2949
   38MOL    H4420838   3.225   1.372   0.563 -0.2932 -0.6859  0.9920
   38MOL    H4520839   2.959   1.307   0.556  0.1049  0.6130 -0.9232
   38MOL    H4620840   3.110   1.122   0.447  1.0921  0.5099 -1.1249
   38MOL    H4720841   3.308   1.145   0.672 -0.4119  0.7373  1.1540
   38MOL    H4820842   3.151   1.133   0.712  1.3313  1.0273 -0.3050
   38MOL    H4920843   3.145   0.921   0.575 -0.0915  0.4160  0.0731
   38MOL    H5020844   3.206   0.873   0.777 -0.2053  0.9128 -0.1831
   38MOL    H5120845   3.444   0.993   0.554  0.6807 -1.4061  0.6676
   38MOL    H5220846   3.375   0.735   0.566 -1.8287  0.3008 -0.3818
   38MOL    H5320847   3.305   0.771   0.410 -1.2448  1.3843  0.5543
   38MOL    H5420848   3.255   0.969   0.315 -0.6525  1.8252  0.0164
   38MOL    H5520849   3.427   0.997   0.321 -0.3869  0.9514  0.0346
   38MOL    H5620850   3.284   1.218   0.305 -0.3502  0.1606 -0.3467
   38MOL    H5720851   3.384   1.217   0.440 -0.3392  0.4766 -0.1480
   38MOL    O5820852   3.513   0.759   0.415  0.4997  0.6705 -0.3115
   38MOL    C5920853   3.513   0.628   0.389 -0.6386  0.0713 -0.0495
   38MOL    C6020854   3.658   0.587   0.363 -0.9551 -0.2883  0.1935
   38MOL    O6120855   3.702   0.639   0.241  0.1703 -0.0439 -0.4945
   38MOL    C6220856   3.751   0.625   0.478 -0.1130  0.1620 -0.2449
   38MOL    C6320857   3.902   0.605   0.452 -0.2239  0.1528  0.6532
   38MOL    C6420858   3.989   0.658   0.571 -0.0746  0.5929  0.0440
   38MOL    O6520859   4.125   0.622   0.547  0.2906  0.3815  0.7055
   38MOL    C6620860   3.958   0.581   0.697  0.2098 -0.5386 -0.1031
   38MOL    C6720861   4.042   0.623   0.820  0.0231 -0.0924  0.1734
   38MOL    C6820862   3.813   0.588   0.729  0.2649  0.5684 -0.4145
   38MOL    C6920863   3.715   0.550   0.614  0.4465 -0.4727  0.2628
   38MOL    H7020864   3.451   0.610   0.302  0.8151  0.0508 -1.1028
   38MOL    H7120865   3.473   0.570   0.473 -1.2832 -1.2230 -1.2381
   38MOL    H7220866   3.661   0.479   0.345 -0.7231 -0.1433 -0.6584
   38MOL    H7320867   3.688   0.732   0.249 -0.6512 -0.2736  1.0384
   38MOL    H7420868   3.746   0.733   0.485 -2.2938 -0.0828  2.9695
   38MOL    H7520869   3.917   0.498   0.439 -0.2326  0.4493 -2.0729
   38MOL    H7620870   3.940   0.643   0.357 -1.2302  0.3048  0.3048
   38MOL    H7720871   3.962   0.761   0.598 -0.2464  1.0952 -1.9721
   38MOL    H7820872   4.128   0.530   0.528 -0.5748  0.8295 -1.7306
   38MOL    H7920873   3.981   0.477   0.674 -1.0005 -1.1304  1.2452
   38MOL    H8020874   4.145   0.596   0.801 -0.2757  0.9423 -3.1433
   38MOL    H8120875   4.048   0.731   0.833 -1.5749 -0.1411  1.5678
   38MOL    H8220876   3.785   0.684   0.772 -2.9525 -0.0598 -0.9643
   38MOL    H8320877   3.794   0.522   0.814 -1.4989  0.5715 -0.7891
   38MOL    H8420878   3.612   0.570   0.644  0.2602  0.3893 -0.9244
   38MOL    H8520879   3.709   0.446   0.581 -1.3779 -0.2607 -0.0984
   38MOL    O8620880   3.981   0.583   0.944  0.6610  0.7528 -0.4322
   38MOL    C8720881   4.018   0.452   0.980  0.1556 -0.0329 -0.3182
   38MOL    C8820882   3.933   0.384   1.092  0.2157  0.3915 -0.0828
   38MOL    O8920883   3.960   0.242   1.087 -0.1141 -0.2393  0.0839
   38MOL    C9020884   3.960   0.430   1.236 -0.6696  0.1202  0.7071
   38MOL    C9120885   3.849   0.398   1.342 -0.4169 -0.0402  0.1879
   38MOL    C9220886   3.887   0.436   1.485 -0.7048 -0.2000 -0.2799
   38MOL    O9320887   3.780   0.400   1.570 -0.1085 -0.1932 -0.2054
   38MOL    C9420888   3.925   0.585   1.504 -0.5634  0.3444  0.5317
   38MOL    C9520889   3.969   0.619   1.648 -0.7059  0.0838 -0.0224
   38MOL    C9620890   4.028   0.622   1.392  0.4128 -0.6726 -0.2514
   38MOL    C9720891   3.984   0.582   1.251 -0.0992 -0.3508  0.9772
   38MOL    H9820892   4.123   0.434   1.001  0.0459 -1.0598 -0.5948
   38MOL    H9920893   4.011   0.391   0.890 -0.5050 -1.5914  0.7481
   38MOL   H10020894   3.825   0.397   1.079  0.0279 -0.2693  0.8146
   38MOL   H10120895   4.048   0.226   1.117  1.6788 -0.4237 -4.8713
   38MOL   H10220896   4.050   0.377   1.269  0.4071  0.0122 -2.2694
   38MOL   H10320897   3.751   0.436   1.313 -0.0310 -0.5726 -1.8778
   38MOL   H10420898   3.833   0.290   1.337 -0.7592  0.0445 -0.6743
   38MOL   H10520899   3.966   0.367   1.514  0.1960  0.2044 -1.6909
   38MOL   H10620900   3.713   0.462   1.548 -0.5721  0.5185  2.9454
   38MOL   H10720901   3.834   0.640   1.478  0.8713  1.4232 -2.4302
   38MOL   H10820902   3.889   0.593   1.717  0.4041 -2.4885  0.3353
   38MOL   H10920903   4.053   0.555   1.673  0.0452  1.2069  0.4096
   38MOL   H11020904   4.121   0.575   1.424  0.6808  0.5091  0.7069
   38MOL   H11120905   4.041   0.729   1.400  0.2326 -0.6787  0.1086
   38MOL   H11220906   4.064   0.609   1.182 -2.1839 -2.7979 -2.5888
   38MOL   H11320907   3.897   0.632   1.208 -1.2169 -1.4554  1.9391
   38MOL   O11420908   3.997   0.759   1.663  0.7906  0.4180  0.2202
   38MOL   C11520909   4.136   0.798   1.653 -0.1923  0.6975 -0.6228
   38MOL   C11620910   4.164   0.916   1.745 -0.1741  0.2949  0.8394
   38MOL   O11720911   4.111   1.027   1.688 -0.2630  0.1599 -0.1817
   38MOL   C11820912   4.131   0.902   1.895 -0.0195 -0.1897 -0.1929
   38MOL   C11920913   3.981   0.927   1.932 -0.1557 -0.4336 -0.6605
   38MOL   C12020914   3.959   0.914   2.086  0.2960  0.1095 -0.5579
   38MOL   O12120915   3.826   0.951   2.111  0.3054 -0.8582  0.4175
   38MOL   C12220916   4.050   1.006   2.172  0.3675 -0.1560  0.2504
   38MOL   C12320917   4.044   0.973   2.319  0.4415 -0.4499  1.0017
   38MOL   C12420918   4.199   0.978   2.117  0.2955  0.3581  0.2008
   38MOL   C12520919   4.218   0.998   1.973  0.5967  0.5425  0.1337
   38MOL   H12620920   4.167   0.823   1.552  1.1279  0.1067 -0.3684
   38MOL   H12720921   4.206   0.717   1.672 -1.8562 -1.0233 -1.6340
   38MOL   H12820922   4.273   0.929   1.744 -0.2390  0.8289  0.6311
   38MOL   H12920923   4.024   1.004   1.659  0.2568 -4.0530  1.2416
   38MOL   H13020924   4.155   0.799   1.924  0.3536  0.4660  1.8933
   38MOL   H13120925   3.942   1.026   1.908 -0.2485  0.0686  1.5009
   38MOL   H13220926   3.924   0.852   1.877 -1.6443  1.2792 -1.5169
   38MOL   H13320927   3.982   0.810   2.114  0.6608 -0.1767 -1.8855
   38MOL   H13420928   3.767   0.882   2.088  0.9145 -1.2956  0.1579
   38MOL   H13520929   4.026   1.110   2.150  1.9858 -0.0733 -1.2184
   38MOL   H13620930   3.945   1.011   2.344  0.4542 -0.2675  0.7848
   38MOL   H13720931   4.049   0.865   2.332 -0.4504 -0.9155 -2.1821
   38MOL   H13820932   4.242   0.880   2.140 -0.3812  0.3175  1.2896
   38MOL   H13920933   4.273   1.036   2.171  0.5530 -0.3437  0.6012
   38MOL   H14020934   4.325   0.998   1.951  0.5900 -0.3128  0.0760
   38MOL   H14120935   4.188   1.101   1.954  1.5182  0.2329 -3.3081
   38MOL   O14220936   4.125   1.051   2.398  0.0207 -0.1111  0.0744
   38MOL   C14320937   4.118   1.011   2.533 -0.6420  0.4559  0.6004
   38MOL   C14420938   4.228   1.092   2.604 -0.3156  0.7515  0.2317
   38MOL   O14520939   4.197   1.100   2.744 -0.4372 -0.7462 -0.0569
   38MOL   C14620940   4.374   1.048   2.586  0.2651 -0.0525 -0.6296
   38MOL   C14720941   4.477   1.110   2.683 -0.5033 -0.0958 -0.1767
   38MOL   C14820942   4.614   1.032   2.671  0.5062 -0.5332  0.2007
   38MOL   O14920943   4.702   1.092   2.766  0.1543  0.1786 -0.0715
   38MOL   C15020944   4.671   1.041   2.525  0.0350  0.4339 -0.5524
   38MOL   C15120945   4.804   0.962   2.506 -0.6737 -0.5140  0.0612
   38MOL   C15220946   4.571   1.007   2.423  0.5554  0.4843  0.1716
   38MOL   C15320947   4.423   1.055   2.443  0.6157  0.1719  0.3461
   38MOL   H15420948   4.149   0.908   2.547 -0.4472  0.5315  0.7338
   38MOL   H15520949   4.024   1.038   2.582  0.6717  4.1350  1.2631
   38MOL   H15620950   4.210   1.191   2.564  0.7845  0.8279 -0.0839
   38MOL   H15720951   4.156   1.185   2.751 -0.6015 -0.9085  1.0771
   38MOL   H15820952   4.363   0.942   2.609  0.6094  0.0634  0.0939
   38MOL   H15920953   4.483   1.218   2.688 -2.5573  0.0265  0.4584
   38MOL   H16020954   4.438   1.084   2.782  0.2607  2.5496  0.8538
   38MOL   H16120955   4.609   0.927   2.699  0.1550  0.3456  3.5586
   38MOL   H16220956   4.725   1.028   2.832 -1.3901 -1.6188 -1.1947
   38MOL   H16320957   4.708   1.143   2.513  0.3357  0.3571 -0.2966
   38MOL   H16420958   4.875   0.997   2.580 -1.4068 -1.2735  1.1566
   38MOL   H16520959   4.806   0.856   2.532 -0.0645 -0.1672  1.4684
   38MOL   H16620960   4.559   0.899   2.432  0.5910  0.2299 -2.3509
   38MOL   H16720961   4.610   1.034   2.325  2.4235 -1.2470  0.3975
   38MOL   H16820962   4.364   0.991   2.377  1.7626  1.6014 -2.1288
   38MOL   H16920963   4.411   1.160   2.416 -2.3552 -0.1674  0.2643
   38MOL   O17020964   4.860   0.999   2.379  0.7792  1.2011  0.2690
   38MOL   C17120965   4.889   0.891   2.294 -0.1631  0.0553  0.0737
   38MOL   C17220966   4.934   0.928   2.156  0.0243  0.0668 -0.0786
   38MOL   O17320967   5.034   0.842   2.101 -0.3418 -0.2674 -0.2462
   38MOL   C17420968   4.817   0.939   2.060 -0.3863  0.3254  0.6008
   38MOL   C17520969   4.744   0.811   2.025 -0.5337 -0.5489  0.1398
   38MOL   C17620970   4.621   0.838   1.934 -0.3470 -0.1112  0.3701
   38MOL   O17720971   4.568   0.707   1.896 -0.1356 -0.4296  0.4291
   38MOL   C17820972   4.661   0.909   1.801 -0.9261  0.5119  0.3074
   38MOL   C17920973   4.537   0.932   1.725  0.0609 -0.6278 -0.0645
   38MOL   C18020974   4.743   1.032   1.829 -0.1175  0.2305 -0.2656
   38MOL   C18120975   4.859   1.009   1.926  0.0465  0.5438 -0.2804
   38MOL   H18220976   4.806   0.820   2.297  0.2386 -0.4011  0.5328
   38MOL   H18320977   4.981   0.849   2.334  0.4619  0.8095 -0.5521
   38MOL   H18420978   4.978   1.028   2.159  0.5409 -0.1326 -1.0539
   38MOL   H18520979   5.112   0.841   2.154 -2.5620 -1.3310  3.2239
   38MOL   H18620980   4.742   1.004   2.105  0.3030  1.8256 -0.3839
   38MOL   H18720981   4.815   0.737   1.989  0.2102  0.9386 -1.5654
   38MOL   H18820982   4.691   0.774   2.113 -2.4263  1.1171 -0.2650
   38MOL   H18920983   4.538   0.889   1.983  0.9808 -1.4255  4.1520
   38MOL   H19020984   4.631   0.642   1.922  1.3357  1.4845  1.7726
   38MOL   H19120985   4.722   0.838   1.745  0.0882  0.9480  0.8592
   38MOL   H19220986   4.501   0.832   1.700  1.9196 -1.5946  1.0470
   38MOL   H19320987   4.464   0.984   1.787 -0.5020 -0.0507 -1.2059
   38MOL   H19420988   4.689   1.112   1.880 -0.6656 -0.2289 -0.1140
   38MOL   H19520989   4.786   1.077   1.739 -1.9809  1.3100 -0.6495
   38MOL   H19620990   4.904   1.100   1.964 -1.7593  0.2381  2.7085
   38MOL   H19720991   4.915   0.943   1.859 -3.2571 -2.4746 -0.2654
   38MOL   O19820992   4.564   1.006   1.609 -1.1547 -0.5722  0.8706
   38MOL   C19920993   4.513   1.133   1.598  0.9496  0.2437  0.4759
   38MOL   C20020994   4.526   1.169   1.449 -0.0823 -0.5578  0.2689
   38MOL   O20120995   4.661   1.185   1.415 -0.1059 -0.2616 -0.6918
   38MOL   C20220996   4.448   1.072   1.352 -0.9227 -0.2116  0.1235
   38MOL   C20320997   4.440   1.133   1.207 -0.1217 -0.2534  0.1745
   38MOL   C20420998   4.390   1.040   1.096 -0.2594 -0.5855 -0.4550
   38MOL   O20520999   4.380   1.123   0.981 -0.5525 -0.1600  0.0106
   38MOL   C20621000   4.251   0.997   1.140 -0.3337 -0.4060 -0.0145
   38MOL   C20721001   4.202   0.889   1.046 -0.2940 -0.4399 -0.1548
   38MOL   C20821002   4.245   0.945   1.281  0.0622  0.3682  1.0009
   38MOL   C20921003   4.309   1.027   1.391  0.5791  0.0756 -0.3624
   38MOL   H21021004   4.556   1.200   1.673 -0.6809  2.6926 -0.7287
   38MOL   H21121005   4.406   1.132   1.619  1.1897  1.8148  1.8974
   38MOL   H21221006   4.479   1.267   1.439 -2.0051 -1.3495  1.4930
   38MOL   H21321007   4.695   1.097   1.421  0.3538 -0.2028 -2.2207
   38MOL   H21421008   4.511   0.983   1.345 -0.7798 -0.1389  0.4404
   38MOL   H21521009   4.367   1.214   1.212  1.4771  1.1608  1.1636
   38MOL   H21621010   4.538   1.176   1.187  0.0145  0.4642  2.2118
   38MOL   H21721011   4.463   0.963   1.068  0.6471  0.2502 -0.4308
   38MOL   H21821012   4.457   1.176   0.970  0.7849 -1.9785  0.3584
   38MOL   H21921013   4.183   1.082   1.139 -0.2873 -0.2939  2.7674
   38MOL   H22021014   4.209   0.919   0.942  0.0593 -0.8918 -0.2617
   38MOL   H22121015   4.265   0.801   1.060  2.7996  1.6319 -0.4608
   38MOL   H22221016   4.296   0.848   1.282  1.7723  1.2528  0.4274
   38MOL   H22321017   4.140   0.930   1.308 -0.7393  0.9517 -1.6913
   38MOL   H22421018   4.308   0.978   1.489  1.5522  0.0594 -0.3589
   38MOL   H22521019   4.254   1.117   1.416 -0.2132 -0.6629  0.6114
   38MOL   O22621020   4.065   0.867   1.072 -0.2723  0.1268 -0.0799
   38MOL   C22721021   3.978   0.963   1.018 -0.0021 -0.4112  0.2908
   38MOL   C22821022   3.833   0.933   1.065  0.1586  0.2737 -0.0160
   38MOL   O22921023   3.780   0.810   1.010  0.2627 -0.4399 -0.3782
   38MOL   C23021024   3.834   0.941   1.221 -0.2228  0.5374 -0.1387
   38MOL   C23121025   3.702   0.886   1.280 -0.3081  0.2550  0.7573
   38MOL   C23221026   3.691   0.895   1.433 -0.0345  0.1225  0.4583
   38MOL   O23321027   3.563   0.843   1.473  0.0402 -0.2455 -0.1209
   38MOL   C23421028   3.708   1.045   1.474  0.2781  0.2176 -0.6802
   38MOL   C23521029   3.699   1.069   1.623 -0.3732 -0.4495 -0.3357
   38MOL   C23621030   3.844   1.093   1.431 -0.0807  0.1351  0.3488
   38MOL   C23721031   3.865   1.087   1.281 -0.7838 -0.0472  0.3197
   38MOL   H23821032   3.975   0.961   0.909  1.2101 -2.0873  0.2670
   38MOL   H23921033   4.010   1.067   1.029  0.1137 -0.5509  1.2844
   38MOL   H24021034   3.757   1.003   1.030 -2.2503 -2.6027 -0.8040
   38MOL   H24121035   3.842   0.742   1.033 -1.2186 -1.2766  1.1982
   38MOL   H24221036   3.916   0.889   1.270 -1.4765 -1.4244 -0.0787
   38MOL   H24321037   3.623   0.948   1.237 -0.4023  0.0129  0.5837
   38MOL   H24421038   3.696   0.779   1.262 -0.9969  0.3593  0.3434
   38MOL   H24521039   3.770   0.836   1.480  0.5223  0.9534  0.5879
   38MOL   H24621040   3.491   0.875   1.419  0.5248  0.0839 -0.5803
   38MOL   H24721041   3.630   1.104   1.425 -0.6706  1.0720  1.7636
   38MOL   H24821042   3.608   1.026   1.666 -1.4810  0.8233 -1.3684
   38MOL   H24921043   3.764   1.015   1.691  0.6495  1.3099  0.1175
   38MOL   H25021044   3.918   1.030   1.480  1.2800  1.3056 -0.1572
   38MOL   H25121045   3.875   1.192   1.464 -2.3603  1.3284 -0.9408
   38MOL   H25221046   3.967   1.118   1.255 -0.6684 -0.2459  0.5326
   38MOL   H25321047   3.799   1.162   1.238  2.1489  1.9875 -0.8580
   38MOL   O25421048   3.693   1.204   1.636 -0.0164 -0.2634  0.0086
   38MOL   C25521049   3.656   1.240   1.770 -0.0767  0.6148  0.6275
   38MOL   C25621050   3.709   1.380   1.791 -0.4886 -0.3120  0.1436
   38MOL   O25721051   3.644   1.450   1.902 -0.0394  0.3823  0.4763
   38MOL   C25821052   3.864   1.398   1.792  0.4679  0.8140  0.0119
   38MOL   C25921053   3.938   1.345   1.670  0.2485 -0.1716  0.3679
   38MOL   C26021054   4.080   1.393   1.665 -0.0035 -0.0364  1.1367
   38MOL   O26121055   4.133   1.312   1.569 -0.1023 -0.7086 -0.2116
   38MOL   C26221056   4.156   1.376   1.805 -0.1307 -0.5166 -0.4957
   38MOL   C26321057   4.301   1.426   1.815 -0.7946 -0.2634  0.6909
   38MOL   C26421058   4.076   1.435   1.926 -0.3242 -0.1426 -0.6233
   38MOL   C26521059   3.931   1.385   1.930 -0.3920  0.0563 -1.0496
   38MOL   H26621060   3.694   1.177   1.851 -2.4282 -1.6704  0.0107
   38MOL   H26721061   3.549   1.243   1.788 -0.3148 -2.7567 -0.0326
   38MOL   H26821062   3.675   1.428   1.699 -0.5755  1.6760  1.2056
   38MOL   H26921063   3.570   1.496   1.865  0.2868 -1.7092 -2.9818
   38MOL   H27021064   3.880   1.504   1.775 -0.3004  1.2053  1.6469
   38MOL   H27121065   3.928   1.236   1.677 -1.2055 -0.0930 -0.2372
   38MOL   H27221066   3.890   1.387   1.582  1.1599 -0.0736 -0.0796
   38MOL   H27321067   4.084   1.497   1.633 -1.8051 -0.1054  0.6093
   38MOL   H27421068   4.142   1.228   1.612  2.6277 -0.8391 -0.9626
   38MOL   H27521069   4.158   1.267   1.814  0.7624 -0.6471 -2.1129
   38MOL   H27621070   4.359   1.384   1.733 -1.2216 -1.4670  1.0002
   38MOL   H27721071   4.291   1.534   1.806  0.6645 -0.0972  0.9746
   38MOL   H27821072   4.075   1.543   1.916 -0.0078 -0.0634  0.1629
   38MOL   H27921073   4.126   1.409   2.020  0.4094  2.5099 -0.2422
   38MOL   H28021074   3.875   1.431   2.012  0.2631 -0.4122 -0.3257
   38MOL   H28121075   3.939   1.280   1.957 -3.1259  0.6908  2.5336
   38MOL   O28221076   4.363   1.381   1.936  0.0971 -0.1853  0.1856
   38MOL   C28321077   4.503   1.413   1.932  0.4411 -0.3079 -0.6214
   38MOL   C28421078   4.533   1.379   2.080 -0.1952  1.0283  0.3262
   38MOL   O28521079   4.511   1.245   2.092 -0.0839  0.3790 -0.4381
   38MOL   C28621080   4.676   1.412   2.126  0.0321  0.4414 -0.0792
   38MOL   C28721081   4.708   1.567   2.101  0.1626  0.5109 -0.0699
   38MOL   C28821082   4.841   1.605   2.174 -0.1998 -0.1760 -0.1871
   38MOL   O28921083   4.867   1.744   2.161 -0.5615 -0.4523 -0.0182
   38MOL   C29021084   4.971   1.519   2.145  0.2653  0.3434 -0.0037
   38MOL   C29121085   5.090   1.541   2.243  0.3615  0.5912 -0.6517
   38MOL   C29221086   4.928   1.372   2.134 -0.4419 -0.2949 -0.7609
   38MOL   C29321087   4.802   1.337   2.066  0.3771  0.6266  0.4899
   38MOL   H29421088   4.518   1.517   1.902 -0.0854 -0.1424 -0.3186
   38MOL   H29521089   4.565   1.349   1.870  1.8037  0.9610 -0.5992
   38MOL   H29621090   4.472   1.424   2.158  1.3078  0.3178  1.9536
   38MOL   H29721091   4.435   1.230   2.037  0.2008 -2.6170 -0.0918
   38MOL   H29821092   4.665   1.380   2.229  0.4754  0.4118 -0.0386
   38MOL   H29921093   4.705   1.588   1.994  1.7054 -2.2653 -0.7059
   38MOL   H30021094   4.628   1.631   2.139 -1.2187  0.0062 -2.0354
   38MOL   H30121095   4.818   1.596   2.280  0.4602  0.4840  0.0150
   38MOL   H30221096   4.862   1.768   2.070 -2.2409 -1.3047 -0.1614
   38MOL   H30321097   4.986   1.556   2.043 -0.8012  3.9527  1.0915
   38MOL   H30421098   5.114   1.646   2.257  0.6831  0.6032 -1.2489
   38MOL   H30521099   5.056   1.497   2.337 -1.2248  1.4615 -0.7948
   38MOL   H30621100   4.913   1.333   2.235 -0.6062 -0.2083 -0.7518
   38MOL   H30721101   5.008   1.317   2.085  0.9929  0.9568  0.1282
   38MOL   H30821102   4.787   1.229   2.064 -0.5481  0.7765 -1.6805
   38MOL   H30921103   4.811   1.362   1.961  0.5874  0.6470  0.5126
   38MOL   O31021104   5.202   1.471   2.199  0.2296  0.0508  0.0121
   38MOL   C31121105   5.310   1.473   2.291 -0.0828  0.1227  0.5264
   38MOL   C31221106   5.440   1.407   2.236  0.8538 -0.5333  0.6185
   38MOL   O31321107   5.533   1.410   2.350 -0.0423 -0.2221  0.0093
   38MOL   C31421108   5.424   1.268   2.175 -0.8148  0.7735 -0.2250
   38MOL   C31521109   5.344   1.172   2.251  0.2836  0.0690  0.5100
   38MOL   C31621110   5.306   1.047   2.164  0.0582 -0.3857 -0.3436
   38MOL   O31721111   5.229   0.966   2.251  0.0383 -0.4821 -0.2357
   38MOL   C31821112   5.439   0.980   2.113 -0.1771  0.2811  0.0255
   38MOL   C31921113   5.407   0.855   2.024  0.6001 -0.0647  0.5129
   38MOL   C32021114   5.533   1.082   2.046 -0.0692  0.3830 -0.6118
   38MOL   C32121115   5.558   1.209   2.133 -0.0024 -0.2369 -0.6467
   38MOL   H32221116   5.292   1.425   2.387 -3.3022  0.4140  0.0938
   38MOL   H32321117   5.338   1.578   2.299 -1.5729  0.6444 -0.8387
   38MOL   H32421118   5.473   1.470   2.154 -1.4585 -0.7442 -0.5042
   38MOL   H32521119   5.496   1.388   2.434 -1.6185 -0.2067 -0.6688
   38MOL   H32621120   5.378   1.279   2.077  0.1135 -0.7412 -0.8472
   38MOL   H32721121   5.394   1.143   2.343  2.3287  3.6048  0.6176
   38MOL   H32821122   5.253   1.221   2.283  1.0076  0.6242  1.7476
   38MOL   H32921123   5.238   1.072   2.082  1.9685  1.1673 -1.4944
   38MOL   H33021124   5.287   0.917   2.307  2.4732  0.6595 -1.6464
   38MOL   H33121125   5.488   0.943   2.203 -0.2939 -1.2662 -0.5408
   38MOL   H33221126   5.356   0.777   2.080 -0.2320 -0.8701 -1.3376
   38MOL   H33321127   5.345   0.879   1.938  0.7487 -1.4376  0.0221
   38MOL   H33421128   5.501   1.120   1.950  1.6123 -0.2881 -1.4611
   38MOL   H33521129   5.629   1.031   2.041 -1.1778 -1.6892 -1.3467
   38MOL   H33621130   5.615   1.279   2.074 -0.5502 -0.6549 -1.6863
   38MOL   H33721131   5.618   1.191   2.222 -2.4440 -0.3507  1.0342
   38MOL   O33821132   5.524   0.800   1.980 -0.3249  0.6786  0.7191
   38MOL   C33921133   5.492   0.693   1.885 -0.8726 -0.8143 -0.3479
   38MOL   C34021134   5.626   0.642   1.834  0.4287  0.3571  0.6929
   38MOL   O34121135   5.664   0.574   1.953 -0.0128  0.1076 -0.3398
   38MOL   C34221136   5.628   0.543   1.717 -0.1806  0.0687  0.0879
   38MOL   C34321137   5.764   0.473   1.709 -0.5699 -0.0190 -1.3212
   38MOL   C34421138   5.789   0.390   1.587 -0.0155  0.8073  0.9014
   38MOL   O34521139   5.923   0.357   1.583 -0.1665  0.2224  0.0642
   38MOL   C34621140   5.745   0.462   1.452 -0.0906 -0.7791 -0.5641
   38MOL   C34721141   5.765   0.368   1.327  0.2822  0.2727  0.2145
   38MOL   C34821142   5.603   0.508   1.467 -0.4503  0.0733 -0.4197
   38MOL   C34921143   5.583   0.610   1.583  0.6790  0.5840 -1.1966
   38MOL   H35021144   5.434   0.732   1.802 -1.8433 -0.5973  0.4158
   38MOL   H35121145   5.423   0.616   1.920 -1.0647 -0.4297  0.1366
   38MOL   H35221146   5.696   0.725   1.825 -0.1284  0.7059 -0.5993
   38MOL   H35321147   5.612   0.618   2.018  0.5646  0.3795 -0.0553
   38MOL   H35421148   5.559   0.458   1.726 -0.5984  0.4960  1.0053
   38MOL   H35521149   5.846   0.545   1.706 -0.6968  0.2250  0.5163
   38MOL   H35621150   5.779   0.403   1.792 -1.7897 -1.5601 -2.3637
   38MOL   H35721151   5.735   0.295   1.590 -0.4013  0.9939  0.0699
   38MOL   H35821152   5.934   0.264   1.598 -1.1493 -0.2588 -2.0963
   38MOL   H35921153   5.804   0.552   1.440 -0.0300 -0.7882 -0.3439
   38MOL   H36021154   5.872   0.348   1.342 -0.1119 -0.1182  2.8846
   38MOL   H36121155   5.707   0.275   1.330 -0.3554  0.6770  0.4363
   38MOL   H36221156   5.538   0.421   1.478  0.1302 -0.2611  0.5181
   38MOL   H36321157   5.573   0.560   1.377  2.6960  1.4847 -0.7217
   38MOL   H36421158   5.480   0.647   1.584  0.6339  0.4715 -1.6539
   38MOL   H36521159   5.649   0.694   1.567 -0.3868  1.2740 -2.0345
   38MOL   O36621160   5.740   0.442   1.209 -0.1511 -0.1549  0.2250
   38MOL   C36721161   5.629   0.396   1.141 -0.5375  0.0489 -0.2564
   38MOL   C36821162   5.601   0.482   1.020  0.1778  0.1148 -0.4670
   38MOL   O36921163   5.721   0.485   0.947  0.3236 -0.7324 -0.3715
   38MOL   C37021164   5.479   0.450   0.927 -0.8869  0.0709  0.0938
   38MOL   C37121165   5.470   0.548   0.806 -0.3666 -0.4976 -0.8914
   38MOL   C37221166   5.363   0.504   0.702  0.5125  0.5933  0.4888
   38MOL   O37321167   5.370   0.600   0.594 -0.0150  0.1135  0.5687
   38MOL   C37421168   5.216   0.500   0.770 -0.1993 -0.7010  0.0980
   38MOL   C37521169   5.112   0.443   0.675 -0.2968 -0.2710  0.3388
   38MOL   C37621170   5.222   0.416   0.906 -0.2652 -0.4598 -0.1893
   38MOL   C37721171   5.343   0.447   0.997  0.1053 -0.2678  0.1656
   38MOL   H37821172   5.540   0.387   1.204 -2.1529  1.2779 -2.2835
   38MOL   H37921173   5.649   0.294   1.111  1.3267 -0.4300  2.4633
   38MOL   H38021174   5.586   0.581   1.062  2.4540  0.1427  0.3234
   38MOL   H38121175   5.788   0.429   0.985 -0.0432 -0.2510  1.0223
   38MOL   H38221176   5.507   0.354   0.884  1.7518  0.9310 -0.2176
   38MOL   H38321177   5.443   0.650   0.836 -0.7535 -1.2643  1.4733
   38MOL   H38421178   5.571   0.544   0.766  0.6794  1.9001  1.2772
   38MOL   H38521179   5.374   0.401   0.666 -1.3400  1.3489 -2.3316
   38MOL   H38621180   5.343   0.687   0.618  1.5026  0.5893  0.5835
   38MOL   H38721181   5.189   0.600   0.803  1.5446  0.0210 -0.6420
   38MOL   H38821182   5.135   0.467   0.571 -2.1890  0.6599  0.1155
   38MOL   H38921183   5.112   0.334   0.674 -0.7278 -0.2827 -2.3472
   38MOL   H39021184   5.231   0.312   0.874  0.3235 -0.0991 -1.2008
   38MOL   H39121185   5.128   0.429   0.960  0.5789  0.3402  1.1242
   38MOL   H39221186   5.344   0.382   1.084  1.2168  2.6319  2.4082
   38MOL   H39321187   5.323   0.542   1.047  0.2018 -0.5190  0.6762
   38MOL   O39421188   4.989   0.505   0.688 -0.7008 -0.1760  0.2021
   38MOL   C39521189   4.883   0.423   0.640 -0.5084 -0.0743 -0.1111
   38MOL   C39621190   4.746   0.491   0.651 -0.1877 -0.1625  0.5978
   38MOL   O39721191   4.637   0.415   0.587  0.5094  0.6004 -0.5971
   38MOL   C39821192   4.717   0.547   0.779  0.3006  0.1229 -0.0182
   38MOL   C39921193   4.700   0.444   0.895 -0.4498  0.3444  0.3735
   38MOL   C40021194   4.683   0.509   1.030  1.2147  0.8230  0.1293
   38MOL   O40121195   4.656   0.400   1.130  0.3716 -0.0610  0.9172
   38MOL   C40221196   4.552   0.597   1.028  0.4267  0.3941  0.3142
   38MOL   C40321197   4.536   0.672   1.163 -0.3486  0.6641 -0.0137
   38MOL   C40421198   4.543   0.702   0.907 -0.3608  0.2493  0.1718
   38MOL   C40521199   4.581   0.629   0.775  0.9344  0.6861  0.0090
   38MOL   H40621200   4.894   0.334   0.702 -0.4040  0.1657  0.2127
   38MOL   H40721201   4.907   0.405   0.535 -1.1645  0.3179 -0.3360
   38MOL   H40821202   4.764   0.574   0.583  1.9828 -1.1208 -0.0808
   38MOL   H40921203   4.666   0.335   0.545 -0.2360 -1.5215  2.7363
   38MOL   H41021204   4.793   0.622   0.800  1.4103 -0.6263 -1.3033
   38MOL   H41121205   4.634   0.360   0.870  0.8243 -0.0714 -1.7662
   38MOL   H41221206   4.790   0.383   0.896 -0.9708 -0.4278  1.9110
   38MOL   H41321207   4.766   0.573   1.061 -0.3335  1.4697  3.1740
   38MOL   H41421208   4.633   0.455   1.202 -1.3557  1.9410 -1.0759
   38MOL   H41521209   4.469   0.525   1.027  0.2534  0.5441  1.8687
   38MOL   H41621210   4.625   0.733   1.183 -1.1113  2.1579 -1.0619
   38MOL   H41721211   4.448   0.735   1.153 -0.1517  0.9561  0.0771
   38MOL   H41821212   4.611   0.781   0.938  1.9990 -0.1699 -3.5637
   38MOL   H41921213   4.447   0.753   0.900 -0.1297  0.6657 -0.0267
   38MOL   H42021214   4.598   0.710   0.703 -1.9642  0.7524 -0.6423
   38MOL   H42121215   4.498   0.562   0.752 -1.3834  4.0511 -1.8757
   38MOL   O42221216   4.515   0.593   1.274  0.3144  0.3419 -0.2594
   38MOL   C42321217   4.542   0.663   1.391 -0.1135  0.0850 -0.6286
   38MOL   C42421218   4.493   0.582   1.505 -0.1141  0.9530 -0.4148
   38MOL   O42521219   4.361   0.550   1.475  0.4251 -0.0884 -0.6166
   38MOL   C42621220   4.576   0.452   1.552  0.1218  0.6115 -0.8999
   38MOL   C42721221   4.545   0.332   1.462 -0.0442 -0.3096  0.0329
   38MOL   C42821222   4.620   0.200   1.509 -0.3261 -0.2140 -0.6746
   38MOL   O42921223   4.576   0.091   1.423  0.1595 -1.0535 -0.2864
   38MOL   C43021224   4.583   0.167   1.659  0.1269  1.1012  0.3249
   38MOL   C43121225   4.639   0.035   1.707  0.1021 -0.3812  0.7121
   38MOL   C43221226   4.603   0.287   1.752  0.3097 -0.5813 -0.7852
   38MOL   C43321227   4.539   0.417   1.696  0.1880  0.3197 -0.1454
   38MOL   H43421228   4.497   0.763   1.396 -0.2458  0.0305 -0.7242
   38MOL   H43521229   4.650   0.678   1.394 -0.2595  1.1539 -0.5971
   38MOL   H43621230   4.510   0.650   1.588 -1.0290  2.6269 -1.5747
   38MOL   H43721231   4.368   0.491   1.401 -0.1815  0.4055 -1.0696
   38MOL   H43821232   4.684   0.468   1.561  0.4014 -1.8680  0.8459
   38MOL   H43921233   4.440   0.312   1.483  0.3031 -2.2580  0.0143
   38MOL   H44021234   4.550   0.352   1.355 -1.9355  1.2648  0.2089
   38MOL   H44121235   4.728   0.200   1.493 -0.2259  1.9317 -0.1052
   38MOL   H44221236   4.621   0.109   1.342  0.3530 -1.1699 -0.2060
   38MOL   H44321237   4.474   0.165   1.661  0.0939  1.0128 -1.1050
   38MOL   H44421238   4.647   7.586   1.632 -1.1896  0.4346 -0.2805
   38MOL   H44521239   4.735   0.066   1.750  0.5595 -0.8400  0.0387
   38MOL   H44621240   4.710   0.298   1.768 -0.1201 -1.0227  2.7961
   38MOL   H44721241   4.565   0.263   1.852 -0.2672 -1.6695 -1.2529
   38MOL   H44821242   4.575   0.498   1.759 -1.9495  0.9363  0.3153
   38MOL   H44921243   4.434   0.406   1.720  0.1520  1.1016  0.0636
   38MOL   O45021244   4.561   7.629   1.818  0.4987 -0.4062 -0.5339
   38MOL   C45121245   4.572   7.490   1.864 -0.4195 -0.2912 -0.1512
   38MOL   C45221246   4.489   7.483   1.995  0.0672 -0.5628 -0.2029
   38MOL   O45321247   4.422   7.353   2.004 -0.0471 -0.2553  0.1163
   38MOL   C45421248   4.562   7.513   2.129  0.0306  0.3238  0.3308
   38MOL   C45521249   4.656   7.398   2.175  0.4763  0.2484 -0.3928
   38MOL   C45621250   4.721   7.430   2.311 -0.2241 -0.8523 -0.2829
   38MOL   O45721251   4.796   7.317   2.341 -0.2100  0.2565  0.0487
   38MOL   C45821252   4.614   7.464   2.419  0.2520 -0.1119  0.6442
   38MOL   C45921253   4.676   7.475   2.559  1.0580 -0.1634 -0.1053
   38MOL   C46021254   4.533   7.589   2.371 -0.3099  0.5582 -0.4950
   38MOL   C46121255   4.462   7.569   2.237 -0.5745 -0.3264 -0.3331
   38MOL   H46221256   4.678   7.471   1.876 -0.7115 -0.2976  2.9111
   38MOL   H46321257   4.538   7.431   1.779  3.7954  0.9986 -2.8414
   38MOL   H46421258   4.409   7.557   1.991  0.9499  0.6020  2.7331
   38MOL   H46521259   4.489   7.287   1.996 -0.2276 -0.8117  2.7563
   38MOL   H46621260   4.621   7.604   2.118  1.3842 -0.4937  0.7544
   38MOL   H46721261   4.602   7.305   2.192  0.7431 -0.0335 -1.0903
   38MOL   H46821262   4.736   7.377   2.104  0.9476 -1.5335  0.6391
   38MOL   H46921263   4.794   7.511   2.302  1.0182 -1.6323  2.4627
   38MOL   H47021264   4.739   7.244   2.362  0.9955 -0.4863  0.8178
   38MOL   H47121265   4.543   7.382   2.426  0.3850 -0.6516 -3.2450
   38MOL   H47221266   4.594   7.503   2.625 -0.1175  0.3488 -1.7361
   38MOL   H47321267   4.731   7.382   2.573  1.2548 -0.2705 -1.4880
   38MOL   H47421268   4.597   0.048   2.364  0.5273  0.0438  0.5052
   38MOL   H47521269   4.463   0.002   2.443 -1.4816 -0.1918 -1.1804
   38MOL   H47621270   4.421   0.035   2.204  2.9049  0.9696 -1.1482
   38MOL   H47721271   4.378   7.501   2.251 -2.5433  2.2686  1.0435
   38MOL   O47821272   4.776   7.585   2.560 -0.0051  0.1076  0.2209
   38MOL   C47921273   4.900   7.549   2.614 -0.2460  0.9462  0.0839
   38MOL   C48021274   4.998   0.040   2.593 -0.0014  0.5905 -0.7700
   38MOL   O48121275   4.920   0.130   2.665  0.2487 -0.1962  1.3084
   38MOL   C48221276   5.139   0.017   2.658 -0.0961 -0.6838 -0.0700
   38MOL   C48321277   5.222   0.144   2.636  0.5262 -0.2741 -0.4266
   38MOL   C48421278   5.364   0.130   2.703  0.1523 -0.0519 -0.0830
   38MOL   O48521279   5.427   0.251   2.674 -0.4790 -0.8309  0.4982
   38MOL   C48621280   5.439   0.010   2.647  0.0028 -0.3853  0.3941
   38MOL   C48721281   5.588   0.013   2.691  0.0103  0.1783  0.5086
   38MOL   C48821282   5.360   7.511   2.675  0.3912 -0.2402 -0.1626
   38MOL   C48921283   5.216   7.526   2.602  0.1280  0.5523  0.0700
   38MOL   H49021284   4.940   7.465   2.558  0.6980  0.8625  0.8740
   38MOL   H49121285   4.897   7.512   2.717  0.3466 -0.2970 -0.3443
   38MOL   H49221286   5.005   0.069   2.488 -1.7526  0.5826 -0.9059
   38MOL   H49321287   4.839   0.086   2.688 -1.0320  0.4585 -1.7171
   38MOL   H49421288   5.124   0.005   2.766  3.2967  2.0617  0.7964
   38MOL   H49521289   5.222   0.170   2.530  0.4678  2.1989  0.1428
   38MOL   H49621290   5.169   0.228   2.682  0.0202 -1.0411  0.3915
   38MOL   H49721291   5.349   0.110   2.810 -2.4047 -0.2418 -0.4500
   38MOL   H49821292   5.454   0.286   2.758  0.4437  0.1878 -0.1967
   38MOL   H49921293   5.435   0.022   2.538 -2.1988  0.7276  0.5604
   38MOL   H50021294   5.656   0.095   2.668 -1.0942  0.7454 -0.7784
   38MOL   H50121295   5.581   0.013   2.800 -1.5810  0.8056  0.4132
   38MOL   H50221296   5.343   7.503   2.783 -0.9824 -0.0226 -0.3435
   38MOL   H50321297   5.411   7.428   2.628 -1.5959 -0.2001 -2.4922
   38MOL   H50421298   5.154   7.439   2.618  1.8931 -0.7164  0.2277
   38MOL   H50521299   5.226   7.533   2.493  0.6294 -0.2090  0.0656
   38MOL   O50621300   5.642   7.514   2.656  0.1640  0.5135  0.3939
   38MOL   C50721301   5.749   7.509   2.566 -0.3029  0.1482  0.0147
   38MOL   C50821302   5.762   7.360   2.534 -0.4089 -0.1136  0.5505
   38MOL   O50921303   5.654   7.315   2.460 -0.2977 -0.3745 -0.3897
   38MOL   C51021304   5.888   7.324   2.449  0.2398 -0.1157 -0.8664
   38MOL   C51121305   6.025   7.344   2.523  0.2877  0.8715 -0.4288
   38MOL   C51221306   6.138   7.286   2.436 -0.0187 -0.1487 -0.0786
   38MOL   O51321307   6.257   7.283   2.509  0.5095 -0.0306 -0.2888
   38MOL   C51421308   6.158   7.374   2.298  0.2866  0.6875 -0.2938
   38MOL   C51521309   6.276   7.327   2.212  0.1160  0.0315  0.3764
   38MOL   C51621310   6.024   7.358   2.230 -0.0673  0.2580 -0.3195
   38MOL   C51721311   5.896   7.389   2.312  0.0438 -0.0407  0.1822
   38MOL   H51821312   5.835   7.538   2.626 -1.0066 -1.3029  1.7640
   38MOL   H51921313   5.741   7.578   2.482  2.0580  0.4115 -0.0534
   38MOL   H52021314   5.761   7.303   2.626 -1.6088 -0.3125  0.4118
   38MOL   H52121315   5.581   7.356   2.502  0.8286  1.8645 -0.5492
   38MOL   H52221316   5.873   7.216   2.449  2.7552 -0.4903 -0.3564
   38MOL   H52321317   6.047   7.449   2.537  1.2352  0.8097 -1.3421
   38MOL   H52421318   6.017   7.303   2.624  0.5036  0.1860 -0.6846
   38MOL   H52521319   6.128   7.182   2.404  1.2341 -0.0647 -0.8070
   38MOL   H52621320   6.317   7.218   2.477 -0.0794 -0.4866 -0.4917
   38MOL   H52721321   6.183   7.477   2.322 -2.6084  1.7407 -1.5115
   38MOL   H52821322   6.278   7.395   2.126  0.1167 -0.9598 -0.4146
   38MOL   H52921323   6.373   7.344   2.259  0.1400  0.1114  0.3003
   38MOL   H53021324   6.000   7.262   2.185 -1.6794  0.2389  0.5679
   38MOL   H53121325   6.022   7.425   2.144 -1.6034  1.8670  0.9269
   38MOL   H53221326   5.811   7.367   2.247 -0.8336 -0.1222  1.3375
   38MOL   H53321327   5.886   7.496   2.328 -1.9849 -0.0847 -0.5979
   38MOL   O53421328   6.256   7.197   2.155  0.4026 -0.4145 -0.3760
   38MOL   C53521329   6.284   7.183   2.019  0.3471  0.6435 -0.1661
   38MOL   C53621330   6.302   7.038   1.978 -0.6339 -0.0476  0.3518
   38MOL   O53721331   6.424   7.006   2.047 -0.0196  0.1746  0.0651
   38MOL   C53821332   6.181   6.950   2.012 -0.0075 -0.1314 -0.1470
   38MOL   C53921333   6.221   6.801   2.008  1.1888 -0.3538 -0.4866
   38MOL   C54021334   6.098   6.708   2.030 -0.0165 -0.8357  0.0698
   38MOL   O54121335   6.139   6.579   2.009  0.4742  0.0700 -0.2996
   38MOL   C54221336   5.976   6.738   1.934 -0.2720  0.4615  0.0541
   38MOL   C54321337   5.856   6.650   1.957 -0.2390 -0.1323  0.1000
   38MOL   C54421338   5.941   6.891   1.933  0.2384  0.5500  0.2236
   38MOL   C54521339   6.064   6.988   1.922 -0.0186 -0.5141  0.2149
   38MOL   H54621340   6.379   7.232   1.997  0.9978 -0.7203 -0.4437
   38MOL   H54721341   6.201   7.241   1.976  0.5569  0.3401 -0.9919
   38MOL   H54821342   6.320   7.043   1.870 -2.3991  0.1328  0.0433
   38MOL   H54921343   6.404   7.050   2.128  0.6370 -0.0054  0.3202
   38MOL   H55021344   6.139   6.967   2.111 -1.5533  0.4196 -0.8881
   38MOL   H55121345   6.264   6.780   1.910  1.0534 -0.8074 -0.4505
   38MOL   H55221346   6.293   6.788   2.089  1.0450  2.7825  0.2080
   38MOL   H55321347   6.064   6.716   2.133  2.8480  1.3505  0.8893
   38MOL   H55421348   6.086   6.525   2.065  1.5393  0.3867  1.0346
   38MOL   H55521349   5.997   6.737   1.827  1.4559  1.7110  0.3436
   38MOL   H55621350   5.863   6.549   1.917  0.7000  0.0076 -0.1059
   38MOL   H55721351   5.839   6.638   2.064 -0.1595 -0.4665  0.0752
   38MOL   H55821352   5.888   6.910   2.026 -0.3891  0.8587 -0.1950
   38MOL   H55921353   5.859   6.908   1.863 -0.4926 -1.7083  0.4998
   38MOL   H56021354   6.042   7.093   1.944  0.8742 -0.2869  0.0791
   38MOL   H56121355   6.106   6.990   1.821 -0.3075 -0.5847  0.0941
   38MOL   H56221356   5.768   6.702   1.921  0.3243  0.8360  0.0949
   39MOL     O121357   7.122   6.107   5.632  0.4359  0.5128  0.1494
   39MOL     C221358   7.196   5.988   5.656 -0.1251 -0.3146 -0.4677
   39MOL     C321359   7.236   5.994   5.811 -0.4860  0.2608  0.1850
   39MOL     O421360   7.122   6.010   5.881 -0.2774 -0.4768 -0.2803
   39MOL     C521361   7.308   5.871   5.869 -0.8280  0.2781 -1.3867
   39MOL     C621362   7.367   5.899   6.010  0.0979 -0.0739  0.3965
   39MOL     C721363   7.443   5.770   6.061 -0.4413 -0.3324  0.2694
   39MOL     O821364   7.501   5.791   6.188  0.1417  0.6783  0.5306
   39MOL     C921365   7.547   5.720   5.967  0.1479  0.3379 -0.3794
   39MOL    C1021366   7.603   5.590   6.016 -0.3520 -0.3393 -1.1090
   39MOL    C1121367   7.497   5.700   5.827 -0.2760 -0.6256 -0.2008
   39MOL    C1221368   7.422   5.827   5.781 -0.1989 -0.0597 -0.1712
   39MOL    H1321369   7.285   5.982   5.594 -0.0588  0.9095 -0.4924
   39MOL    H1421370   7.124   5.907   5.641 -0.9422  0.2818  0.2113
   39MOL    H1521371   7.302   6.080   5.822 -0.3716  0.1590  0.2978
   39MOL    H1621372   7.143   6.035   5.969 -0.4159  0.1807 -0.4320
   39MOL    H1721373   7.241   5.785   5.863  0.8744 -1.2220  0.3456
   39MOL    H1821374   7.433   5.985   6.002 -1.3079  1.0460  0.5649
   39MOL    H1921375   7.280   5.920   6.072  0.2928 -2.1439  1.4282
   39MOL    H2021376   7.371   5.688   6.069 -0.9681  0.3981  3.7322
   39MOL    H2121377   7.564   5.860   6.175 -0.3370  1.0259  0.0122
   39MOL    H2221378   7.625   5.796   5.960 -0.1801  0.5793 -1.5121
   39MOL    H2321379   0.032   5.590   6.108 -2.3187  0.5570  0.1643
   39MOL    H2421380   7.524   5.517   6.029 -2.1875  1.9260  0.7955
   39MOL    H2521381   7.416   5.627   5.821  1.6724 -2.7996 -0.7217
   39MOL    H2621382   7.574   5.679   5.753  0.3325 -0.1680  0.2870
   39MOL    H2721383   7.377   5.787   5.689 -0.3966 -0.2702  0.0150
   39MOL    H2821384   7.492   5.910   5.774  1.3715 -1.1636  1.9618
   39MOL    H2921385   7.062   6.119   5.704 -1.0323 -1.2377 -0.7392
   39MOL    O3021386   0.064   5.534   5.916 -0.0985 -0.4864  0.3333
   39MOL    C3121387   0.188   5.604   5.903  0.7094 -0.2995  0.0539
   39MOL    C3221388   0.295   5.519   5.842  0.5282  0.1294 -0.1436
   39MOL    O3321389   0.267   5.517   5.705  0.2207  0.4774  0.7448
   39MOL    C3421390   0.443   5.582   5.864  0.5102  0.0194  0.2891
   39MOL    C3521391   0.550   5.554   5.762 -0.4565  0.2479  0.0120
   39MOL    C3621392   0.691   5.611   5.793  0.4852  0.9246 -0.5168
   39MOL    O3721393   0.771   5.570   5.685  0.0629 -0.8437 -0.2236
   39MOL    C3821394   0.740   5.565   5.934 -0.3569  0.0483  0.3425
   39MOL    C3921395   0.877   5.636   5.974 -0.1837  0.0730  0.6864
   39MOL    C4021396   0.638   5.592   6.045 -0.2510  0.2283 -0.5517
   39MOL    C4121397   0.496   5.544   6.007  0.9805 -0.4405  0.6344
   39MOL    H4221398   0.214   5.624   6.007 -1.3801  0.6881  0.4238
   39MOL    H4321399   0.180   5.706   5.866 -0.4399 -1.1791 -2.2207
   39MOL    H4421400   0.292   5.425   5.896 -3.0978  0.3026  0.0754
   39MOL    H4521401   0.189   5.569   5.696 -0.5604 -0.7115  0.4056
   39MOL    H4621402   0.423   5.688   5.855  1.7083  0.1417 -1.1616
   39MOL    H4721403   0.558   5.445   5.766 -1.4226  0.1340 -0.8752
   39MOL    H4821404   0.520   5.585   5.662 -0.9817 -0.0443  0.0785
   39MOL    H4921405   0.681   5.719   5.799  1.6911  1.0430 -0.3834
   39MOL    H5021406   0.778   5.644   5.627 -0.6459  1.2633  2.2836
   39MOL    H5121407   0.747   5.456   5.927  1.4660  0.1193  0.8513
   39MOL    H5221408   0.943   5.615   5.890 -0.3863 -1.0123  0.7824
   39MOL    H5321409   0.870   5.743   5.990 -1.6951  0.1569 -0.4838
   39MOL    H5421410   0.640   5.697   6.074 -3.1113  0.0977  0.2455
   39MOL    H5521411   0.676   5.540   6.134  1.6328  1.2139 -0.7549
   39MOL    H5621412   0.431   5.567   6.092  0.6070  0.9954 -0.0146
   39MOL    H5721413   0.496   5.436   6.011  0.2644 -0.3964  1.9597
   39MOL    O5821414   0.928   5.563   6.088  0.6553 -0.0038  0.4280
   39MOL    C5921415   1.073   5.572   6.092 -0.2252  0.2160 -0.1884
   39MOL    C6021416   1.111   5.590   6.240 -0.9468  0.0784  0.5083
   39MOL    O6121417   1.250   5.580   6.261  0.4365 -0.9769  0.0274
   39MOL    C6221418   1.051   5.717   6.321 -0.5618 -0.3030  0.1870
   39MOL    C6321419   0.905   5.706   6.349  0.4036 -0.1625  0.6622
   39MOL    C6421420   0.856   5.825   6.434  1.0991 -0.2124 -0.5545
   39MOL    O6521421   0.715   5.809   6.440  0.2468  0.3078 -0.2533
   39MOL    C6621422   0.881   5.963   6.368 -0.1712  0.6430 -0.0120
   39MOL    C6721423   0.821   6.077   6.459 -0.1022 -0.3627 -0.4292
   39MOL    C6821424   1.034   5.975   6.336 -0.4154 -0.2198  0.8857
   39MOL    C6921425   1.093   5.853   6.264 -0.1962 -0.5480  0.4911
   39MOL    H7021426   1.129   5.649   6.039 -1.3044  0.6112 -0.7613
   39MOL    H7121427   1.120   5.482   6.051  0.3768  0.5877 -0.3091
   39MOL    H7221428   1.070   5.500   6.286  1.1153 -2.5648 -2.6498
   39MOL    H7321429   1.294   5.639   6.201  2.3718  0.0030  2.3398
   39MOL    H7421430   1.093   5.717   6.421  3.2412  0.1036 -1.2992
   39MOL    H7521431   0.854   5.691   6.254  1.1882 -2.1999  0.5488
   39MOL    H7621432   0.880   5.613   6.399 -0.3158 -0.0918  0.4492
   39MOL    H7721433   0.895   5.813   6.535  1.7308  1.7856 -0.5354
   39MOL    H7821434   0.687   5.807   6.531  1.5582  2.8916  0.2475
   39MOL    H7921435   0.829   5.975   6.273 -2.5099  1.6995  1.3585
   39MOL    H8021436   0.713   6.064   6.459 -0.0002 -1.2075 -0.1841
   39MOL    H8121437   0.861   6.064   6.559  1.5357  0.5387 -0.9368
   39MOL    H8221438   1.080   5.986   6.435  0.9365  0.6863  0.1653
   39MOL    H8321439   1.063   6.062   6.276 -1.6128  0.2674  0.9979
   39MOL    H8421440   1.202   5.853   6.266 -0.1380 -2.2612 -1.0973
   39MOL    H8521441   1.076   5.858   6.156 -2.2857 -1.4260  0.7777
   39MOL    O8621442   0.864   6.205   6.406  0.1212  0.0258  0.5518
   39MOL    C8721443   0.824   6.308   6.497 -0.5186  0.8964 -0.6068
   39MOL    C8821444   0.854   6.446   6.432  0.8485 -0.8520 -0.6004
   39MOL    O8921445   0.826   6.547   6.532  0.5989 -0.2367  0.1233
   39MOL    C9021446   0.993   6.463   6.379 -0.2080 -0.5975 -0.4380
   39MOL    C9121447   1.109   6.452   6.473 -0.3758  0.5123 -0.3758
   39MOL    C9221448   1.248   6.464   6.402 -0.7277  0.5450 -0.9074
   39MOL    O9321449   1.344   6.474   6.504 -0.4326 -0.3932  0.1270
   39MOL    C9421450   1.256   6.591   6.311  0.5537 -0.1212 -0.6809
   39MOL    C9521451   1.382   6.587   6.226  0.6777  0.0506 -0.7674
   39MOL    C9621452   1.126   6.618   6.226  0.4653 -0.8818  0.6285
   39MOL    C9721453   0.998   6.601   6.313 -0.1379  0.8032  0.3578
   39MOL    H9821454   0.880   6.300   6.590 -1.1188 -0.1005 -0.3247
   39MOL    H9921455   0.718   6.288   6.513 -0.4364  1.7219  1.1348
   39MOL   H10021456   0.782   6.453   6.350  0.2386  0.7661  0.0549
   39MOL   H10121457   0.817   6.631   6.489 -0.8394 -0.4129  0.0496
   39MOL   H10221458   1.008   6.382   6.307  2.3959 -0.0382 -0.5568
   39MOL   H10321459   1.094   6.522   6.556 -0.1433  1.1545 -0.8710
   39MOL   H10421460   1.102   6.353   6.518 -0.4827  0.8050  0.2641
   39MOL   H10521461   1.267   6.379   6.338 -0.6824 -0.2520  0.1576
   39MOL   H10621462   1.421   6.505   6.457  0.5014  1.0533  2.5257
   39MOL   H10721463   1.257   6.672   6.383  1.8804 -1.9270  1.3837
   39MOL   H10821464   1.387   6.481   6.202  2.0476  0.0493 -0.5181
   39MOL   H10921465   1.377   6.643   6.132 -0.1107 -0.6574 -1.1514
   39MOL   H11021466   1.122   6.548   6.143 -0.2709  0.2885 -0.3362
   39MOL   H11121467   1.123   6.718   6.184  0.0891  0.0646  2.8469
   39MOL   H11221468   0.914   6.625   6.248 -0.5476 -1.9075 -0.1859
   39MOL   H11321469   1.006   6.679   6.388  0.0748  0.8116  0.3257
   39MOL   O11421470   1.494   6.622   6.304 -0.2092 -0.4318 -0.4481
   39MOL   C11521471   1.622   6.611   6.235 -0.3195 -0.9067 -0.4143
   39MOL   C11621472   1.699   6.486   6.296  0.7543 -0.1277  0.0045
   39MOL   O11721473   1.748   6.404   6.187 -0.1755 -0.4862  0.4323
   39MOL   C11821474   1.807   6.528   6.389  0.4433  0.2336 -0.1293
   39MOL   C11921475   1.928   6.608   6.341  0.0510 -0.2418  0.1669
   39MOL   C12021476   2.028   6.648   6.449  0.0092 -0.5717 -0.4511
   39MOL   O12121477   2.123   6.728   6.398  0.1705  0.1804 -0.2211
   39MOL   C12221478   2.086   6.520   6.525  0.5004  0.4577  0.7232
   39MOL   C12321479   2.167   6.566   6.651 -0.1062  0.5413  0.1105
   39MOL   C12421480   1.963   6.433   6.567  0.0125 -0.2283 -0.3766
   39MOL   C12521481   1.865   6.398   6.456  0.2952 -0.7815 -0.5995
   39MOL   H12621482   1.681   6.699   6.261 -0.2717 -1.0824  0.0759
   39MOL   H12721483   1.624   6.614   6.126  1.2658  0.3727 -0.3676
   39MOL   H12821484   1.627   6.427   6.352 -0.5276  1.1422 -0.2944
   39MOL   H12921485   1.807   6.451   6.131  2.8192 -2.6130  1.6619
   39MOL   H13021486   1.760   6.584   6.470 -1.3894 -1.2789 -0.1266
   39MOL   H13121487   1.982   6.536   6.281 -1.1280  0.7685 -2.1971
   39MOL   H13221488   1.887   6.686   6.277  0.2053  1.3081  1.9172
   39MOL   H13321489   1.985   6.708   6.529  1.4544 -0.5543  0.3262
   39MOL   H13421490   2.186   6.666   6.366 -1.0394 -1.2357  0.0871
   39MOL   H13521491   2.145   6.465   6.451 -0.8420  0.6969 -0.5457
   39MOL   H13621492   2.251   6.628   6.622 -1.8924  1.5528 -3.2421
   39MOL   H13721493   2.113   6.646   6.702  1.1210  1.3968  0.0924
   39MOL   H13821494   1.910   6.482   6.648  0.2892  0.1038 -0.3930
   39MOL   H13921495   1.993   6.341   6.617 -1.5854  0.2142  1.4459
   39MOL   H14021496   1.785   6.334   6.491 -1.6361  1.7374 -0.2595
   39MOL   H14121497   1.912   6.335   6.381  0.3049 -1.2156 -0.2285
   39MOL   O14221498   2.203   6.462   6.747 -0.3097  0.0729  0.7163
   39MOL   C14321499   2.300   6.495   6.841 -0.2715  0.3809  0.2351
   39MOL   C14421500   2.277   6.402   6.966  0.4723  0.2699  0.2462
   39MOL   O14521501   2.151   6.440   7.015  0.1992  0.1956 -0.0332
   39MOL   C14621502   2.282   6.246   6.948  0.4218 -0.4608 -0.6250
   39MOL   C14721503   2.303   6.177   7.094  0.0251 -0.0078  0.4444
   39MOL   C14821504   2.310   6.025   7.091  0.2660 -0.1640 -0.4359
   39MOL   O14921505   2.322   5.985   7.223 -0.8769  0.1833  0.2402
   39MOL   C15021506   2.412   5.970   6.992  0.2297 -0.6343  0.4697
   39MOL   C15121507   2.403   5.815   6.972 -0.1313 -0.2845  1.0514
   39MOL   C15221508   2.396   6.035   6.854 -0.4826 -0.2658 -0.5308
   39MOL   C15321509   2.385   6.191   6.851 -0.4065 -0.0916 -0.3118
   39MOL   H15421510   2.294   6.601   6.864 -1.7827  1.0094 -2.7752
   39MOL   H15521511   2.399   6.472   6.803 -1.4328  1.4867 -3.7595
   39MOL   H15621512   2.358   6.428   7.034  0.1782  1.5104  0.1290
   39MOL   H15721513   2.101   6.461   6.938 -1.0719  1.5367  1.1394
   39MOL   H15821514   2.185   6.206   6.917 -0.1608  0.1603  0.3942
   39MOL   H15921515   2.397   6.216   7.132 -0.2698  0.4978  0.6571
   39MOL   H16021516   2.212   6.207   7.147 -0.4624 -0.6646 -0.0084
   39MOL   H16121517   2.217   5.982   7.055 -0.8510  0.4867  1.6189
   39MOL   H16221518   2.300   5.893   7.236  2.2836 -1.0800 -2.6992
   39MOL   H16321519   2.515   5.995   7.019 -0.1470  1.4978  0.0671
   39MOL   H16421520   2.418   5.761   7.065 -0.6975  0.9631  1.8800
   39MOL   H16521521   2.304   5.789   6.936 -0.2684 -1.6860  2.3998
   39MOL   H16621522   2.300   6.002   6.815 -0.9815  0.4438  0.0928
   39MOL   H16721523   2.471   6.002   6.783  0.1285 -0.6535  0.2887
   39MOL   H16821524   2.346   6.240   6.762  0.0226  0.3555 -0.2597
   39MOL   H16921525   2.483   6.238   6.862 -0.3525 -0.3301  0.2221
   39MOL   O17021526   2.515   5.771   6.892  0.2106 -0.1649 -0.2833
   39MOL   C17121527   2.514   5.631   6.849 -0.3105  0.1007  0.4114
   39MOL   C17221528   2.644   5.600   6.774 -0.0638 -0.0111  0.2905
   39MOL   O17321529   2.755   5.597   6.872  0.1773  0.3989  0.2489
   39MOL   C17421530   2.660   5.468   6.698  0.4382  0.3327  0.0018
   39MOL   C17521531   2.794   5.463   6.618 -1.0216  0.1171 -0.7135
   39MOL   C17621532   2.811   5.319   6.566  0.3870  0.5462  0.5524
   39MOL   O17721533   2.935   5.308   6.503  0.6441  0.0083 -0.6936
   39MOL   C17821534   2.691   5.271   6.475 -0.3982 -0.0977 -0.0538
   39MOL   C17921535   2.709   5.109   6.454  0.0516  0.3213  0.4351
   39MOL   C18021536   2.548   5.311   6.532  0.2674 -0.3531  0.3942
   39MOL   C18121537   2.542   5.442   6.604 -0.4719  0.0927 -0.3495
   39MOL   H18221538   2.422   5.623   6.791  0.4321 -1.8309 -0.5358
   39MOL   H18321539   2.495   5.573   6.939  0.5845 -0.2914  0.3490
   39MOL   H18421540   2.657   5.682   6.703  3.6235 -0.3051  0.5288
   39MOL   H18521541   2.725   5.625   6.957 -0.8843  1.7249 -0.5308
   39MOL   H18621542   2.657   5.396   6.779  1.5763  0.9588  0.6112
   39MOL   H18721543   2.790   5.535   6.536 -0.6251  1.5108  0.4748
   39MOL   H18821544   2.877   5.479   6.686 -2.0433 -0.0981  0.5963
   39MOL   H18921545   2.816   5.255   6.654  2.7201 -1.2346 -0.8277
   39MOL   H19021546   2.940   5.216   6.479  1.6643  0.2977 -1.6662
   39MOL   H19121547   2.715   5.323   6.383  0.5800 -0.3839  0.0284
   39MOL   H19221548   2.679   5.064   6.548 -0.1127 -0.9029 -0.1870
   39MOL   H19321549   2.634   5.094   6.376  0.5481 -1.0169  0.2121
   39MOL   H19421550   2.513   5.239   6.606  0.8053 -0.4009  0.6003
   39MOL   H19521551   2.474   5.322   6.452 -0.1835  1.1824  0.9961
   39MOL   H19621552   2.438   5.455   6.635 -0.3951 -4.1923  2.2089
   39MOL   H19721553   2.554   5.516   6.525  0.0891  1.4499  0.9629
   39MOL   O19821554   2.837   5.073   6.408 -0.2227 -0.1233 -0.5487
   39MOL   C19921555   2.858   4.940   6.377 -0.1237  1.0960  0.3911
   39MOL   C20021556   2.974   4.923   6.281 -0.0294 -0.2856 -0.7829
   39MOL   O20121557   2.939   4.973   6.152 -0.1070 -0.1093 -0.3753
   39MOL   C20221558   3.109   4.988   6.325  0.3843  0.3548 -0.1028
   39MOL   C20321559   3.217   4.965   6.220 -0.1827  0.3723 -0.1766
   39MOL   C20421560   3.346   5.030   6.273  0.0116 -0.5588  0.4717
   39MOL   O20521561   3.446   5.008   6.170  0.4529  0.4878  0.6189
   39MOL   C20621562   3.394   4.982   6.411  0.2898 -0.6690 -0.5053
   39MOL   C20721563   3.510   5.074   6.452  0.1055 -0.2890 -0.0584
   39MOL   C20821564   3.283   4.991   6.513 -0.6847 -0.1107 -0.3668
   39MOL   C20921565   3.158   4.916   6.460  0.0519  0.5376  0.6021
   39MOL   H21021566   2.770   4.895   6.331 -0.0634  1.1968  0.1738
   39MOL   H21121567   2.876   4.897   6.475 -1.0984 -0.4630 -0.1058
   39MOL   H21221568   2.988   4.816   6.269  0.2800 -0.1701 -1.5126
   39MOL   H21321569   2.900   4.898   6.110  0.3140  0.4908 -1.8919
   39MOL   H21421570   3.096   5.093   6.349 -0.7036 -0.1059  1.4285
   39MOL   H21521571   3.231   4.860   6.194  1.6476  0.1194  1.7167
   39MOL   H21621572   3.189   5.003   6.122 -1.2649  0.0474 -0.0095
   39MOL   H21721573   3.323   5.135   6.259 -2.5014 -1.2660 -1.0403
   39MOL   H21821574   3.448   5.089   6.121  0.0065 -0.3000 -0.7162
   39MOL   H21921575   3.428   4.879   6.401  0.3010 -1.0420  2.6623
   39MOL   H22021576   3.564   5.052   6.544  1.9790 -1.0078 -1.3049
   39MOL   H22121577   3.586   5.055   6.376  0.1685  0.3527 -0.1628
   39MOL   H22221578   3.257   5.092   6.546 -0.5503  0.2465 -1.3295
   39MOL   H22321579   3.317   4.939   6.603 -0.1778  0.5233 -0.1877
   39MOL   H22421580   3.083   4.916   6.539 -0.9474 -0.0790 -0.3253
   39MOL   H22521581   3.185   4.816   6.425 -1.7244  0.3226 -0.2247
   39MOL   O22621582   3.478   5.214   6.457  0.1230 -0.0961 -0.9298
   39MOL   C22721583   3.480   5.275   6.589  0.3718  0.1036 -0.3227
   39MOL   C22821584   3.433   5.424   6.580  0.1429 -0.2380 -0.1386
   39MOL   O22921585   3.401   5.470   6.708  0.0158 -0.3169 -0.1890
   39MOL   C23021586   3.533   5.524   6.518 -0.2188  0.4052 -0.1928
   39MOL   C23121587   3.465   5.651   6.473 -0.5681 -0.3618 -0.2528
   39MOL   C23221588   3.552   5.764   6.402 -0.3234 -0.1744  0.4142
   39MOL   O23321589   3.483   5.883   6.366  0.3175  0.6704 -0.2021
   39MOL   C23421590   3.633   5.696   6.283 -0.2588  0.1060 -0.4634
   39MOL   C23521591   3.733   5.798   6.212 -0.6621  0.0305 -0.1609
   39MOL   C23621592   3.702   5.567   6.317  0.6774 -0.4042  0.5964
   39MOL   C23721593   3.610   5.465   6.393  0.1794  0.0055  0.2818
   39MOL   H23821594   3.576   5.272   6.640  0.8671  1.6641 -1.1472
   39MOL   H23921595   3.413   5.225   6.659  1.3648 -2.2420 -0.9951
   39MOL   H24021596   3.338   5.428   6.528  0.2001 -2.1975 -0.4448
   39MOL   H24121597   3.315   5.439   6.732  0.2864 -0.0675  1.1787
   39MOL   H24221598   3.596   5.557   6.600  1.4274 -3.0443  0.0473
   39MOL   H24321599   3.383   5.637   6.403 -1.2400  1.0236  0.2317
   39MOL   H24421600   3.410   5.692   6.557  3.0339  0.4645  1.8126
   39MOL   H24521601   3.627   5.798   6.474 -0.6334 -1.1625  1.2059
   39MOL   H24621602   3.471   5.938   6.442 -1.5647 -0.7207  0.5532
   39MOL   H24721603   3.553   5.676   6.212 -1.2977  1.7684  0.1904
   39MOL   H24821604   3.684   5.890   6.179 -0.6362 -0.0646 -0.4700
   39MOL   H24921605   3.796   5.843   6.288 -1.3828  0.6424  0.0864
   39MOL   H25021606   3.783   5.588   6.386  0.7559  0.5953  0.2043
   39MOL   H25121607   3.746   5.511   6.234 -0.1189 -0.7815  0.4201
   39MOL   H25221608   3.672   5.382   6.427 -1.6964 -0.8383  1.7832
   39MOL   H25321609   3.527   5.431   6.332  1.0441  2.3201 -2.2572
   39MOL   O25421610   3.818   5.744   6.114 -0.5312 -0.2216  0.5209
   39MOL   C25521611   3.754   5.698   5.997 -0.1524  0.0227  0.1309
   39MOL   C25621612   3.845   5.590   5.941 -0.1820 -0.5247  0.0026
   39MOL   O25721613   3.914   5.532   6.052 -0.4471 -0.3835  0.1398
   39MOL   C25821614   3.776   5.488   5.847  0.6833  0.4299  0.6533
   39MOL   C25921615   3.696   5.387   5.935  0.2841 -0.5482  0.0984
   39MOL   C26021616   3.617   5.287   5.850 -0.1643  0.0531  0.5938
   39MOL   O26121617   3.538   5.211   5.943  0.0177  0.8015 -0.5436
   39MOL   C26221618   3.713   5.203   5.761 -0.8786  0.5839  1.2659
   39MOL   C26321619   3.635   5.102   5.680  0.4370  0.1698  0.2583
   39MOL   C26421620   3.790   5.311   5.674 -0.4867  0.5945  1.0632
   39MOL   C26521621   3.872   5.406   5.759 -0.2374 -0.3041  0.1823
   39MOL   H26621622   3.749   5.784   5.931 -1.7037 -0.5301 -0.4844
   39MOL   H26721623   3.657   5.658   6.027 -0.7516  1.5336  0.2326
   39MOL   H26821624   3.914   5.645   5.877  0.0070  0.4427  1.0253
   39MOL   H26921625   3.896   5.580   6.131  1.5888  2.7222 -1.2154
   39MOL   H27021626   3.706   5.546   5.788 -0.7558 -1.0747  0.8634
   39MOL   H27121627   3.769   5.323   5.985  0.7624 -1.5990 -1.9154
   39MOL   H27221628   3.641   5.432   6.018  0.4734  0.0195 -0.0862
   39MOL   H27321629   3.545   5.343   5.792  0.8963  0.7768 -0.0361
   39MOL   H27421630   3.592   5.138   5.971 -0.6254  0.9299  1.0637
   39MOL   H27521631   3.790   5.155   5.821  0.0157 -0.3758 -0.6135
   39MOL   H27621632   3.596   5.018   5.738 -0.8223 -0.6385 -1.7099
   39MOL   H27721633   3.546   5.153   5.644 -0.2302 -0.7459  0.5977
   39MOL   H27821634   3.725   5.372   5.612  2.3157  0.6136 -1.9600
   39MOL   H27921635   3.845   5.266   5.591 -0.5472  0.1608  1.2538
   39MOL   H28021636   3.922   5.469   5.685  0.4457 -0.7878  0.2199
   39MOL   H28121637   3.948   5.357   5.821  2.4297  1.8408 -1.2714
   39MOL   O28221638   3.702   5.045   5.568  0.3985  0.3304 -0.4848
   39MOL   C28321639   3.630   4.942   5.516  0.5798 -0.5980 -0.2349
   39MOL   C28421640   3.651   4.946   5.363  0.6555 -0.7340  0.1337
   39MOL   O28521641   3.784   4.921   5.342 -0.2228  0.1079  0.4885
   39MOL   C28621642   3.561   4.843   5.284  0.1800  0.8466  0.3335
   39MOL   C28721643   3.573   4.695   5.319  0.3630 -0.6291  0.2668
   39MOL   C28821644   3.471   4.617   5.241 -0.2398 -0.0842  0.1872
   39MOL   O28921645   3.500   4.486   5.279  0.0818  0.5389 -0.3251
   39MOL   C29021646   3.486   4.636   5.088 -0.1344 -0.2888  0.1869
   39MOL   C29121647   3.367   4.563   5.024 -0.0052  0.3520  0.1961
   39MOL   C29221648   3.484   4.787   5.046 -0.3977  0.2588  0.4170
   39MOL   C29321649   3.577   4.869   5.133 -0.6567 -0.1577  0.2670
   39MOL   H29421650   3.526   4.921   5.542  0.3863  1.8253  1.1420
   39MOL   H29521651   3.661   4.849   5.564 -1.0439  0.2490  2.5993
   39MOL   H29621652   3.634   5.048   5.327 -3.1808 -1.5043 -0.4862
   39MOL   H29721653   3.819   4.921   5.430 -0.1654 -1.9452  0.4820
   39MOL   H29821654   3.461   4.877   5.312 -0.7531 -0.9923 -0.6357
   39MOL   H29921655   3.674   4.660   5.298  0.2251 -1.7293  1.3755
   39MOL   H30021656   3.574   4.689   5.428 -1.6134 -0.3977  0.3071
   39MOL   H30121657   3.370   4.640   5.277  0.2743 -0.1137  1.6469
   39MOL   H30221658   3.473   4.481   5.370  0.2363 -1.4444 -0.3650
   39MOL   H30321659   3.579   4.587   5.061 -1.1234 -1.1793 -1.7141
   39MOL   H30421660   3.339   4.474   5.080  1.1299 -0.3396 -0.3153
   39MOL   H30521661   3.281   4.624   5.049  1.0524  1.3277  1.4779
   39MOL   H30621662   3.383   4.826   5.061 -0.0932  1.0934  0.3264
   39MOL   H30721663   3.504   4.807   4.941  1.2361 -0.5371  0.5606
   39MOL   H30821664   3.547   4.973   5.116 -0.2738 -0.3833 -1.9603
   39MOL   H30921665   3.684   4.859   5.116 -0.1882  3.3339  0.7531
   39MOL   O31021666   3.374   4.533   4.889 -0.4181 -0.6261  0.1799
   39MOL   C31121667   3.471   4.439   4.850  0.6900 -0.0554 -0.0801
   39MOL   C31221668   3.449   4.300   4.904  0.3871 -0.2796  0.5273
   39MOL   O31321669   3.451   4.211   4.796  0.5036  0.2168  0.0019
   39MOL   C31421670   3.530   4.264   5.021 -0.0287  0.2038 -0.5304
   39MOL   C31521671   3.675   4.229   4.980  1.3237  0.0025 -0.3641
   39MOL   C31621672   3.757   4.185   5.100 -0.0936 -0.2372 -0.3008
   39MOL   O31721673   3.881   4.143   5.054  0.2118  0.6872  0.0126
   39MOL   C31821674   3.680   4.075   5.171  0.3731  0.1089 -0.3686
   39MOL   C31921675   3.757   4.021   5.301  0.8025 -0.2208  0.0266
   39MOL   C32021676   3.547   4.128   5.223 -0.1071  0.1119 -0.1485
   39MOL   C32121677   3.464   4.159   5.104 -1.1825 -0.0291 -0.0562
   39MOL   H32221678   3.569   4.473   4.883  0.1763  3.3058 -1.7268
   39MOL   H32321679   3.483   4.438   4.742 -2.1574  0.0981 -0.4485
   39MOL   H32421680   3.342   4.305   4.924  0.2006 -1.2636 -0.2138
   39MOL   H32521681   3.383   4.230   4.734 -1.2511 -2.3498  1.0320
   39MOL   H32621682   3.548   4.353   5.080  2.1010  0.7349 -1.9187
   39MOL   H32721683   3.683   4.153   4.902 -0.0803 -1.1376  0.5869
   39MOL   H32821684   3.725   4.316   4.937 -0.9614 -0.0244 -3.2780
   39MOL   H32921685   3.776   4.265   5.172  0.9651 -1.1277  0.4202
   39MOL   H33021686   3.918   4.204   4.992  0.3835  0.2046 -0.3597
   39MOL   H33121687   3.677   3.988   5.106  2.3660 -1.5432  1.6388
   39MOL   H33221688   3.860   4.006   5.267  0.8623  0.6980 -0.2309
   39MOL   H33321689   3.770   4.090   5.384 -1.6947  1.1621 -0.6884
   39MOL   H33421690   3.552   4.214   5.291  1.4998 -0.3967  0.3925
   39MOL   H33521691   3.505   4.050   5.287 -0.1927 -1.5196 -2.1513
   39MOL   H33621692   3.364   4.195   5.129 -0.8067  1.3324 -0.4584
   39MOL   H33721693   3.456   4.066   5.047  0.9501 -1.2241  1.5498
   39MOL   O33821694   3.701   3.896   5.340 -0.0211 -0.5855  0.3661
   39MOL   C33921695   3.728   3.780   5.262  0.3999 -0.2148 -0.2620
   39MOL   C34021696   3.661   3.659   5.335 -0.3756 -0.1016 -0.7789
   39MOL   O34121697   3.731   3.636   5.458  0.0227  0.6306 -0.5379
   39MOL   C34221698   3.509   3.676   5.377  0.3930  1.2550  0.2508
   39MOL   C34321699   3.450   3.546   5.424 -0.4275 -0.6176  0.0417
   39MOL   C34421700   3.305   3.568   5.461 -0.0261  0.2695  0.1292
   39MOL   O34521701   3.255   3.455   5.523  0.4028 -0.8543  0.3786
   39MOL   C34621702   3.221   3.612   5.336 -0.1053 -0.0813  0.2835
   39MOL   C34721703   3.076   3.628   5.369 -0.9900 -0.2439 -1.0779
   39MOL   C34821704   3.284   3.741   5.276 -0.0942 -0.3953 -0.2711
   39MOL   C34921705   3.438   3.721   5.249 -0.3190  0.6706 -0.1398
   39MOL   H35021706   3.835   3.760   5.257  0.9877  2.2478  1.1166
   39MOL   H35121707   3.699   3.789   5.157  1.4333 -2.8338 -0.8121
   39MOL   H35221708   3.676   3.574   5.268 -0.6482  1.4935 -2.9381
   39MOL   H35321709   3.716   3.706   5.519  0.5372 -1.2856  1.8455
   39MOL   H35421710   3.502   3.747   5.459 -2.8485 -0.0921  1.1958
   39MOL   H35521711   3.461   3.469   5.347  1.7820 -1.6121  1.2806
   39MOL   H35621712   3.505   3.515   5.513 -0.1083 -0.1309  0.0165
   39MOL   H35721713   3.299   3.656   5.525 -0.9980  0.4900 -0.2603
   39MOL   H35821714   3.323   3.432   5.585  0.8471 -1.6391 -0.3930
   39MOL   H35921715   3.237   3.539   5.257 -0.6812 -0.9804  0.9788
   39MOL   H36021716   3.020   3.536   5.351  0.0192 -1.0717 -0.0173
   39MOL   H36121717   3.071   3.658   5.474 -0.3380  0.4308 -1.2349
   39MOL   H36221718   3.271   3.829   5.339 -0.2070  0.6036 -1.6616
   39MOL   H36321719   3.240   3.768   5.180  1.2981  1.5951 -0.3716
   39MOL   H36421720   3.481   3.816   5.218 -1.7477  0.4071 -3.1073
   39MOL   H36521721   3.462   3.654   5.166 -0.7762  1.2234 -0.7209
   39MOL   O36621722   3.022   3.725   5.290 -0.6111 -0.0842  0.0071
   39MOL   C36721723   2.974   3.693   5.159 -0.6872 -0.7860  0.4599
   39MOL   C36821724   2.817   3.688   5.164  0.0407 -0.0197  0.3748
   39MOL   O36921725   2.764   3.812   5.153 -0.2803  0.1299 -0.1224
   39MOL   C37021726   2.761   3.575   5.071 -0.4882 -0.4071  0.0106
   39MOL   C37121727   2.742   3.627   4.929 -0.2928 -0.1033  0.1017
   39MOL   C37221728   2.672   3.520   4.842 -0.3215 -0.0201 -0.1729
   39MOL   O37321729   2.684   3.563   4.713 -0.1534  0.6781  0.1495
   39MOL   C37421730   2.528   3.492   4.889 -0.0828  1.0782 -0.4943
   39MOL   C37521731   2.461   3.381   4.802  0.2657 -0.2931  0.2710
   39MOL   C37621732   2.529   3.454   5.037 -0.1719 -0.0386  0.0018
   39MOL   C37721733   2.617   3.543   5.124 -0.2461  0.3610  0.3034
   39MOL   H37821734   3.014   3.599   5.122 -0.3310  0.3415 -2.1582
   39MOL   H37921735   3.009   3.771   5.090 -0.5545 -2.7372 -1.7340
   39MOL   H38021736   2.801   3.648   5.265 -0.8340 -2.2717 -0.6181
   39MOL   H38121737   2.833   3.863   5.191  0.3830 -1.2536  0.5583
   39MOL   H38221738   2.825   3.488   5.075  1.6524  0.9836 -2.4874
   39MOL   H38321739   2.685   3.719   4.930  1.1571  0.8033  1.8860
   39MOL   H38421740   2.842   3.647   4.892  1.3967 -0.0637  4.4473
   39MOL   H38521741   2.725   3.425   4.847 -2.0158 -0.9454  0.5493
   39MOL   H38621742   2.654   3.650   4.692 -1.5551 -0.1416 -1.4101
   39MOL   H38721743   2.473   3.586   4.878 -2.3647 -0.5589 -3.8200
   39MOL   H38821744   2.476   3.396   4.695  0.3541 -1.7550  0.0670
   39MOL   H38921745   2.506   3.286   4.827  0.8248  0.0258  0.4682
   39MOL   H39021746   2.549   3.351   5.065 -1.9480  0.1061  1.9108
   39MOL   H39121747   2.427   3.460   5.074 -0.6030  0.6613 -1.2551
   39MOL   H39221748   2.643   3.489   5.215  0.6422  1.4101  0.6833
   39MOL   H39321749   2.568   3.637   5.151 -0.2170  0.7056 -0.7940
   39MOL   O39421750   2.320   3.361   4.829 -0.1455  0.1686 -0.2001
   39MOL   C39521751   2.230   3.459   4.776 -0.1835  0.3520  0.7859
   39MOL   C39621752   2.131   3.487   4.888 -0.2199 -0.3330  0.7845
   39MOL   O39721753   2.036   3.586   4.855 -0.2343  0.2771 -0.0463
   39MOL   C39821754   2.048   3.368   4.930  0.1752 -0.3483 -0.5214
   39MOL   C39921755   1.941   3.326   4.821 -0.1456 -0.3101 -0.0255
   39MOL   C40021756   1.854   3.204   4.862 -0.1606 -0.0330  0.5581
   39MOL   O40121757   1.748   3.188   4.767 -0.5677 -0.6335  0.0187
   39MOL   C40221758   1.792   3.201   5.005 -0.4332 -0.7093  0.2561
   39MOL   C40321759   1.744   3.056   5.045 -0.1612 -0.1984 -0.4876
   39MOL   C40421760   1.893   3.260   5.106 -0.0738  0.1798 -0.1931
   39MOL   C40521761   1.969   3.388   5.059 -0.4717  0.2075 -0.7617
   39MOL   H40621762   2.171   3.435   4.688  0.4834 -1.1620  0.7230
   39MOL   H40721763   2.285   3.553   4.762  0.2929 -0.0982 -0.4367
   39MOL   H40821764   2.186   3.531   4.972  0.3806 -0.2969  0.3714
   39MOL   H40921765   2.077   3.625   4.779 -1.6358  0.6556 -0.6273
   39MOL   H41021766   2.112   3.280   4.942  0.6300  0.3626  2.9277
   39MOL   H41121767   1.877   3.405   4.783  1.9413  1.2842 -0.3543
   39MOL   H41221768   2.000   3.297   4.733 -0.2463 -1.4780  0.2805
   39MOL   H41321769   1.911   3.111   4.854  0.0856  0.1710 -0.1158
   39MOL   H41421770   1.760   3.115   4.708 -2.0743 -0.8185 -0.0858
   39MOL   H41521771   1.703   3.263   4.998 -2.2382 -2.8198  3.5121
   39MOL   H41621772   1.673   3.005   4.980 -2.0004  0.7608  0.7362
   39MOL   H41721773   1.832   2.991   5.039  0.2958  0.3929 -0.2488
   39MOL   H41821774   1.966   3.182   5.129 -2.0842 -2.2300 -1.7286
   39MOL   H41921775   1.853   3.284   5.205  0.8319  1.7167 -0.1890
   39MOL   H42021776   2.028   3.422   5.144  0.0132 -0.6932 -0.7334
   39MOL   H42121777   1.894   3.467   5.052 -0.5545  0.0519 -1.7010
   39MOL   O42221778   1.709   3.070   5.183  0.3934 -0.7924 -0.3367
   39MOL   C42321779   1.610   2.982   5.228  0.2187 -0.8784  0.3222
   39MOL   C42421780   1.473   3.023   5.178  0.2670 -0.1040 -0.1441
   39MOL   O42521781   1.396   2.909   5.194 -0.0351  0.7543  0.3871
   39MOL   C42621782   1.399   3.147   5.240  0.8015 -0.0595  0.4389
   39MOL   C42721783   1.293   3.192   5.145  0.5376 -0.1479  0.2124
   39MOL   C42821784   1.208   3.314   5.194 -0.0658  0.9041  0.0936
   39MOL   O42921785   1.104   3.341   5.104 -0.2322  0.5872 -0.5786
   39MOL   C43021786   1.290   3.444   5.232 -0.5567 -0.6122 -0.1195
   39MOL   C43121787   1.210   3.554   5.302  0.0836  0.2492 -0.7632
   39MOL   C43221788   1.414   3.400   5.319  0.2476 -0.0036 -0.1435
   39MOL   C43321789   1.492   3.274   5.264 -0.7667 -0.3990 -0.1553
   39MOL   H43421790   1.615   3.011   5.333  0.8697 -2.0083  0.6169
   39MOL   H43521791   1.641   2.879   5.210  2.1307 -0.2350 -0.1982
   39MOL   H43621792   1.477   3.051   5.073  0.7586 -0.3493 -0.1907
   39MOL   H43721793   1.448   2.834   5.170 -0.5826 -0.2939  2.3662
   39MOL   H43821794   1.355   3.107   5.331  0.6198 -1.5297 -0.2837
   39MOL   H43921795   1.330   3.209   5.044 -1.9395  0.9723 -0.5500
   39MOL   H44021796   1.225   3.110   5.120 -1.2926  2.3829 -3.5222
   39MOL   H44121797   1.155   3.275   5.281 -1.7443  3.6499  0.3380
   39MOL   H44221798   1.096   3.434   5.088  2.1373  0.8410 -0.3919
   39MOL   H44321799   1.339   3.485   5.144  1.4199  0.3592  1.4085
   39MOL   H44421800   1.267   3.642   5.330 -2.7922  1.7799  0.4653
   39MOL   H44521801   1.127   3.587   5.240 -1.0583 -1.8747 -0.3951
   39MOL   H44621802   1.371   3.375   5.416  2.2327  0.3241  0.8415
   39MOL   H44721803   1.487   3.480   5.333 -0.6560  0.4729  2.0301
   39MOL   H44821804   1.578   3.253   5.327 -1.4756  2.2269  1.7750
   39MOL   H44921805   1.532   3.318   5.172 -0.1141 -0.3069  0.1726
   39MOL   O45021806   1.138   3.498   5.419  0.3974 -0.0698  1.3651
   39MOL   C45121807   1.048   3.588   5.476  0.4763  0.2602  0.0351
   39MOL   C45221808   0.920   3.511   5.536  0.0262  0.4925  0.1765
   39MOL   O45321809   0.879   3.578   5.652  0.0862 -0.4057 -0.0661
   39MOL   C45421810   0.809   3.491   5.431 -0.9868  0.5367 -0.1479
   39MOL   C45521811   0.679   3.429   5.491 -0.9342  0.6770  0.1526
   39MOL   C45621812   0.576   3.368   5.396  1.0624 -0.2541 -0.1671
   39MOL   O45721813   0.481   3.310   5.479  0.0201 -0.1393  0.4072
   39MOL   C45821814   0.637   3.276   5.299 -0.2859 -0.3720  0.4155
   39MOL   C45921815   0.531   3.216   5.198  0.2663 -0.3951 -0.2136
   39MOL   C46021816   0.763   3.341   5.230  0.6030  0.9219  0.6738
   39MOL   C46121817   0.863   3.399   5.328 -0.1177 -0.3111  0.6051
   39MOL   H46221818   1.029   3.664   5.400 -0.3628 -0.7335 -0.7632
   39MOL   H46321819   1.098   3.650   5.551  0.6361  0.2293 -0.0472
   39MOL   H46421820   0.952   3.417   5.582 -2.6645 -1.1291 -1.1495
   39MOL   H46521821   0.898   3.526   5.728  3.3228  1.3370  0.4172
   39MOL   H46621822   0.797   3.593   5.394 -0.3332  0.8565  0.5023
   39MOL   H46721823   0.707   3.346   5.555  0.6968  0.7290 -0.4562
   39MOL   H46821824   0.637   3.514   5.546  0.3977  2.1099 -0.9988
   39MOL   H46921825   0.534   3.445   5.332 -0.0254  0.6521  1.6196
   39MOL   H47021826   0.482   3.353   5.563 -0.4661 -0.1853  0.4388
   39MOL   H47121827   0.684   3.195   5.354 -1.4987 -0.9415  0.6342
   39MOL   H47221828   0.447   3.173   5.253 -0.2795 -0.8437 -1.3796
   39MOL   H47321829   0.486   3.301   5.148  1.6506  0.7338  0.4060
   39MOL   H47421830   0.738   3.422   5.162  1.8783  2.4617  1.9746
   39MOL   H47521831   0.819   3.264   5.178  0.3226 -0.1953  1.9932
   39MOL   H47621832   0.934   3.452   5.265 -2.2934  0.9484 -0.8476
   39MOL   H47721833   0.909   3.313   5.377  2.6691  0.8555  0.1425
   39MOL   O47821834   0.581   3.115   5.111  0.1848  0.3819  0.8323
   39MOL   C47921835   0.582   3.156   4.972  0.4705 -0.4773 -0.7019
   39MOL   C48021836   0.638   3.050   4.880 -0.1077  0.2791 -0.0029
   39MOL   O48121837   0.626   3.094   4.751 -0.5639  0.3666 -0.4199
   39MOL   C48221838   0.786   3.018   4.905  1.1937 -0.2990  0.1586
   39MOL   C48321839   0.901   3.124   4.875 -0.1754 -0.2863 -0.3122
   39MOL   C48421840   1.039   3.073   4.925  0.0999  0.3019  0.3516
   39MOL   O48521841   1.130   3.180   4.886  0.3448 -0.1079  0.4176
   39MOL   C48621842   1.081   2.947   4.855 -0.9048  0.0874 -0.4955
   39MOL   C48721843   1.217   2.902   4.902 -0.0746  0.2237  0.0695
   39MOL   C48821844   0.971   2.843   4.861 -0.0677  0.3099  0.2854
   39MOL   C48921845   0.828   2.885   4.826  0.1922 -0.4187 -0.1102
   39MOL   H49021846   0.650   3.241   4.963  0.8359 -0.8902 -1.9724
   39MOL   H49121847   0.481   3.181   4.942 -0.2882 -2.2971  0.2786
   39MOL   H49221848   0.572   2.964   4.890  1.5031 -1.1123 -1.0390
   39MOL   H49321849   0.643   3.187   4.748  0.9720  0.1774  1.5725
   39MOL   H49421850   0.781   2.984   5.008  1.7185 -1.0616 -0.0650
   39MOL   H49521851   0.906   3.159   4.772  0.5217  0.4274 -0.0417
   39MOL   H49621852   0.885   3.223   4.918 -2.2733  0.1934 -2.1027
   39MOL   H49721853   1.031   3.061   5.033  1.7679  0.4265  0.4939
   39MOL   H49821854   1.111   3.253   4.944 -1.3099  0.4332 -0.7800
   39MOL   H49921855   1.079   2.971   4.749 -0.5877  0.3765 -0.4371
   39MOL   H50021856   1.278   2.992   4.910 -0.4071  0.4997 -0.4699
   39MOL   H50121857   1.208   2.854   5.000 -1.9315 -0.5153 -0.4322
   39MOL   H50221858   0.978   2.819   4.967 -2.4081  3.8653  1.3299
   39MOL   H50321859   1.000   2.747   4.818 -1.6911  0.2195 -0.6274
   39MOL   H50421860   0.756   2.803   4.833  1.4377 -1.3154  3.5214
   39MOL   H50521861   0.821   2.910   4.721  1.8742 -1.7756 -0.5689
   39MOL   O50621862   1.283   2.815   4.806  0.5031  0.0117  0.0201
   39MOL   C50721863   1.428   2.810   4.811 -0.0994 -0.7860  0.0498
   39MOL   C50821864   1.496   2.931   4.725  0.1224 -0.6269 -0.7296
   39MOL   O50921865   1.616   2.891   4.660  0.6574  0.6180  0.5107
   39MOL   C51021866   1.403   2.994   4.620  0.8536 -0.4398  0.1636
   39MOL   C51121867   1.378   2.909   4.495 -0.5323 -0.2660  0.0578
   39MOL   C51221868   1.260   2.971   4.405  0.0481 -0.0690  0.2859
   39MOL   O51321869   1.270   2.893   4.288 -0.2203 -0.1772 -0.4355
   39MOL   C51421870   1.286   3.123   4.377  0.1347 -0.2369  0.1838
   39MOL   C51521871   1.175   3.196   4.305 -0.0190  0.1020 -0.2528
   39MOL   C51621872   1.324   3.203   4.508  0.4577  0.3391 -0.7756
   39MOL   C51721873   1.439   3.136   4.589 -0.0124 -0.0874 -0.1338
   39MOL   H51821874   1.465   2.712   4.784 -2.0992 -1.1212 -1.5836
   39MOL   H51921875   1.462   2.817   4.914 -1.3637  1.0912  0.3712
   39MOL   H52021876   1.521   3.005   4.801  0.8012  1.6588 -3.1058
   39MOL   H52121877   1.603   2.811   4.611  1.9982  0.8270 -0.2102
   39MOL   H52221878   1.308   3.014   4.669  1.0690 -0.8290  0.7380
   39MOL   H52321879   1.476   2.908   4.447 -0.9889  0.3360 -0.8955
   39MOL   H52421880   1.359   2.805   4.522 -0.0150 -0.2931  0.3194
   39MOL   H52521881   1.164   2.958   4.454  0.7695 -0.1831  1.6858
   39MOL   H52621882   1.340   2.935   4.240 -0.5584 -0.5744 -1.2939
   39MOL   H52721883   1.375   3.136   4.316 -0.8179  0.8269 -1.0115
   39MOL   H52821884   1.113   3.133   4.241  2.0330 -1.2737 -0.9497
   39MOL   H52921885   1.107   3.250   4.371  1.4820  2.5597 -0.6278
   39MOL   H53021886   1.235   3.198   4.570  1.7588 -0.5341  1.0748
   39MOL   H53121887   1.356   3.306   4.490  0.4785  0.6762  1.0983
   39MOL   H53221888   1.450   3.200   4.677 -0.3743 -0.8353  0.4632
   39MOL   H53321889   1.531   3.144   4.531  0.6813  3.1870  1.3185
   39MOL   O53421890   1.243   3.304   4.235  1.1938  0.4232  0.4057
   39MOL   C53521891   1.162   3.392   4.153  0.6299  0.6445  0.3544
   39MOL   C53621892   1.247   3.493   4.083 -0.7876  0.1032  0.2674
   39MOL   O53721893   1.327   3.417   3.991  0.5099 -0.1365 -0.0110
   39MOL   C53821894   1.175   3.605   3.999  0.1933 -0.4810  0.1856
   39MOL   C53921895   1.288   3.689   3.932  0.5841  0.2418 -0.2615
   39MOL   C54021896   1.230   3.811   3.857  0.2503 -0.1655  0.9632
   39MOL   O54121897   1.341   3.892   3.815  0.0278  0.3114  0.0029
   39MOL   C54221898   1.137   3.901   3.930  0.3510 -0.3858 -0.2694
   39MOL   C54321899   1.071   4.000   3.839 -0.1580 -0.5273 -0.1649
   39MOL   C54421900   1.031   3.811   4.004  0.2484  0.1983  0.0068
   39MOL   C54521901   1.099   3.699   4.091  0.7343  0.2497 -0.1171
   39MOL   H54621902   1.085   3.442   4.210 -1.1991 -3.5747  1.7632
   39MOL   H54721903   1.108   3.335   4.077 -1.0663  0.3798  1.7389
   39MOL   H54821904   1.317   3.532   4.156 -0.6489 -0.1793  0.2869
   39MOL   H54921905   1.343   3.331   4.027 -1.7233 -0.3509  0.5301
   39MOL   H55021906   1.106   3.558   3.929 -1.8843  1.3754  0.8966
   39MOL   H55121907   1.364   3.732   3.998  0.3000 -1.3243  1.1161
   39MOL   H55221908   1.344   3.622   3.867  1.6587  1.9110 -1.0934
   39MOL   H55321909   1.180   3.786   3.764  2.5035  1.4826 -0.7249
   39MOL   H55421910   1.414   3.837   3.841 -1.9851 -3.4713 -1.8467
   39MOL   H55521911   1.188   3.952   4.012 -0.9517  2.4436 -1.1572
   39MOL   H55621912   0.986   4.051   3.883 -0.8386 -2.0149  0.2413
   39MOL   H55721913   1.139   4.080   3.807 -1.6408  0.6406 -0.4494
   39MOL   H55821914   0.965   3.759   3.935  0.9331 -0.1811 -0.3791
   39MOL   H55921915   0.963   3.870   4.064 -1.1152 -1.5907  0.2644
   39MOL   H56021916   1.012   3.652   4.136  0.3370  0.1500 -0.9793
   39MOL   H56121917   1.174   3.731   4.163  1.4154 -0.5775 -0.4492
   39MOL   H56221918   1.030   3.959   3.747  1.2439 -1.7316 -0.2697
   40MOL     O121919   0.036   3.315   6.290 -0.3636 -0.1332  0.1738
   40MOL     C221920   7.550   3.249   6.230 -0.1900 -0.7183 -0.4363
   40MOL     C321921   7.410   3.313   6.271 -0.0320 -0.2746 -0.1468
   40MOL     O421922   7.437   3.323   6.407 -0.4427 -0.0649 -0.4803
   40MOL     C521923   7.394   3.460   6.214  0.2873 -0.1553  0.2163
   40MOL     C621924   7.284   3.535   6.288  0.4993  0.4369 -0.1258
   40MOL     C721925   7.256   3.667   6.221 -0.0239  0.3568  0.2224
   40MOL     O821926   7.172   3.757   6.299 -0.5995 -0.1966  0.3041
   40MOL     C921927   7.214   3.663   6.079 -0.2665  1.0372  0.0237
   40MOL    C1021928   7.155   3.798   6.012 -0.3701  0.4457 -0.2349
   40MOL    C1121929   7.330   3.596   6.000 -0.3052 -0.4318  0.7131
   40MOL    C1221930   7.374   3.464   6.055  0.2110 -0.1443 -0.2599
   40MOL    H1321931   7.564   3.145   6.258  1.6345 -0.1051  1.1063
   40MOL    H1421932   7.557   3.258   6.122  1.7198  2.0696 -0.1560
   40MOL    H1521933   7.326   3.259   6.228 -1.8222  2.1746  0.1015
   40MOL    H1621934   7.531   3.329   6.410 -0.4686  0.2749 -0.2979
   40MOL    H1721935   7.485   3.516   6.238 -0.4836  1.3958 -0.3900
   40MOL    H1821936   7.196   3.471   6.284 -1.3605  2.8601  1.0061
   40MOL    H1921937   7.307   3.548   6.394 -2.1331  1.1905  0.3760
   40MOL    H2021938   7.355   3.713   6.219  0.6020 -0.8137  2.9500
   40MOL    H2121939   7.098   3.704   6.328 -1.1181  0.4618  0.1878
   40MOL    H2221940   7.129   3.596   6.082  1.8445 -1.7950 -0.9990
   40MOL    H2321941   7.071   3.824   6.077  0.4218 -2.0932  1.8792
   40MOL    H2421942   7.232   3.875   6.020  0.3105 -0.1508 -0.9672
   40MOL    H2521943   7.410   3.670   5.994 -1.9079  1.4222  1.5853
   40MOL    H2621944   7.299   3.576   5.898 -1.5284  2.6448  0.4296
   40MOL    H2721945   7.461   3.420   6.007  1.1190 -0.6670  1.7887
   40MOL    H2821946   7.293   3.391   6.046  1.2708 -1.4098  0.2789
   40MOL    H2921947   0.113   3.278   6.248 -0.6836 -0.1011 -0.4456
   40MOL    O3021948   7.096   3.790   5.878  0.1819  0.0157  0.1275
   40MOL    C3121949   7.191   3.808   5.772  0.0187  0.2287  0.4356
   40MOL    C3221950   7.127   3.809   5.625 -0.0078 -0.3477 -0.1436
   40MOL    O3321951   7.205   3.880   5.527  0.7233  0.3315  0.1608
   40MOL    C3421952   7.085   3.669   5.572  0.1617 -0.6439  0.0002
   40MOL    C3521953   7.202   3.575   5.524  0.4705  0.1450  0.1185
   40MOL    C3621954   7.147   3.441   5.472  0.1233  0.1883 -0.6237
   40MOL    O3721955   7.251   3.349   5.437  0.0096 -0.0738  0.2738
   40MOL    C3821956   7.059   3.471   5.348  0.0477 -0.2416 -0.0918
   40MOL    C3921957   7.007   3.346   5.274 -0.3862  0.6968 -0.5610
   40MOL    C4021958   6.936   3.551   5.400  0.5212  0.1826  0.2519
   40MOL    C4121959   6.975   3.680   5.466 -0.8896  0.3901 -0.0830
   40MOL    H4221960   7.279   3.744   5.774  1.2242  1.8505  0.4763
   40MOL    H4321961   7.217   3.913   5.777 -1.1447  0.5631 -0.3201
   40MOL    H4421962   7.035   3.867   5.627  0.5495  0.5737 -0.8735
   40MOL    H4521963   7.254   3.952   5.566 -1.9475 -0.1268  4.7448
   40MOL    H4621964   7.054   3.619   5.663  1.5832 -0.2281  0.7401
   40MOL    H4721965   7.251   3.645   5.457 -1.2640  1.2736  0.0038
   40MOL    H4821966   7.276   3.553   5.602 -1.1975 -0.0053  1.6763
   40MOL    H4921967   7.092   3.381   5.544  2.0543 -1.4834 -0.4719
   40MOL    H5021968   7.253   3.273   5.492  0.7146  0.5685  1.1567
   40MOL    H5121969   7.107   3.533   5.272 -1.4444 -1.3357 -1.9643
   40MOL    H5221970   7.092   3.282   5.249 -0.1341  0.9614 -0.3794
   40MOL    H5321971   6.939   3.290   5.338  0.4637  1.6890  1.2290
   40MOL    H5421972   6.877   3.503   5.477 -0.5437  0.6995 -0.2286
   40MOL    H5521973   6.862   3.569   5.322  0.0830 -0.4911  0.5113
   40MOL    H5621974   6.888   3.727   5.511 -0.0975 -0.5126  2.4804
   40MOL    H5721975   7.014   3.747   5.389 -1.5439  0.1021 -0.6770
   40MOL    O5821976   6.930   3.375   5.156  0.4256 -0.0544 -0.1345
   40MOL    C5921977   7.013   3.384   5.039  0.1950 -0.4479 -0.7658
   40MOL    C6021978   6.922   3.394   4.918 -0.3386 -0.0147  0.1490
   40MOL    O6121979   6.871   3.262   4.895  0.3683 -0.3453  0.1169
   40MOL    C6221980   6.807   3.497   4.933  0.1306 -0.0369 -0.1326
   40MOL    C6321981   6.723   3.516   4.808  0.5910 -0.7637 -0.2342
   40MOL    C6421982   6.607   3.607   4.844  0.3947  0.1805 -0.1903
   40MOL    O6521983   6.513   3.606   4.741 -0.4461  0.1431 -0.0487
   40MOL    C6621984   6.649   3.750   4.887  0.3659  0.2538  0.4577
   40MOL    C6721985   6.535   3.846   4.934 -0.4491 -0.1908  1.0667
   40MOL    C6821986   6.752   3.736   4.999 -0.0583  0.1892  0.3822
   40MOL    C6921987   6.861   3.631   4.980 -0.0172 -0.4893  0.5627
   40MOL    H7021988   7.083   3.300   5.039  1.4368  0.5556  0.6187
   40MOL    H7121989   7.071   3.476   5.046 -2.6662  1.3621  0.1783
   40MOL    H7221990   6.978   3.426   4.830  2.1933  0.3016  1.8112
   40MOL    H7321991   6.817   3.233   4.966  0.0344 -0.0661 -0.0225
   40MOL    H7421992   6.745   3.473   5.019  1.6912  1.5153  1.4572
   40MOL    H7521993   6.776   3.556   4.721 -1.1854  1.3051 -0.3989
   40MOL    H7621994   6.677   3.419   4.786  1.6148 -1.1182 -0.8541
   40MOL    H7721995   6.557   3.570   4.935  1.2630 -1.5634 -0.3997
   40MOL    H7821996   6.542   3.671   4.678 -0.6470  0.6158  0.3486
   40MOL    H7921997   6.695   3.800   4.801 -1.7737  1.7357  0.1099
   40MOL    H8021998   6.473   3.796   5.008  1.1616  0.4564  2.8826
   40MOL    H8121999   6.581   3.937   4.974 -1.8452  1.7179 -1.4534
   40MOL    H8222000   6.697   3.701   5.086 -0.6405 -0.9487 -0.4391
   40MOL    H8322001   6.790   3.838   5.011 -0.9412  0.5728 -0.0236
   40MOL    H8422002   6.918   3.616   5.072  0.9484 -1.9110 -0.2520
   40MOL    H8522003   6.936   3.669   4.909 -1.0827 -0.3011 -0.4790
   40MOL    O8622004   6.453   3.878   4.824 -0.2321  0.4703 -0.4536
   40MOL    C8722005   6.380   3.994   4.834 -0.2071 -0.2574 -0.0633
   40MOL    C8822006   6.318   4.012   4.696 -0.5256  0.4330  0.0108
   40MOL    O8922007   6.252   3.890   4.677  0.2611  0.6144 -0.2639
   40MOL    C9022008   6.221   4.133   4.674 -0.0513  0.0760  0.3869
   40MOL    C9122009   6.200   4.188   4.523  0.9116 -0.4017 -0.3716
   40MOL    C9222010   6.096   4.303   4.510 -0.3366 -0.4486  0.0018
   40MOL    O9322011   6.103   4.338   4.374 -0.0777  0.5376 -0.8379
   40MOL    C9422012   6.145   4.415   4.601 -0.5951  0.2036 -0.2245
   40MOL    C9522013   6.050   4.543   4.598  0.0882 -0.4488 -0.0530
   40MOL    C9622014   6.146   4.356   4.748  0.2681 -0.2925  0.3190
   40MOL    C9722015   6.252   4.252   4.766 -0.1374 -0.1242  0.0228
   40MOL    H9822016   6.454   4.068   4.865 -0.7221  0.0031  0.5441
   40MOL    H9922017   6.310   3.975   4.915  1.9926 -0.5101  1.8143
   40MOL   H10022018   6.397   4.018   4.621 -0.1092 -1.6675  0.2281
   40MOL   H10122019   6.307   3.820   4.710 -0.5497  0.5668  1.0217
   40MOL   H10222020   6.129   4.096   4.720  1.5382 -0.9592  2.7956
   40MOL   H10322021   6.299   4.225   4.495  0.4691  0.7272 -0.4506
   40MOL   H10422022   6.182   4.095   4.468  2.5552 -1.9476  1.6109
   40MOL   H10522023   6.001   4.272   4.554 -0.3406 -0.0611  0.2717
   40MOL   H10622024   6.079   4.265   4.319  0.2417  1.2037 -1.8741
   40MOL   H10722025   6.239   4.458   4.570 -0.6830  0.6829  0.1733
   40MOL   H10822026   6.041   4.582   4.497  2.0532  0.6188  0.1525
   40MOL   H10922027   5.950   4.517   4.632  0.1951  1.3136  1.7162
   40MOL   H11022028   6.047   4.317   4.768  0.1308  0.8330  1.9552
   40MOL   H11122029   6.154   4.444   4.812 -1.6932 -0.6535  1.0965
   40MOL   H11222030   6.261   4.216   4.869 -1.8743  2.6069  1.1639
   40MOL   H11322031   6.351   4.288   4.739 -1.3256  1.2669 -2.6863
   40MOL   O11422032   6.087   4.641   4.696  0.0001 -0.0515  0.2115
   40MOL   C11522033   6.009   4.756   4.680 -0.0701 -0.1733 -0.4188
   40MOL   C11622034   6.063   4.851   4.794  0.6157 -0.6589  0.0245
   40MOL   O11722035   6.171   4.930   4.742 -0.2654  0.1226  0.3441
   40MOL   C11822036   5.952   4.942   4.847  0.5893  0.0705  0.1160
   40MOL   C11922037   6.006   5.063   4.933 -0.7551 -0.6149  0.3237
   40MOL   C12022038   5.899   5.153   4.989 -0.5685 -0.5334 -0.0205
   40MOL   O12122039   5.963   5.248   5.077 -0.0645 -0.1805  0.0982
   40MOL   C12222040   5.795   5.064   5.068  0.3217 -0.2109  0.1958
   40MOL   C12322041   5.672   5.142   5.128  0.5546  0.7824 -0.1190
   40MOL   C12422042   5.739   4.950   4.986  0.1649  0.5797  0.7068
   40MOL   C12522043   5.857   4.864   4.940 -0.0830 -0.5367 -0.2915
   40MOL   H12622044   5.906   4.734   4.710 -0.4481  0.0762 -1.5337
   40MOL   H12722045   6.010   4.805   4.583  0.2589 -1.7334 -1.2223
   40MOL   H12822046   6.101   4.786   4.873  0.0358 -0.5641  0.3750
   40MOL   H12922047   6.136   4.967   4.662 -0.3704 -1.0590 -0.1714
   40MOL   H13022048   5.898   4.973   4.758  1.5101  0.2919 -0.3745
   40MOL   H13122049   6.076   5.043   5.014  0.2106 -1.0531 -0.6036
   40MOL   H13222050   6.057   5.127   4.861 -0.9086 -2.7661 -1.7565
   40MOL   H13322051   5.847   5.210   4.912  1.0093 -1.1204 -1.5524
   40MOL   H13422052   6.026   5.299   5.028 -2.1445  1.1818 -1.2599
   40MOL   H13522053   5.845   5.018   5.153  0.7387 -3.0425 -1.4939
   40MOL   H13622054   5.635   5.216   5.056 -0.7161  1.0684  0.8055
   40MOL   H13722055   5.601   5.061   5.149  2.0068  0.0590  2.1754
   40MOL   H13822056   5.685   4.999   4.905  1.4751  1.1981  0.1958
   40MOL   H13922057   5.678   4.883   5.047 -1.0149  0.9722 -0.0277
   40MOL   H14022058   5.818   4.774   4.892 -0.6769  0.6729 -2.1120
   40MOL   H14122059   5.916   4.816   5.019  1.3943  0.9094 -0.4851
   40MOL   O14222060   5.704   5.201   5.250 -0.0936 -0.5608 -0.5129
   40MOL   C14322061   5.598   5.291   5.299 -0.1105 -0.0324 -0.0439
   40MOL   C14422062   5.657   5.367   5.424  0.5177  0.2649  0.1859
   40MOL   O14522063   5.746   5.465   5.385 -0.3381 -0.2260 -0.4632
   40MOL   C14622064   5.553   5.430   5.518  0.3837  0.0541 -0.5253
   40MOL   C14722065   5.482   5.559   5.472 -0.1281  0.2027  0.1240
   40MOL   C14822066   5.376   5.600   5.571  0.3615 -0.5069  0.4683
   40MOL   O14922067   5.312   5.718   5.537  0.2872 -0.2031  0.6094
   40MOL   C15022068   5.428   5.615   5.720 -0.5069  0.1847 -0.1367
   40MOL   C15122069   5.320   5.640   5.824 -1.0849  0.2054 -0.4518
   40MOL   C15222070   5.515   5.496   5.762 -0.0410 -0.0362  1.0079
   40MOL   C15322071   5.613   5.452   5.653 -0.0530 -0.3375 -0.0219
   40MOL   H15422072   5.511   5.231   5.325  0.6286  0.6531  4.3475
   40MOL   H15522073   5.583   5.367   5.222 -4.1677  1.0814  1.6948
   40MOL   H15622074   5.708   5.284   5.473 -0.0195 -0.1377  0.0654
   40MOL   H15722075   5.825   5.417   5.365  0.5126  1.0842 -0.3391
   40MOL   H15822076   5.476   5.355   5.538  0.9757 -0.4532 -0.0936
   40MOL   H15922077   5.560   5.636   5.466 -0.4768  0.7371  2.1671
   40MOL   H16022078   5.434   5.552   5.375  1.3537  2.4408 -0.8379
   40MOL   H16122079   5.305   5.520   5.584 -0.0892 -0.0179  1.0389
   40MOL   H16222080   5.245   5.697   5.474  0.9109  4.0135 -1.5602
   40MOL   H16322081   5.491   5.703   5.732  0.1667 -0.5837  2.2956
   40MOL   H16422082   5.304   5.747   5.814 -1.7598  0.1406 -0.0922
   40MOL   H16522083   5.230   5.579   5.811 -0.4717 -1.1792  1.4791
   40MOL   H16622084   5.457   5.406   5.784  0.7038 -1.5201 -2.6730
   40MOL   H16722085   5.572   5.520   5.852 -1.4277  1.8611  1.3973
   40MOL   H16822086   5.652   5.353   5.678  0.8361  0.1173  0.4310
   40MOL   H16922087   5.695   5.523   5.644  0.2163 -0.8337 -1.6674
   40MOL   O17022088   5.386   5.641   5.950  0.2314 -0.6672 -0.1006
   40MOL   C17122089   5.289   5.677   6.050  0.3982  0.9281 -0.1922
   40MOL   C17222090   5.344   5.647   6.194  0.9051  0.2966  0.4095
   40MOL   O17322091   5.328   5.509   6.221  0.3637  0.0173 -0.2200
   40MOL   C17422092   5.489   5.691   6.211  0.2425 -0.0587 -0.2010
   40MOL   C17522093   5.517   5.697   6.361  0.3566  0.4475 -0.9210
   40MOL   C17622094   5.667   5.741   6.398  0.7856 -0.7166  0.2955
   40MOL   O17722095   5.673   5.756   6.538  0.4594  0.1207  0.1927
   40MOL   C17822096   5.702   5.871   6.336 -0.7926 -0.2569 -0.5117
   40MOL   C17922097   5.846   5.931   6.353  0.2433 -0.3681  0.3173
   40MOL   C18022098   5.683   5.854   6.184 -0.3985 -0.3554 -0.5726
   40MOL   C18122099   5.541   5.828   6.144 -0.0438 -0.2436  0.2629
   40MOL   H18222100   5.197   5.620   6.037  0.3443  0.7219  0.9718
   40MOL   H18322101   5.262   5.782   6.039 -1.4893  0.2888 -1.9187
   40MOL   H18422102   5.285   5.703   6.266  0.0617 -3.2310  2.5617
   40MOL   H18522103   5.292   5.462   6.147  0.2280  0.4306 -0.4169
   40MOL   H18622104   5.561   5.618   6.174  1.6276  0.2782  1.7721
   40MOL   H18722105   5.450   5.776   6.394  2.1388  1.8076 -0.4560
   40MOL   H18822106   5.497   5.608   6.421  0.9563  0.4060 -0.7721
   40MOL   H18922107   5.740   5.662   6.375  2.1061  0.0553  1.8013
   40MOL   H19022108   5.721   5.685   6.578  1.2649  0.2366 -0.5667
   40MOL   H19122109   5.626   5.943   6.368 -0.0271 -0.0382  0.8975
   40MOL   H19222110   5.873   5.935   6.458 -3.0812 -2.0917  1.2955
   40MOL   H19322111   5.917   5.866   6.302 -2.1865 -1.6920 -1.4776
   40MOL   H19422112   5.750   5.780   6.141  2.3215  1.4350  0.4685
   40MOL   H19522113   5.715   5.940   6.125 -1.2770  1.8347  2.0607
   40MOL   H19622114   5.538   5.824   6.035  1.5188 -1.2044  0.2318
   40MOL   H19722115   5.475   5.909   6.174  0.9891 -1.0330  5.1168
   40MOL   O19822116   5.851   6.067   6.309  0.3834  0.1178  0.6803
   40MOL   C19922117   5.808   6.176   6.401  0.2781 -0.6520  0.5119
   40MOL   C20022118   5.940   6.252   6.428 -0.5642 -0.4256 -0.2701
   40MOL   O20122119   5.935   6.368   6.343 -0.1110  0.0161  0.2704
   40MOL   C20222120   5.969   6.303   6.573  0.6849 -0.2630  0.4038
   40MOL   C20322121   6.089   6.397   6.597 -0.1503  0.2554 -0.6298
   40MOL   C20422122   6.077   6.470   6.733  0.2517 -0.0009  0.4491
   40MOL   O20522123   6.174   6.572   6.742 -0.5502 -0.2538 -0.4271
   40MOL   C20622124   6.095   6.363   6.844  0.2108 -0.0357 -0.3801
   40MOL   C20722125   6.110   6.425   6.986 -0.7271 -0.4563  0.2002
   40MOL   C20822126   5.976   6.251   6.830 -0.5268 -0.5280  0.1849
   40MOL   C20922127   5.973   6.191   6.684 -0.6007  0.3223 -0.3186
   40MOL   H21022128   5.758   6.141   6.491 -2.2007  1.4413  0.0102
   40MOL   H21122129   5.738   6.240   6.347  1.4162  1.1165  1.1143
   40MOL   H21222130   6.029   6.196   6.402 -0.9960 -1.1544 -0.1823
   40MOL   H21322131   5.846   6.376   6.314 -0.6395 -1.3859  1.4480
   40MOL   H21422132   5.880   6.362   6.593 -0.2394 -1.5176  0.0928
   40MOL   H21522133   6.189   6.352   6.598 -0.5376 -0.6068 -1.0416
   40MOL   H21622134   6.097   6.469   6.516 -0.4254  0.9520 -0.0474
   40MOL   H21722135   5.978   6.513   6.747 -0.7193 -1.6147 -1.1810
   40MOL   H21822136   6.134   6.647   6.701  0.5028  0.2290 -0.5706
   40MOL   H21922137   6.192   6.314   6.833  0.4653 -0.1306  2.0597
   40MOL   H22022138   6.195   6.493   6.993  0.2675 -1.8739  2.4118
   40MOL   H22122139   6.029   6.477   7.036 -0.2086  0.5947 -0.0160
   40MOL   H22222140   5.882   6.294   6.863  0.9686  2.6721  0.5020
   40MOL   H22322141   5.997   6.180   6.911  1.3999 -1.0623 -0.7390
   40MOL   H22422142   5.899   6.113   6.667 -2.2887  1.8128 -0.0025
   40MOL   H22522143   6.059   6.125   6.674 -0.6573 -0.3291  2.9815
   40MOL   O22622144   6.141   6.317   7.071  0.6396  0.9241 -0.4974
   40MOL   C22722145   6.163   6.354   7.205  0.0680  0.4422  0.2175
   40MOL   C22822146   6.153   6.223   7.295  0.4637  0.4355  0.3229
   40MOL   O22922147   6.262   6.146   7.250 -0.1033 -0.0967 -0.4991
   40MOL   C23022148   6.143   6.256   7.439  0.2045 -0.5020  0.2522
   40MOL   C23122149   6.262   6.339   7.485 -0.4834  0.3652  0.3662
   40MOL   C23222150   6.246   6.374   0.003 -0.2723 -0.5426 -0.4590
   40MOL   O23322151   6.348   6.473   0.034  0.5933 -0.0108 -0.4829
   40MOL   C23422152   6.262   6.250   0.082  0.5330  0.6157 -0.4247
   40MOL   C23522153   6.255   6.288   0.230  0.3359 -0.5341 -0.5317
   40MOL   C23622154   6.150   6.153   0.054 -0.5391  0.2478  0.2724
   40MOL   C23722155   6.138   6.125   7.530  0.4123 -0.4118  0.3369
   40MOL   H23822156   6.091   6.431   7.234 -0.3318 -0.0477  0.5328
   40MOL   H23922157   6.263   6.396   7.197 -0.4850  1.5021 -1.4367
   40MOL   H24022158   6.063   6.169   7.266 -0.5993  1.8497  0.9105
   40MOL   H24122159   6.251   6.153   7.156  1.9075 -0.0064 -0.7622
   40MOL   H24222160   6.052   6.314   7.450  1.4195  1.4619  0.1537
   40MOL   H24322161   6.357   6.291   7.461  0.1908  1.5319  0.6536
   40MOL   H24422162   6.269   6.427   7.421 -0.1887 -1.5867 -2.3740
   40MOL   H24522163   6.150   6.423   0.020 -0.1599 -0.9589  1.4938
   40MOL   H24622164   6.433   6.440   0.008  0.8415 -0.0809  0.4086
   40MOL   H24722165   6.365   6.216   0.078  0.2151 -0.3565 -0.4916
   40MOL   H24822166   6.341   6.349   0.260  0.1978  0.3919 -1.9940
   40MOL   H24922167   6.163   6.342   0.252  0.9684  0.4752 -0.3270
   40MOL   H25022168   6.063   6.212   0.084 -0.5676 -0.4044  1.5081
   40MOL   H25122169   6.153   6.055   0.103  0.7783  0.0002 -0.2899
   40MOL   H25222170   6.045   6.076   7.501 -1.1453  2.8642 -0.5665
   40MOL   H25322171   6.218   6.058   7.501  1.5866  0.7351  0.9024
   40MOL   O25422172   6.251   6.184   0.328  0.1754  0.0348 -0.5031
   40MOL   C25522173   6.373   6.113   0.335 -0.1527 -0.0258  0.3314
   40MOL   C25622174   6.385   6.037   0.461  0.0520  0.8693  0.3863
   40MOL   O25722175   6.426   6.141   0.547 -0.4147  0.4155  0.3303
   40MOL   C25822176   6.249   5.972   0.493  0.3866 -0.2222  0.4992
   40MOL   C25922177   6.247   5.929   0.642 -0.7966 -0.1649 -0.4023
   40MOL   C26022178   6.110   5.852   0.683 -0.5679 -0.0762 -0.6491
   40MOL   O26122179   6.110   5.821   0.822  0.0234 -0.0230 -0.3013
   40MOL   C26222180   6.094   5.734   0.584  0.6501  0.6140 -0.1778
   40MOL   C26322181   5.964   5.653   0.610  0.4369 -0.0440 -0.3798
   40MOL   C26422182   6.087   5.784   0.441  0.1020  0.0989  0.2219
   40MOL   C26522183   6.220   5.850   0.402 -0.8472 -0.9122 -0.2692
   40MOL   H26622184   6.462   6.174   0.321 -0.8221  0.4710 -1.8247
   40MOL   H26722185   6.380   6.040   0.254 -1.4258  0.3209 -0.1098
   40MOL   H26822186   6.473   5.973   0.453 -0.0704  0.8607 -0.8988
   40MOL   H26922187   6.353   6.201   0.555 -0.0413  1.0218 -0.7787
   40MOL   H27022188   6.162   6.035   0.478  0.1582 -0.9133 -1.1881
   40MOL   H27122189   6.334   5.866   0.665 -0.6350  0.2394  0.1034
   40MOL   H27222190   6.257   6.022   0.697  2.1093 -0.1909 -0.7758
   40MOL   H27322191   6.029   5.912   0.643 -0.6868 -1.0155 -1.8332
   40MOL   H27422192   6.022   5.809   0.853  0.3435 -3.6440 -0.6784
   40MOL   H27522193   6.175   5.662   0.595  1.3029  1.6179  1.8172
   40MOL   H27622194   5.955   5.569   0.541 -1.2217 -0.0044 -0.2456
   40MOL   H27722195   5.947   5.614   0.710 -3.1370 -0.1085 -0.9282
   40MOL   H27822196   6.002   5.851   0.431 -1.1491 -1.3435  0.9107
   40MOL   H27922197   6.060   5.706   0.371 -0.0815 -0.1242  0.5390
   40MOL   H28022198   6.208   5.890   0.302  0.1098 -2.4757 -1.0316
   40MOL   H28122199   6.304   5.780   0.405  1.7442  2.1479  0.9266
   40MOL   O28222200   5.852   5.737   0.589 -0.1026  0.3401 -0.4080
   40MOL   C28322201   5.731   5.669   0.582  0.5061 -0.0142 -0.9215
   40MOL   C28422202   5.627   5.778   0.558  0.4221 -0.1570 -0.4949
   40MOL   O28522203   5.605   5.839   0.686 -0.1008 -0.0862  0.7191
   40MOL   C28622204   5.657   5.885   0.449 -0.3881 -0.4582  0.4504
   40MOL   C28722205   5.536   5.979   0.431 -0.0962  0.3653 -0.2476
   40MOL   C28822206   5.557   6.081   0.319 -0.0965 -0.0165 -0.0456
   40MOL   O28922207   5.439   6.150   0.297  0.2464 -0.5217 -0.2290
   40MOL   C29022208   5.593   6.019   0.187  0.9139 -0.2895 -0.4910
   40MOL   C29122209   5.636   6.126   0.082  0.0033  0.3200 -0.0939
   40MOL   C29222210   5.713   5.931   0.204 -0.7786 -0.5156 -0.1588
   40MOL   C29322211   5.688   5.823   0.310  0.3183  0.1223 -0.5824
   40MOL   H29422212   5.718   5.618   0.678  0.1113  1.8318  0.0428
   40MOL   H29522213   5.742   5.596   0.502 -3.1968  0.1516 -1.6945
   40MOL   H29622214   5.536   5.727   0.525  0.1143  0.1469 -0.1205
   40MOL   H29722215   5.679   5.883   0.723  0.7510 -1.0803  0.2360
   40MOL   H29822216   5.752   5.928   0.479 -0.8904  0.6575  0.4471
   40MOL   H29922217   5.453   5.912   0.408  0.5469 -0.4571 -0.1796
   40MOL   H30022218   5.511   6.022   0.528 -3.1763 -1.0305 -0.3484
   40MOL   H30122219   5.642   6.144   0.344 -0.3616  1.3999 -2.5019
   40MOL   H30222220   5.384   6.098   0.240  0.7812 -0.1172 -1.1106
   40MOL   H30322221   5.515   5.952   0.151  0.6320 -0.8016  1.0252
   40MOL   H30422222   5.547   6.186   0.060  0.5457  2.0818  2.2970
   40MOL   H30522223   5.717   6.185   0.125  0.0088  0.5257 -0.3854
   40MOL   H30622224   5.798   5.991   0.236 -0.7961 -1.3063  1.4275
   40MOL   H30722225   5.727   5.884   0.107 -0.4263 -0.0189 -0.3537
   40MOL   H30822226   5.772   5.755   0.323  0.0718  0.3074  2.3187
   40MOL   H30922227   5.607   5.755   0.288  0.3335  0.4735 -1.7150
   40MOL   O31022228   5.672   6.068   7.587  0.3153 -0.0850  0.4306
   40MOL   C31122229   5.700   6.173   7.494  0.1093  0.2049  0.4416
   40MOL   C31222230   5.687   6.125   7.351 -0.0673 -0.4303  0.0476
   40MOL   O31322231   5.803   6.043   7.333 -0.1921 -0.2720 -0.0259
   40MOL   C31422232   5.549   6.052   7.321  0.0445  0.1120 -0.6328
   40MOL   C31522233   5.543   5.902   7.355 -0.2422 -0.5201 -0.8416
   40MOL   C31622234   5.397   5.854   7.336 -0.1339  1.2610 -0.2309
   40MOL   O31722235   5.393   5.712   7.370 -0.1397 -0.1557  0.1650
   40MOL   C31822236   5.343   5.873   7.192  0.0321  0.3910 -0.4005
   40MOL   C31922237   5.195   5.821   7.170  0.0567  0.1644 -0.9224
   40MOL   C32022238   5.354   6.024   7.156 -0.2274 -0.4809  0.0495
   40MOL   C32122239   5.493   6.069   7.180  0.1158  0.0534 -0.1965
   40MOL   H32222240   5.800   6.207   7.520  0.5082 -3.2569  3.8720
   40MOL   H32322241   5.630   6.256   7.503 -2.2167 -1.0767 -4.1244
   40MOL   H32422242   5.697   6.209   7.283 -0.1376  0.3963  1.0448
   40MOL   H32522243   5.818   5.999   7.415 -0.4083 -2.3133 -1.0421
   40MOL   H32622244   5.483   6.095   7.397  1.1137  1.1785 -0.2848
   40MOL   H32722245   5.609   5.843   7.292  0.7572 -0.9883  0.6400
   40MOL   H32822246   5.577   5.892   7.458  0.7323 -0.4500 -1.1514
   40MOL   H32922247   5.324   5.905   7.399 -1.5980  1.2023 -1.8367
   40MOL   H33022248   5.322   5.661   7.335  1.2337 -1.5443 -0.6988
   40MOL   H33122249   5.412   5.833   7.118  1.1903  0.9689  0.3534
   40MOL   H33222250   5.130   5.878   7.237  1.2046  1.3023 -0.7627
   40MOL   H33322251   5.175   5.857   7.069  1.4405  2.8526 -0.2856
   40MOL   H33422252   5.278   6.086   7.204  1.5106  2.7801 -1.2498
   40MOL   H33522253   5.331   6.049   7.053  0.3076 -0.2504 -0.0134
   40MOL   H33622254   5.510   6.174   7.155 -0.6859 -0.0719 -1.3203
   40MOL   H33722255   5.564   6.013   7.119  0.6333  1.1407 -0.6017
   40MOL   O33822256   5.170   5.689   7.200  0.1363  0.9011 -0.1587
   40MOL   C33922257   5.209   5.592   7.101  0.7300 -1.3331 -0.2330
   40MOL   C34022258   5.149   5.461   7.144  0.5228  0.3607 -0.3598
   40MOL   O34122259   5.133   5.382   7.025 -0.1110 -0.1163 -0.0850
   40MOL   C34222260   5.228   5.394   7.258  0.1090  0.0655 -0.9683
   40MOL   C34322261   5.366   5.356   7.205 -0.5546  0.8178  0.2211
   40MOL   C34422262   5.442   5.278   7.312 -0.2660  0.0423  0.4084
   40MOL   O34522263   5.570   5.228   7.271 -0.6537  0.3497  0.6409
   40MOL   C34622264   5.365   5.160   7.368 -0.5554  0.6028 -0.0092
   40MOL   C34722265   5.433   5.086   7.484  0.6032 -0.5459  0.1781
   40MOL   C34822266   5.237   5.214   7.425 -0.3176  0.1231 -0.2551
   40MOL   C34922267   5.151   5.281   7.318  0.0203  0.1460 -0.3412
   40MOL   H35022268   5.316   5.577   7.083  1.2107  1.2513  0.2171
   40MOL   H35122269   5.160   5.621   7.008  2.9362 -0.4732 -1.1741
   40MOL   H35222270   5.050   5.487   7.183  0.9064  1.6779 -0.2573
   40MOL   H35322271   5.223   5.374   6.998  0.6186 -1.4183  2.6152
   40MOL   H35422272   5.236   5.463   7.342 -0.8428  1.3895 -1.9422
   40MOL   H35522273   5.352   5.284   7.123  0.2632 -0.8761  1.5396
   40MOL   H35622274   5.430   5.439   7.175  1.2675 -0.4475  0.5344
   40MOL   H35722275   5.462   5.362   7.379 -1.8378  2.0853 -1.6115
   40MOL   H35822276   5.594   5.176   7.347 -0.4932 -0.1095  0.2757
   40MOL   H35922277   5.354   5.086   7.288  2.1523 -1.0554  1.0711
   40MOL   H36022278   5.471   5.152   7.562 -0.2355 -2.1096  1.9594
   40MOL   H36122279   5.358   5.021   7.529 -1.9363  0.7159 -2.1109
   40MOL   H36222280   5.268   5.283   7.502 -0.8080 -0.4192  0.4365
   40MOL   H36322281   5.174   5.135   7.468 -0.4170  0.4971  0.2806
   40MOL   H36422282   5.057   5.315   7.361  0.8982  1.6563  0.4263
   40MOL   H36522283   5.127   5.205   7.243 -0.6072 -1.1963  1.1929
   40MOL   O36622284   5.536   5.003   7.443  0.6144 -0.1791  0.5490
   40MOL   C36722285   5.619   4.963   7.548  0.1515  0.1935  0.0285
   40MOL   C36822286   5.743   4.885   7.495  0.1826  0.1205 -0.1048
   40MOL   O36922287   5.682   4.783   7.422 -0.5860  0.0757 -0.4170
   40MOL   C37022288   5.843   4.965   7.403 -0.6354  0.6954 -0.3768
   40MOL   C37122289   5.969   4.878   7.371  0.2741  0.2444  0.8304
   40MOL   C37222290   6.054   4.944   7.264 -0.8301  0.4797 -0.4112
   40MOL   O37322291   6.162   4.849   7.243 -0.3136 -0.0251  0.0125
   40MOL   C37422292   6.110   5.072   7.326 -0.1155 -0.5625  0.8591
   40MOL   C37522293   6.205   5.133   7.214  0.1352 -0.3144  0.0989
   40MOL   C37622294   6.002   5.167   7.369 -0.0891  0.3790 -0.3788
   40MOL   C37722295   5.888   5.097   7.460 -0.1002 -0.4093 -0.4414
   40MOL   H37822296   5.557   4.905   7.616  0.7801 -0.1571  0.3058
   40MOL   H37922297   5.650   5.044   7.614 -0.9549  0.0291  0.7682
   40MOL   H38022298   5.800   4.835   7.573 -0.8718  2.6432  2.3920
   40MOL   H38122299   5.639   4.828   7.351 -3.1267 -0.0783  0.9916
   40MOL   H38222300   5.798   4.991   7.307 -0.1944  2.6421 -0.0689
   40MOL   H38322301   6.032   4.870   7.459 -1.9495  0.2045  2.4720
   40MOL   H38422302   5.936   4.781   7.332  2.0069 -0.3415  0.7720
   40MOL   H38522303   6.002   4.961   7.170  0.7527 -2.8843 -1.9882
   40MOL   H38622304   6.128   4.780   7.189  0.5823  0.2694 -0.9291
   40MOL   H38722305   6.174   5.050   7.411  0.7538 -1.2268  0.0399
   40MOL   H38822306   6.283   5.062   7.186 -1.5224 -3.2063  2.4885
   40MOL   H38922307   6.140   5.149   7.128  0.0831 -0.4979  0.1027
   40MOL   H39022308   5.941   5.204   7.286 -1.6807 -1.6300 -0.1345
   40MOL   H39122309   6.044   5.254   7.418  0.6649 -0.9382  1.3637
   40MOL   H39222310   5.805   5.167   7.452  0.2207  0.0334  0.0334
   40MOL   H39322311   5.921   5.086   7.563  2.8997  0.5330 -1.2458
   40MOL   O39422312   6.259   5.254   7.259  0.0845  0.4633 -0.2163
   40MOL   C39522313   6.310   5.342   7.161  0.1060 -0.2519  0.5103
   40MOL   C39622314   6.335   5.480   7.227  0.2160 -0.7841  0.0681
   40MOL   O39722315   6.357   5.578   7.130 -0.8247 -0.6602  0.5018
   40MOL   C39822316   6.216   5.527   7.316 -0.3088 -0.0653 -0.1582
   40MOL   C39922317   6.084   5.538   7.237  0.2912  0.6155 -0.0795
   40MOL   C40022318   5.970   5.593   7.325  0.7210 -0.5676 -0.3054
   40MOL   O40122319   5.855   5.581   7.244  0.1871  0.2632  0.3023
   40MOL   C40222320   5.998   5.726   7.404  0.7463  0.2501  0.2231
   40MOL   C40322321   5.885   5.766   7.497 -0.3185  0.3988 -0.3624
   40MOL   C40422322   6.133   5.720   7.474  0.1896  0.4553  0.1356
   40MOL   C40522323   6.242   5.663   7.389 -0.2990  0.1155  0.7739
   40MOL   H40622324   6.242   5.366   7.079 -0.6457  2.0147  1.7338
   40MOL   H40722325   6.393   5.293   7.110 -0.6232 -0.6337 -0.3429
   40MOL   H40822326   6.421   5.474   7.295  0.8489 -0.3343 -0.6802
   40MOL   H40922327   6.278   5.581   7.077 -0.4722  0.4071  0.0165
   40MOL   H41022328   6.207   5.448   7.391  0.9538 -0.2085 -0.1304
   40MOL   H41122329   6.091   5.613   7.158 -2.0488  1.3033  0.3210
   40MOL   H41222330   6.066   5.447   7.180 -1.4082  0.2187  1.0573
   40MOL   H41322331   5.964   5.516   7.402 -1.1653  0.2824  0.4056
   40MOL   H41422332   5.840   5.656   7.189 -0.0677 -0.8128 -1.1132
   40MOL   H41522333   5.997   5.808   7.331 -2.0498 -1.0981 -1.3446
   40MOL   H41622334   5.919   5.843   7.566  0.1088 -0.1809  0.0710
   40MOL   H41722335   5.806   5.813   7.439  0.1584  0.8957 -0.6126
   40MOL   H41822336   6.110   5.670   7.568  1.4669 -4.6215 -2.0866
   40MOL   H41922337   6.158   5.823   7.498 -0.3632  0.8037 -0.7501
   40MOL   H42022338   6.336   5.645   7.441  0.4485  1.2022 -0.1838
   40MOL   H42122339   6.264   5.743   7.318 -1.4327 -0.3624 -0.1507
   40MOL   O42222340   5.829   5.660   7.577 -0.2393  0.1677 -0.0688
   40MOL   C42322341   5.720   5.579   7.533 -0.1741  0.4233 -0.3639
   40MOL   C42422342   5.619   5.543   0.016 -0.0478  0.1697  0.1871
   40MOL   O42522343   5.500   5.524   7.575 -0.5138 -0.2645  0.4782
   40MOL   C42622344   5.663   5.426   0.101 -0.0331  0.8625  0.4487
   40MOL   C42722345   5.562   5.353   0.192  0.1764 -0.4319  0.1035
   40MOL   C42822346   5.627   5.232   0.263 -0.4182 -0.7396 -0.3618
   40MOL   O42922347   5.521   5.165   0.338  0.2203  0.4192  0.2581
   40MOL   C43022348   5.738   5.277   0.363 -0.1604  0.1905  0.6099
   40MOL   C43122349   5.806   5.160   0.448 -0.0137  0.0694 -0.1890
   40MOL   C43222350   5.840   5.336   0.269  0.6979 -0.2463 -0.4754
   40MOL   C43322351   5.789   5.450   0.187 -0.2556 -0.9561  0.5460
   40MOL   H43422352   5.750   5.482   7.493  0.6665  0.7542 -0.5508
   40MOL   H43522353   5.664   5.629   7.453  0.3903  2.6890  0.6147
   40MOL   H43622354   5.620   5.636   0.073 -1.4971 -0.0683  0.6206
   40MOL   H43722355   5.480   5.601   7.523 -0.9618 -1.2734 -0.8731
   40MOL   H43822356   5.695   5.342   0.040  1.5257  0.8884  1.2076
   40MOL   H43922357   5.538   5.433   0.261  1.0102 -0.8102  0.8350
   40MOL   H44022358   5.471   5.321   0.142 -1.4970  1.0606  2.1389
   40MOL   H44122359   5.659   5.148   0.201 -0.3737  0.1414 -1.5552
   40MOL   H44222360   5.505   5.217   0.415 -0.3502  3.1233 -1.6348
   40MOL   H44322361   5.708   5.355   0.434  1.6964  0.9206  0.6146
   40MOL   H44422362   5.732   5.113   0.512 -1.3884  0.1714 -1.6612
   40MOL   H44522363   5.850   5.086   0.381  0.0806  2.5646 -3.0317
   40MOL   H44622364   5.869   5.249   0.210  0.4261 -0.2015 -0.6788
   40MOL   H44722365   5.925   5.354   0.334 -0.7457  0.3644  1.2770
   40MOL   H44822366   5.876   5.478   0.127 -0.9564 -0.9614 -0.4837
   40MOL   H44922367   5.756   5.533   0.249 -0.0625  1.3958 -2.3863
   40MOL   O45022368   5.916   5.225   0.512 -0.4922 -0.3702  0.1552
   40MOL   C45122369   5.996   5.146   0.596  0.3711  0.2652  0.6171
   40MOL   C45222370   6.121   5.228   0.651  0.1578  0.1015 -0.4837
   40MOL   O45322371   6.137   5.329   0.558  0.3968 -0.1022 -0.2826
   40MOL   C45422372   6.096   5.300   0.785  0.0447 -0.1207 -0.7433
   40MOL   C45522373   6.189   5.419   0.813 -0.0596  0.0058 -0.3318
   40MOL   C45622374   6.164   5.499   0.942  0.3409 -0.7324  0.3439
   40MOL   O45722375   6.259   5.599   0.953  0.4430 -0.1532  0.2508
   40MOL   C45822376   6.164   5.409   1.067 -1.0598  0.8219  0.2000
   40MOL   C45922377   6.113   5.478   1.204  0.1528 -0.6168  0.0323
   40MOL   C46022378   6.077   5.282   1.045  0.1241  0.7982 -0.3909
   40MOL   C46122379   6.092   5.205   0.912  0.4087 -0.1778  0.1989
   40MOL   H46222380   6.039   5.065   0.538  0.8097  1.1879 -0.3680
   40MOL   H46322381   5.934   5.098   0.671 -1.2430 -0.3146 -1.0420
   40MOL   H46422382   6.206   5.160   0.650 -1.4616 -2.0794  2.0125
   40MOL   H46522383   6.082   5.298   0.487 -0.7133 -0.7661  0.8451
   40MOL   H46622384   6.000   5.351   0.778  0.4654  0.7414 -0.3296
   40MOL   H46722385   6.294   5.392   0.825  0.0173  0.8366  0.8803
   40MOL   H46822386   6.186   5.485   0.726  1.5310 -1.3319 -1.4289
   40MOL   H46922387   6.067   5.546   0.923  0.4831 -0.7819 -0.5072
   40MOL   H47022388   6.227   5.683   0.922 -0.3833 -0.3346  0.5905
   40MOL   H47122389   6.266   5.386   1.099 -0.9793 -0.4920 -0.9386
   40MOL   H47222390   6.126   5.586   1.197  2.6612 -0.8037  1.4840
   40MOL   H47322391   6.006   5.457   1.202 -0.8114  3.9063 -3.3358
   40MOL   H47422392   5.971   5.308   1.047 -0.1559 -0.2730 -0.8028
   40MOL   H47522393   6.091   5.217   1.132 -3.1405  0.9667  0.3278
   40MOL   H47622394   6.017   5.127   0.902  1.0355 -0.6292 -1.3119
   40MOL   H47722395   6.193   5.163   0.914  0.1358 -0.8516 -0.0785
   40MOL   O47822396   6.165   5.403   1.309 -1.3514  0.0394  0.4023
   40MOL   C47922397   6.108   5.443   1.433 -0.0373  0.0232  0.1400
   40MOL   C48022398   6.026   5.336   1.500 -0.0079  0.4884 -0.7493
   40MOL   O48122399   5.971   5.380   1.631 -0.4184 -0.0551 -0.2064
   40MOL   C48222400   5.905   5.286   1.409 -0.0561  0.2010  0.1792
   40MOL   C48322401   5.808   5.394   1.384 -0.0124  0.5412 -0.3527
   40MOL   C48422402   5.684   5.351   1.307 -0.8690 -0.2634 -1.0004
   40MOL   O48522403   5.600   5.459   1.314  0.4968  0.3977  0.4302
   40MOL   C48622404   5.608   5.225   1.363 -0.4601 -0.4267  0.2313
   40MOL   C48722405   5.499   5.185   1.258  0.2288  0.5145  0.5536
   40MOL   C48822406   5.710   5.117   1.386  0.2705  0.3217  0.5670
   40MOL   C48922407   5.830   5.166   1.469  1.3811 -0.5102  0.6804
   40MOL   H49022408   6.052   5.536   1.424 -3.9008 -2.1862  0.0220
   40MOL   H49122409   6.191   5.467   1.498 -0.6384 -1.6240  1.5554
   40MOL   H49222410   6.093   5.251   1.512  1.1078  1.7830  2.9153
   40MOL   H49322411   5.937   5.468   1.631 -1.0037 -0.2691  1.1273
   40MOL   H49422412   5.947   5.261   1.312 -0.8161 -1.7711  0.3526
   40MOL   H49522413   5.771   5.442   1.475  0.0870  0.0875 -0.0682
   40MOL   H49622414   5.860   5.477   1.338  1.6529 -0.3793 -0.1867
   40MOL   H49722415   5.711   5.338   1.202  1.8652  2.0194 -0.6264
   40MOL   H49822416   5.628   5.500   1.394 -1.1803  0.6321  0.9131
   40MOL   H49922417   5.553   5.253   1.453 -2.8180  0.6693 -1.5124
   40MOL   H50022418   5.440   5.269   1.223  0.8916  1.5105  1.7538
   40MOL   H50122419   5.549   5.135   1.176  0.7826  2.3704 -0.2705
   40MOL   H50222420   5.753   5.089   1.290  1.3762  0.4666  1.0089
   40MOL   H50322421   5.670   5.021   1.419  1.4714 -1.1006 -1.9970
   40MOL   H50422422   5.893   5.078   1.486  1.5911 -0.2809  1.0843
   40MOL   H50522423   5.775   5.200   1.556  0.2532 -0.2073 -0.1321
   40MOL   O50622424   5.406   5.105   1.320 -0.3048 -0.6587  0.4334
   40MOL   C50722425   5.309   5.060   1.233  0.0633 -0.4549 -0.1723
   40MOL   C50822426   5.197   4.994   1.310 -0.3293  0.6299  0.0889
   40MOL   O50922427   5.145   5.085   1.403 -0.6665  0.7258 -0.3733
   40MOL   C51022428   5.084   4.946   1.220 -0.0287 -0.1352  0.3067
   40MOL   C51122429   5.005   5.050   1.144  0.1848 -0.2881 -0.2191
   40MOL   C51222430   4.886   4.987   1.066 -0.0170 -0.2580 -0.3926
   40MOL   O51322431   4.804   5.086   1.000  0.8668 -0.0335 -0.0219
   40MOL   C51422432   4.795   4.896   1.153 -0.6253  0.1430  0.4339
   40MOL   C51522433   4.688   4.818   1.076  0.6600  0.2337  0.2939
   40MOL   C51622434   4.884   4.800   1.236 -0.5662  0.2438 -0.7967
   40MOL   C51722435   5.003   4.860   1.306 -0.0004  0.2135  0.5736
   40MOL   H51822436   5.355   4.993   1.160  0.1627  0.9721 -1.4645
   40MOL   H51922437   5.261   5.144   1.182 -0.6517 -0.6350  0.2041
   40MOL   H52022438   5.244   4.915   1.368  1.6368  0.4174 -1.7484
   40MOL   H52122439   5.214   5.149   1.411  0.0041 -0.1853  1.4863
   40MOL   H52222440   5.124   4.887   1.138 -0.2219 -0.2539  0.2984
   40MOL   H52322441   4.962   5.124   1.212  2.0503  1.5155 -0.9299
   40MOL   H52422442   5.056   5.117   1.074  1.9500  0.0073  1.3033
   40MOL   H52522443   4.913   4.920   0.984 -1.7122  0.7837 -1.8538
   40MOL   H52622444   4.769   5.148   1.063  1.3523  0.4341 -0.2026
   40MOL   H52722445   4.750   4.960   1.229  1.4489  1.5934  0.4845
   40MOL   H52822446   4.626   4.881   1.012 -2.5321 -2.4733  0.6032
   40MOL   H52922447   4.751   4.755   1.013 -0.1624 -0.5803  0.2783
   40MOL   H53022448   4.909   4.725   1.160 -0.6115 -0.0267 -0.5420
   40MOL   H53122449   4.824   4.749   1.310  0.1649  1.8015  0.9032
   40MOL   H53222450   5.068   4.790   1.359 -1.0112  0.1049  1.6993
   40MOL   H53322451   4.967   4.932   1.379  0.7346  1.4860 -0.3200
   40MOL   O53422452   4.599   4.755   1.171 -0.1541 -0.7045  0.0143
   40MOL   C53522453   4.522   4.646   1.121 -0.1957  0.3792 -0.2301
   40MOL   C53622454   4.397   4.639   1.222 -0.8935 -0.4227  0.1046
   40MOL   O53722455   4.284   4.608   1.137  0.1227 -0.4006 -0.1207
   40MOL   C53822456   4.405   4.553   1.354  0.6826 -0.2973  0.1885
   40MOL   C53922457   4.286   4.565   1.450  0.1099  0.2674  0.3196
   40MOL   C54022458   4.306   4.490   1.579  0.5880  0.2638 -0.5156
   40MOL   O54122459   4.190   4.527   1.650  0.0733 -0.3670 -0.5088
   40MOL   C54222460   4.433   4.544   1.644 -0.1292 -0.7399 -0.8556
   40MOL   C54322461   4.463   4.475   1.787  0.0262 -0.0626 -0.2012
   40MOL   C54422462   4.550   4.517   1.549 -0.1281  0.0635 -0.5595
   40MOL   C54522463   4.535   4.597   1.419  0.4060  0.2334 -0.1917
   40MOL   H54622464   4.588   4.559   1.111  1.5460  1.5768  0.7445
   40MOL   H54722465   4.494   4.668   1.018 -1.9249 -2.6824 -0.5024
   40MOL   H54822466   4.375   4.741   1.251 -0.9955 -0.8678  1.6370
   40MOL   H54922467   4.204   4.609   1.187  1.0670 -1.6199  1.4904
   40MOL   H55022468   4.425   4.449   1.328  0.7808  0.3848 -2.6111
   40MOL   H55122469   4.276   4.670   1.475  2.0009  0.7408 -0.8204
   40MOL   H55222470   4.197   4.536   1.394  1.4943 -1.7175 -0.9064
   40MOL   H55322471   4.312   4.382   1.567 -1.5186  0.0024  0.4637
   40MOL   H55422472   4.179   4.460   1.716  1.5779 -0.8365 -0.7041
   40MOL   H55522473   4.425   4.650   1.667 -0.1720 -0.7684 -0.7407
   40MOL   H55622474   4.540   4.528   1.843  0.4280 -1.7628  0.8772
   40MOL   H55722475   4.373   4.473   1.848 -0.0423  0.8156 -0.2653
   40MOL   H55822476   4.574   4.413   1.528  0.7959  0.0024  0.6944
   40MOL   H55922477   4.639   4.555   1.601 -1.4957 -0.0642  1.9765
   40MOL   H56022478   4.621   4.571   1.357 -0.4563 -1.3322 -0.7492
   40MOL   H56122479   4.543   4.704   1.439  3.4494  0.5628 -2.7223
   40MOL   H56222480   4.482   4.369   1.767  0.1831 -0.0640 -0.0461
   41MOL     O122481   1.477   0.942   4.073  0.7034  0.0726 -0.3976
   41MOL     C222482   1.518   0.909   4.207  0.3710  0.8204  0.3681
   41MOL     C322483   1.601   1.023   4.264 -0.1594 -0.5515  0.2191
   41MOL     O422484   1.670   1.063   4.152  0.1256  0.0652  0.0521
   41MOL     C522485   1.533   1.146   4.333  0.6103  0.4998 -0.1996
   41MOL     C622486   1.639   1.247   4.388 -0.3103 -0.5772 -0.2723
   41MOL     C722487   1.582   1.367   4.458 -0.3777 -0.6361  0.2871
   41MOL     O822488   1.693   1.414   4.514 -0.1671  0.2637  0.6023
   41MOL     C922489   1.476   1.333   4.565  0.8479  0.0385 -0.3336
   41MOL    C1022490   1.396   1.457   4.609  0.6416  0.2550  0.2985
   41MOL    C1122491   1.379   1.225   4.510  0.0735  0.2403  0.4039
   41MOL    C1222492   1.439   1.107   4.446  0.6277 -0.5028  0.0308
   41MOL    H1322493   1.585   0.823   4.203 -2.6790 -1.6126  0.0484
   41MOL    H1422494   1.435   0.864   4.261  0.1990  3.0724  2.0985
   41MOL    H1522495   1.682   0.982   4.324  0.0102 -1.2178 -0.4558
   41MOL    H1622496   1.606   1.027   4.093 -0.2528 -0.6897  0.9196
   41MOL    H1722497   1.466   1.190   4.259 -1.4635  0.0558  1.3629
   41MOL    H1822498   1.714   1.197   4.450  0.2933  0.0108 -0.5269
   41MOL    H1922499   1.689   1.276   4.296 -1.9244  1.3453 -0.5539
   41MOL    H2022500   1.543   1.431   4.379 -1.0275  0.2634  1.3221
   41MOL    H2122501   1.697   1.502   4.480  1.0912  0.4789  1.2874
   41MOL    H2222502   1.521   1.289   4.654 -2.5004 -1.1218  0.8320
   41MOL    H2322503   1.458   1.542   4.636  1.7766  0.1005 -1.7808
   41MOL    H2422504   1.337   1.478   4.520  0.5452  0.7796  0.4891
   41MOL    H2522505   1.326   1.265   4.424  2.3472 -2.4034 -2.3481
   41MOL    H2622506   1.299   1.201   4.580  0.4847 -0.2718  0.7003
   41MOL    H2722507   1.362   1.044   4.402  1.3061  0.0836 -2.0404
   41MOL    H2822508   1.496   1.045   4.515 -1.2821  0.1206  2.2377
   41MOL    H2922509   1.424   0.868   4.048  1.5040 -0.1061 -1.6001
   41MOL    O3022510   1.304   1.439   4.714 -0.2624 -0.0484 -0.3242
   41MOL    C3122511   1.225   1.558   4.727  0.0507 -0.0024  0.4407
   41MOL    C3222512   1.124   1.538   4.842 -0.8192  0.5337 -0.4199
   41MOL    O3322513   1.188   1.551   4.973  0.1956 -0.1585 -0.2274
   41MOL    C3422514   1.004   1.631   4.844  0.1999 -0.2453 -0.0943
   41MOL    C3522515   0.915   1.595   4.722 -0.1546 -0.8960  0.3428
   41MOL    C3622516   0.789   1.689   4.725 -0.0599 -0.2283  0.0785
   41MOL    O3722517   0.726   1.656   4.600  0.2275  0.1791 -0.6965
   41MOL    C3822518   0.829   1.838   4.739 -0.0172 -0.2937 -0.3813
   41MOL    C3922519   0.707   1.928   4.759 -0.1177 -0.2962  0.5628
   41MOL    C4022520   0.935   1.875   4.849 -0.1323  0.0209 -0.1681
   41MOL    C4122521   1.055   1.779   4.839 -0.0134  1.1476 -0.1881
   41MOL    H4222522   1.187   1.582   4.628 -0.0118  0.4888  0.5780
   41MOL    H4322523   1.299   1.637   4.746  1.0163 -1.2250  1.8875
   41MOL    H4422524   1.083   1.437   4.835 -0.1474  0.3007 -1.0677
   41MOL    H4522525   1.258   1.488   4.975 -1.7203 -2.3894 -0.5715
   41MOL    H4622526   0.941   1.630   4.933  1.3979  0.6167  0.7756
   41MOL    H4722527   0.974   1.616   4.633  0.3104  1.1568  1.1073
   41MOL    H4822528   0.885   1.491   4.717  1.3702 -1.2829 -1.2487
   41MOL    H4922529   0.729   1.661   4.812 -0.9486 -2.3818 -1.1813
   41MOL    H5022530   0.672   1.582   4.624 -1.1090  1.2154 -0.4202
   41MOL    H5122531   0.874   1.872   4.646  0.4299 -0.1629 -0.1192
   41MOL    H5222532   0.626   1.897   4.694 -0.3365 -1.9525  1.5909
   41MOL    H5322533   0.656   1.922   4.855 -1.1765  2.2939  0.2011
   41MOL    H5422534   0.890   1.869   4.948  2.0206  1.4084  0.9388
   41MOL    H5522535   0.973   1.976   4.836  3.2358 -1.2756 -1.0536
   41MOL    H5622536   1.126   1.801   4.919 -1.2144 -0.3073  1.3107
   41MOL    H5722537   1.112   1.801   4.749 -0.8632 -0.2756 -1.0865
   41MOL    O5822538   0.747   2.050   4.711  0.3651 -0.4242  0.0947
   41MOL    C5922539   0.645   2.152   4.713  1.2863  0.1067  0.8617
   41MOL    C6022540   0.696   2.291   4.730 -0.3274 -0.2000 -1.4104
   41MOL    O6122541   0.754   2.330   4.608 -0.7736 -0.2069  0.0326
   41MOL    C6222542   0.581   2.386   4.767 -0.6443 -0.3301 -0.2169
   41MOL    C6322543   0.489   2.436   4.651  0.2845  0.1282  0.2816
   41MOL    C6422544   0.380   2.530   4.711 -0.2799  0.6330  0.2055
   41MOL    O6522545   0.317   2.582   4.598  0.4399  0.2618  0.0117
   41MOL    C6622546   0.434   2.648   4.798 -0.0214  0.0819 -0.2365
   41MOL    C6722547   0.313   2.724   4.862 -0.3689 -0.3920 -0.8632
   41MOL    C6822548   0.536   2.594   4.906 -0.2763 -0.9029 -0.1695
   41MOL    C6922549   0.648   2.505   4.844  0.1134 -0.4305 -0.1144
   41MOL    H7022550   0.578   2.130   4.797  0.0986  3.2388  0.7882
   41MOL    H7122551   0.584   2.146   4.623  0.6875 -0.5757  1.3093
   41MOL    H7222552   0.779   2.289   4.800 -2.1079  2.0540  0.8482
   41MOL    H7322553   0.798   2.255   4.570 -1.4931 -1.5736  1.8559
   41MOL    H7422554   0.521   2.345   4.848 -1.1342  3.4844  1.4807
   41MOL    H7522555   0.549   2.481   4.572 -1.7474 -0.9869 -1.9755
   41MOL    H7622556   0.442   2.358   4.591  0.7744  0.6468 -0.7822
   41MOL    H7722557   0.315   2.468   4.773  1.4403  1.0480  2.4638
   41MOL    H7822558   0.383   2.622   4.543  0.8506 -0.3089  0.0776
   41MOL    H7922559   0.481   2.723   4.735  0.0290 -1.9166 -2.6191
   41MOL    H8022560   0.247   2.766   4.786 -0.1185  1.0761 -0.2909
   41MOL    H8122561   0.262   2.658   4.932 -1.0534 -0.3176 -1.2893
   41MOL    H8222562   0.478   2.532   4.974  0.3349 -1.6084 -0.3002
   41MOL    H8322563   0.586   2.670   4.966 -1.4796  0.6498 -1.0922
   41MOL    H8422564   0.697   2.474   4.937  2.4946  0.7821 -0.9284
   41MOL    H8522565   0.713   2.564   4.780 -0.6897  1.0840  0.4567
   41MOL    O8622566   0.357   2.837   4.947 -0.5844  0.5815  0.3144
   41MOL    C8722567   0.275   2.953   4.973  0.1629 -0.1859 -0.3350
   41MOL    C8822568   0.136   2.924   5.027  0.5124 -0.5962  0.3824
   41MOL    O8922569   0.153   2.847   5.141 -0.2295 -0.3447 -0.1408
   41MOL    C9022570   0.061   3.056   5.080 -0.1913  0.0387 -0.1051
   41MOL    C9122571   7.555   3.027   5.145 -0.5300 -0.2392 -0.0936
   41MOL    C9222572   7.495   3.156   5.201 -0.0608 -0.7247  0.4470
   41MOL    O9322573   7.368   3.126   5.251  0.2062 -0.1247  0.2868
   41MOL    C9422574   7.482   3.260   5.084 -1.0043  0.8337  0.4038
   41MOL    C9522575   7.418   3.400   5.121 -0.4686  0.2274 -0.7436
   41MOL    C9622576   7.617   3.288   5.009 -0.3066  0.1347 -0.4184
   41MOL    C9722577   0.049   3.159   4.962 -0.9312  0.1229  0.1030
   41MOL    H9822578   0.255   2.999   4.876 -2.3633 -0.2667  0.0920
   41MOL    H9922579   0.331   3.017   5.041  1.7874 -0.6412 -1.2378
   41MOL   H10022580   0.075   2.864   4.959  1.3706 -1.4969  0.3821
   41MOL   H10122581   0.233   2.797   5.134  0.2480  0.5711 -1.6500
   41MOL   H10222582   0.129   3.083   5.161 -0.3021 -0.0394  0.0134
   41MOL   H10322583   7.492   2.984   5.067 -0.1915  0.1601 -0.5986
   41MOL   H10422584   7.563   2.960   5.230  0.9279 -0.7707 -0.6422
   41MOL   H10522585   7.562   3.201   5.273  1.3007 -2.2846  0.1695
   41MOL   H10622586   7.326   3.209   5.271  0.1152  0.0072 -0.4488
   41MOL   H10722587   7.404   3.217   5.022 -1.6750  2.4961  0.0797
   41MOL   H10822588   7.321   3.373   5.163 -0.5718  2.0802  0.3059
   41MOL   H10922589   7.468   3.445   5.207 -0.5819  0.7119 -0.9302
   41MOL   H11022590   0.057   3.340   5.075  0.5871  1.3718 -2.2819
   41MOL   H11122591   7.608   3.351   4.921  0.5311  0.9264  0.0552
   41MOL   H11222592   0.139   3.185   4.906 -1.5193 -0.9104 -1.3685
   41MOL   H11322593   7.617   3.106   4.889 -0.4784 -0.0209 -0.1770
   41MOL   O11422594   7.408   3.488   5.011  0.2852 -0.6381 -0.6396
   41MOL   C11522595   7.340   3.604   5.038 -0.1248  0.4531 -0.2814
   41MOL   C11622596   7.341   3.675   4.906  0.2626 -0.2448 -0.4796
   41MOL   O11722597   7.477   3.691   4.852 -0.0131 -0.1083 -0.3552
   41MOL   C11822598   7.258   3.616   4.785  0.3678 -0.3459  0.5429
   41MOL   C11922599   7.310   3.485   4.715 -0.5490 -0.1395 -0.2310
   41MOL   C12022600   7.223   3.448   4.590 -0.9154 -0.2193  0.2210
   41MOL   O12122601   7.287   3.336   4.526  0.0436  0.5902 -0.4114
   41MOL   C12222602   7.197   3.566   4.489  0.2910  0.9413  0.0503
   41MOL   C12322603   7.102   3.525   4.367 -0.5311 -0.4904  0.1016
   41MOL   C12422604   7.138   3.682   4.568 -0.7079  0.0314 -0.0991
   41MOL   C12522605   7.232   3.728   4.677  0.5553 -0.1347 -0.1140
   41MOL   H12622606   7.391   3.663   5.113  2.1776 -1.7249 -0.0783
   41MOL   H12722607   7.245   3.573   5.082 -1.5578  2.2233 -1.9777
   41MOL   H12822608   7.312   3.777   4.929  0.3954 -0.1522 -0.7173
   41MOL   H12922609   7.499   3.604   4.824 -0.9874  0.2815 -2.4446
   41MOL   H13022610   7.162   3.598   4.835 -0.0100 -0.5041 -0.2336
   41MOL   H13122611   7.416   3.485   4.689 -0.1033  0.9505  1.4404
   41MOL   H13222612   7.291   3.409   4.791  1.1074  1.3602  1.7684
   41MOL   H13322613   7.130   3.413   4.636 -0.6175 -0.9226  0.2993
   41MOL   H13422614   7.243   3.260   4.560  1.5199 -0.5084 -0.9528
   41MOL   H13522615   7.298   3.596   4.461 -0.4818  2.4515 -1.2003
   41MOL   H13622616   7.141   3.443   4.306  1.5824  1.4911 -1.3108
   41MOL   H13722617   7.008   3.485   4.406 -0.1958 -1.4064 -0.0161
   41MOL   H13822618   7.048   3.648   4.620 -1.7026  0.7458 -1.3243
   41MOL   H13922619   7.107   3.758   4.496 -0.8217 -1.7151 -1.9571
   41MOL   H14022620   7.194   3.817   4.727 -2.4118 -0.6208 -1.3428
   41MOL   H14122621   7.324   3.764   4.631  0.5596 -0.0488 -0.0372
   41MOL   O14222622   7.082   3.638   4.286 -0.5165  0.0882 -0.0019
   41MOL   C14322623   7.198   3.668   4.202 -1.0235  0.7110 -0.2563
   41MOL   C14422624   7.215   3.816   4.142 -0.0988 -0.0343 -0.5109
   41MOL   O14522625   7.278   3.899   4.237 -0.6658 -0.2149 -0.2380
   41MOL   C14622626   7.308   3.817   4.020  0.1229  0.2694 -0.1249
   41MOL   C14722627   7.451   3.773   4.035 -0.0920 -0.0778  0.4786
   41MOL   C14822628   7.518   3.740   3.899 -0.4005 -0.1308  0.3502
   41MOL   O14922629   0.022   3.698   3.928 -0.1540  0.1325  0.3350
   41MOL   C15022630   7.515   3.858   3.807 -1.0150  0.0833  0.2139
   41MOL   C15122631   7.574   3.827   3.667  0.0462  0.1047  0.3413
   41MOL   C15222632   7.376   3.929   3.805 -0.5511  0.0913  0.2079
   41MOL   C15322633   7.304   3.952   3.932  0.3132 -1.1553  0.1604
   41MOL   H15422634   7.197   3.598   4.119 -2.0055  1.2608 -0.7196
   41MOL   H15522635   7.290   3.637   4.250 -1.7164 -1.0659 -0.0226
   41MOL   H15622636   7.120   3.866   4.127  0.6725  1.5467 -0.2364
   41MOL   H15722637   7.212   3.921   4.301  2.3907 -0.2963  3.1272
   41MOL   H15822638   7.268   3.744   3.949 -0.8510 -0.4099  1.0993
   41MOL   H15922639   7.507   3.840   4.100 -0.4843  0.7108  0.0197
   41MOL   H16022640   7.448   3.678   4.087  1.8810 -0.1940  0.4221
   41MOL   H16122641   7.475   3.653   3.849 -1.7938  1.2414 -0.9165
   41MOL   H16222642   0.049   3.764   3.989  0.4303 -0.4657  0.7245
   41MOL   H16322643   7.586   3.934   3.839  0.3993 -1.2617  0.3530
   41MOL   H16422644   7.524   3.740   3.625  0.8506 -0.2927  0.1880
   41MOL   H16522645   7.553   3.905   3.594 -0.2062 -0.9844 -0.7544
   41MOL   H16622646   7.308   3.864   3.749 -0.5682  0.5500 -0.3057
   41MOL   H16722647   7.388   4.021   3.747 -0.5109 -1.5956 -2.5477
   41MOL   H16822648   7.201   3.977   3.906 -0.5384 -4.8343 -0.2360
   41MOL   H16922649   7.357   4.034   3.981  0.8974 -1.6283  0.3183
   41MOL   O17022650   0.086   3.810   3.676  0.4028 -0.1063  0.0678
   41MOL   C17122651   0.128   3.707   3.593  0.6612 -0.1904  0.0195
   41MOL   C17222652   0.263   3.661   3.646  0.0340 -0.5207  0.2728
   41MOL   O17322653   0.245   3.589   3.769  0.5558  0.3171  0.2999
   41MOL   C17422654   0.343   3.567   3.548  0.1788  0.0559  0.2368
   41MOL   C17522655   0.485   3.533   3.604  0.1675  0.0283  0.0301
   41MOL   C17622656   0.565   3.442   3.518  0.2594 -0.3050  0.0433
   41MOL   O17722657   0.704   3.427   3.576  0.4925  0.4052 -0.3743
   41MOL   C17822658   0.573   3.495   3.366  0.7598 -0.7097 -0.2415
   41MOL   C17922659   0.643   3.397   3.270 -0.2482 -0.3667  0.1955
   41MOL   C18022660   0.434   3.521   3.311 -0.8074  0.1481 -0.1466
   41MOL   C18122661   0.345   3.609   3.395 -0.2146  0.3733 -0.6482
   41MOL   H18222662   0.137   3.757   3.497 -0.4484 -2.3735 -1.2561
   41MOL   H18322663   0.065   3.618   3.588  1.4953 -0.7620 -0.4027
   41MOL   H18422664   0.310   3.754   3.678 -2.3144  0.3704  1.2569
   41MOL   H18522665   0.165   3.622   3.808 -0.0003  0.4916 -0.9740
   41MOL   H18622666   0.289   3.473   3.536  2.0786 -1.1507  0.8814
   41MOL   H18722667   0.531   3.617   3.657  1.8483  0.9091 -2.7284
   41MOL   H18822668   0.464   3.467   3.688 -0.9582 -0.0011 -0.2708
   41MOL   H18922669   0.521   3.342   3.515  0.8750 -0.5428 -3.1538
   41MOL   H19022670   0.755   3.369   3.521  1.7164 -0.3013  1.4702
   41MOL   H19122671   0.616   3.595   3.364  0.6043 -0.6302  0.2538
   41MOL   H19222672   0.579   3.309   3.258  1.1972 -1.4647  0.3782
   41MOL   H19322673   0.655   3.443   3.172  1.3009 -3.9411 -1.3955
   41MOL   H19422674   0.387   3.423   3.298  0.2686 -0.4042  0.0771
   41MOL   H19522675   0.435   3.564   3.211 -1.6707  1.6297  0.4701
   41MOL   H19622676   0.250   3.589   3.344 -1.5868 -1.6792  2.5309
   41MOL   H19722677   0.370   3.714   3.379  0.9444  0.1757 -0.1603
   41MOL   O19822678   0.762   3.347   3.325 -0.3917  0.0653 -0.0915
   41MOL   C19922679   0.872   3.303   3.229  0.1993 -0.2552 -0.2471
   41MOL   C20022680   0.824   3.188   3.141 -0.6647  0.7603  0.1209
   41MOL   O20122681   0.763   3.240   3.025 -0.1962  0.4415 -0.3342
   41MOL   C20222682   0.946   3.110   3.099 -0.5187  0.1134  0.3256
   41MOL   C20322683   1.054   3.174   3.014  0.0741  0.0503 -0.4847
   41MOL   C20422684   1.182   3.090   2.992  0.5651 -0.2406  0.9347
   41MOL   O20522685   1.265   3.162   2.903  0.5684 -0.2482  0.1164
   41MOL   C20622686   1.148   2.950   2.949 -0.9977 -0.8214 -0.2254
   41MOL   C20722687   1.271   2.849   2.949  0.4561 -1.3503 -0.6739
   41MOL   C20822688   1.025   2.885   3.014  0.1571  0.7510 -0.0661
   41MOL   C20922689   0.906   2.979   3.026  0.7535  0.6966 -1.2082
   41MOL   H21022690   0.938   3.256   3.301  0.1075 -1.4568 -0.9371
   41MOL   H21122691   0.923   3.381   3.173  1.3140  0.4526  1.7358
   41MOL   H21222692   0.755   3.128   3.200 -3.3511  2.8414 -0.7911
   41MOL   H21322693   0.797   3.326   3.008 -0.5684  0.7810  0.5993
   41MOL   H21422694   0.991   3.080   3.194  1.7437 -0.1285 -0.8002
   41MOL   H21522695   1.005   3.201   2.920  1.7566 -0.8235 -1.6331
   41MOL   H21622696   1.086   3.272   3.049 -0.0894 -0.3402  0.7978
   41MOL   H21722697   1.238   3.077   3.084 -0.3151 -2.9868  1.1354
   41MOL   H21822698   1.353   3.159   2.937  0.4830  3.7069  0.8446
   41MOL   H21922699   1.113   2.947   2.845 -0.1157  0.1581 -0.5532
   41MOL   H22022700   1.226   2.782   2.875 -0.2110 -0.0397 -1.4640
   41MOL   H22122701   1.363   2.881   2.900 -0.0250  1.3918  0.1335
   41MOL   H22222702   1.055   2.839   3.108  0.3081  1.1663  0.0886
   41MOL   H22322703   0.992   2.803   2.950 -1.9624  2.3819 -1.1473
   41MOL   H22422704   0.839   2.922   3.090 -0.3241  0.4839 -2.4996
   41MOL   H22522705   0.863   2.998   2.927  0.5388 -0.2488 -1.2981
   41MOL   O22622706   1.302   2.794   3.081 -0.3867  1.0144 -0.2498
   41MOL   C22722707   1.401   2.686   3.078  0.6987  0.1047 -0.1012
   41MOL   C22822708   1.545   2.746   3.054 -0.4742 -0.7278  0.5840
   41MOL   O22922709   1.572   2.850   3.153  0.2292 -0.1803  0.2315
   41MOL   C23022710   1.663   2.655   3.059  0.1709 -0.7158  0.9527
   41MOL   C23122711   1.792   2.718   3.001  0.1418  0.1390 -0.8588
   41MOL   C23222712   1.907   2.621   2.998 -0.4556 -0.1206  0.0129
   41MOL   O23322713   2.011   2.697   2.941 -0.1211  0.1480 -0.8060
   41MOL   C23422714   1.876   2.490   2.919  0.5030  0.0446 -0.1916
   41MOL   C23522715   1.999   2.400   2.908 -0.0120  0.0031  0.2791
   41MOL   C23622716   1.751   2.427   2.990  0.1327  0.2097  0.5384
   41MOL   C23722717   1.634   2.525   2.993  0.3398  0.9763  0.1942
   41MOL   H23822718   1.362   2.604   3.019  0.2234 -0.3788  0.8807
   41MOL   H23922719   1.395   2.636   3.174 -1.0466 -0.4615 -0.4941
   41MOL   H24022720   1.535   2.781   2.951  1.5369 -2.1955 -0.1532
   41MOL   H24122721   1.523   2.820   3.228  1.4424 -2.3647  0.1877
   41MOL   H24222722   1.677   2.630   3.164  1.1242  0.6055  1.1444
   41MOL   H24322723   1.773   2.750   2.899 -0.9772  0.4942 -0.5549
   41MOL   H24422724   1.817   2.807   3.060  3.8528 -1.4673  0.1250
   41MOL   H24522725   1.933   2.593   3.101 -1.1780  0.7118  0.4214
   41MOL   H24622726   1.999   2.708   2.848  1.3722  1.2206 -0.8850
   41MOL   H24722727   1.831   2.513   2.822  2.6831  1.0310 -1.0005
   41MOL   H24822728   2.074   2.436   2.838 -1.1944  0.6601 -0.6626
   41MOL   H24922729   2.056   2.398   3.001  1.2372 -0.6275 -0.4840
   41MOL   H25022730   1.769   2.383   3.088  0.5529 -0.2206  0.2747
   41MOL   H25122731   1.718   2.342   2.930 -1.0469 -0.0445  1.5307
   41MOL   H25222732   1.542   2.478   3.027 -0.6910  0.5444 -2.9668
   41MOL   H25322733   1.606   2.544   2.889 -0.3543 -0.2095  0.1546
   41MOL   O25422734   1.965   2.274   2.866  0.6738 -0.0403  0.1226
   41MOL   C25522735   2.068   2.179   2.854 -0.3403 -0.2958 -0.7385
   41MOL   C25622736   1.997   2.051   2.795 -0.0351 -0.1534 -0.0066
   41MOL   O25722737   1.969   2.070   2.662  0.3415 -0.1636  0.5644
   41MOL   C25822738   2.082   1.920   2.806  0.0592  0.1671  0.5793
   41MOL   C25922739   2.000   1.788   2.781  0.3950 -0.7203 -0.0237
   41MOL   C26022740   2.099   1.671   2.761  0.3579 -0.0769 -0.5876
   41MOL   O26122741   2.036   1.544   2.733 -0.1162  0.4325 -0.3949
   41MOL   C26222742   2.196   1.649   2.879  0.1890  0.1639  0.7008
   41MOL   C26322743   2.309   1.550   2.841 -0.6083 -0.3324 -0.5114
   41MOL   C26422744   2.266   1.784   2.916 -0.4816 -0.1514 -0.1441
   41MOL   C26522745   2.161   1.898   2.935 -0.3370 -0.2935 -0.1206
   41MOL   H26622746   2.109   2.160   2.953 -0.7618  0.7766 -0.3545
   41MOL   H26722747   2.156   2.215   2.799 -0.3770  0.8636 -0.0448
   41MOL   H26822748   1.903   2.029   2.846  1.5374 -0.5410  2.8136
   41MOL   H26922749   1.904   2.139   2.662 -0.2762 -0.7393  0.1380
   41MOL   H27022750   2.155   1.934   2.727 -1.1108 -0.9082 -0.7334
   41MOL   H27122751   1.938   1.783   2.871  1.3607 -1.3396  0.6192
   41MOL   H27222752   1.938   1.798   2.692  0.5199 -1.9663 -0.2478
   41MOL   H27322753   2.158   1.692   2.671 -1.7879  1.6906 -1.6151
   41MOL   H27422754   2.025   1.493   2.811  3.2373  3.6243  2.2928
   41MOL   H27522755   2.144   1.603   2.964  0.4436 -0.2927  0.6129
   41MOL   H27622756   2.266   1.452   2.819 -0.6985 -0.1604 -1.1131
   41MOL   H27722757   2.362   1.592   2.755 -0.8886 -0.9990 -1.0157
   41MOL   H27822758   2.327   1.809   2.829 -0.7596 -0.0839 -0.3206
   41MOL   H27922759   2.336   1.769   2.998  3.1568  1.9336 -2.7664
   41MOL   H28022760   2.216   1.990   2.952 -0.9242  0.2893 -1.3098
   41MOL   H28122761   2.103   1.892   3.027 -1.3729  0.0953 -0.7308
   41MOL   O28222762   2.402   1.530   2.951 -0.6552 -0.1733 -0.1058
   41MOL   C28322763   2.531   1.491   2.916 -0.8233  0.9591 -0.2144
   41MOL   C28422764   2.621   1.466   3.031 -0.4884  0.8271 -0.0136
   41MOL   O28522765   2.757   1.460   2.988  0.3649  0.4238  0.2952
   41MOL   C28622766   2.607   1.561   3.149  0.4660 -0.0948 -0.5209
   41MOL   C28722767   2.651   1.703   3.117 -0.2205  0.2878 -0.5276
   41MOL   C28822768   2.632   1.796   3.238  0.5071  0.3477  0.4121
   41MOL   O28922769   2.670   1.919   3.189 -0.1462 -0.2483  0.6412
   41MOL   C29022770   2.723   1.739   3.347  0.6712 -0.0764 -0.0831
   41MOL   C29122771   2.695   1.831   3.474 -0.6322  0.1117 -0.2922
   41MOL   C29222772   2.675   1.597   3.388 -0.6240 -0.6317 -0.2600
   41MOL   C29322773   2.691   1.506   3.268 -0.4844  0.0260  0.0112
   41MOL   H29422774   2.579   1.569   2.856  0.3395  0.3506 -0.0911
   41MOL   H29522775   2.518   1.394   2.869 -2.1110  0.0043  2.0394
   41MOL   H29622776   2.594   1.365   3.064  2.3259 -0.1263 -0.4951
   41MOL   H29722777   2.785   1.550   2.983 -0.2044  0.6388  1.0279
   41MOL   H29822778   2.501   1.551   3.169  1.1113 -1.4960  2.4093
   41MOL   H29922779   2.753   1.711   3.079  0.3541  3.7133  1.5151
   41MOL   H30022780   2.580   1.744   3.045  1.7977  1.7877 -1.6944
   41MOL   H30122781   2.526   1.805   3.260  0.9226  1.3353  2.0524
   41MOL   H30222782   2.762   1.916   3.169 -0.0818  0.3436  0.8423
   41MOL   H30322783   2.823   1.731   3.305  0.5956 -1.3844 -0.0265
   41MOL   H30422784   2.718   1.935   3.455 -1.5356  0.0353 -1.8809
   41MOL   H30522785   2.590   1.826   3.502 -0.4742  1.5348  0.5693
   41MOL   H30622786   2.575   1.606   3.431 -0.2051  1.2908  0.3647
   41MOL   H30722787   2.729   1.556   3.473  1.5564  0.3754 -1.1369
   41MOL   H30822788   2.649   1.407   3.283 -0.6081  0.0943  0.1242
   41MOL   H30922789   2.797   1.505   3.242 -0.9056 -0.9466 -1.7450
   41MOL   O31022790   2.783   1.815   3.586 -0.2103  0.4612  0.5190
   41MOL   C31122791   2.750   1.717   3.689 -0.0919  0.3951  0.0674
   41MOL   C31222792   2.815   1.777   3.816  0.1886 -0.5428  0.0583
   41MOL   O31322793   2.792   1.920   3.800  0.3551  0.6459 -0.1548
   41MOL   C31422794   2.760   1.734   3.949  0.4702 -0.2428  0.0029
   41MOL   C31522795   2.842   1.792   4.071  0.0918 -1.3761  0.6667
   41MOL   C31622796   2.774   1.758   4.201  0.2522  0.0763 -0.6188
   41MOL   O31722797   2.848   1.809   4.308  0.7731  0.1962 -0.0491
   41MOL   C31822798   2.750   1.610   4.222  0.7629 -0.1183  0.6170
   41MOL   C31922799   2.674   1.586   4.352 -0.0434 -0.2679  0.2928
   41MOL   C32022800   2.685   1.543   4.099  0.2472 -0.3242 -0.0546
   41MOL   C32122801   2.758   1.582   3.972 -0.6258 -0.2431  0.2445
   41MOL   H32222802   2.794   1.620   3.669 -0.9701 -0.0724  0.3538
   41MOL   H32322803   2.641   1.711   3.691 -0.1906  0.8120 -2.3403
   41MOL   H32422804   2.923   1.770   3.814  0.0446 -2.7543 -1.2054
   41MOL   H32522805   2.796   1.932   3.706 -1.5531 -1.9160 -0.6253
   41MOL   H32622806   2.655   1.765   3.948  0.6363  0.3540  0.3906
   41MOL   H32722807   2.945   1.758   4.068  0.3782 -0.5233  0.6713
   41MOL   H32822808   2.862   1.899   4.072  0.0910 -1.3645 -0.1271
   41MOL   H32922809   2.674   1.799   4.213 -0.2509 -1.3801  0.2373
   41MOL   H33022810   2.799   1.884   4.336  0.8684  0.7979 -1.4206
   41MOL   H33122811   2.847   1.562   4.236  1.0680  0.6392  1.1206
   41MOL   H33222812   2.674   1.479   4.371 -3.1480 -0.9815 -3.2567
   41MOL   H33322813   2.717   1.633   4.441 -1.2863  0.2670  0.6252
   41MOL   H33422814   2.579   1.565   4.098 -0.0180 -1.4489  0.8574
   41MOL   H33522815   2.683   1.436   4.124 -1.3506 -0.1156  0.7379
   41MOL   H33622816   2.708   1.536   3.886  0.4474  1.8046 -1.5218
   41MOL   H33722817   2.858   1.540   3.974 -0.8167 -0.6759  0.7623
   41MOL   O33822818   2.541   1.624   4.332 -0.0022 -0.1077 -0.5979
   41MOL   C33922819   2.466   1.612   4.452  0.2150 -0.0012 -0.1152
   41MOL   C34022820   2.344   1.707   4.420 -0.5202 -0.5572  0.8426
   41MOL   O34122821   2.293   1.647   4.304  0.2021 -0.3087  0.4677
   41MOL   C34222822   2.241   1.708   4.530  0.1007  0.2228 -0.1920
   41MOL   C34322823   2.146   1.816   4.500 -0.4026 -0.1300 -0.7550
   41MOL   C34422824   2.041   1.831   4.617  0.4966 -0.7456 -0.7310
   41MOL   O34522825   1.943   1.930   4.574 -0.5099  0.4835  0.3326
   41MOL   C34622826   2.114   1.873   4.745 -0.1975  0.0452  0.9741
   41MOL   C34722827   2.011   1.894   4.858  0.0692 -0.4418 -0.1743
   41MOL   C34822828   2.213   1.761   4.774 -0.3016  0.2334  0.3996
   41MOL   C34922829   2.318   1.740   4.664 -0.2529 -0.2483  0.3495
   41MOL   H35022830   2.523   1.660   4.531  0.3079  1.5941 -1.1230
   41MOL   H35122831   2.454   1.507   4.481  1.9048 -0.5913 -1.4924
   41MOL   H35222832   2.378   1.809   4.404 -0.2688 -1.1939 -3.2852
   41MOL   H35322833   2.369   1.609   4.261  0.7757  3.2557 -1.8903
   41MOL   H35422834   2.192   1.611   4.540  0.5772  0.0070  0.0437
   41MOL   H35522835   2.197   1.910   4.480 -2.2357  1.2838  1.0939
   41MOL   H35622836   2.100   1.795   4.403 -0.3517  1.4539 -1.1312
   41MOL   H35722837   1.994   1.735   4.639 -2.0771  0.5635 -0.2913
   41MOL   H35822838   1.897   1.895   4.499  2.4552 -2.0710 -0.3628
   41MOL   H35922839   2.169   1.965   4.726 -1.0640  0.2217 -0.7059
   41MOL   H36022840   1.956   1.988   4.850 -0.4930 -0.9153 -2.0540
   41MOL   H36122841   1.942   1.810   4.859 -1.1404  0.5414 -0.1738
   41MOL   H36222842   2.156   1.668   4.773  0.2401 -0.0969  0.2089
   41MOL   H36322843   2.258   1.764   4.874 -2.4620 -0.5343  1.4278
   41MOL   H36422844   2.378   1.656   4.699 -0.0777  0.3875  1.6391
   41MOL   H36522845   2.383   1.827   4.654  1.0429 -1.1728  0.5053
   41MOL   O36622846   2.072   1.900   4.986  0.0879  0.4455  0.0365
   41MOL   C36722847   1.979   1.928   5.085  0.1130  0.3449 -0.7992
   41MOL   C36822848   2.058   1.893   5.211  0.1050 -0.5450  0.2166
   41MOL   O36922849   2.152   1.994   5.238  0.5747  0.0175  0.5572
   41MOL   C37022850   1.954   1.887   5.333 -0.1004 -0.2829  0.8866
   41MOL   C37122851   1.863   1.761   5.336  0.1605 -0.1207  0.1272
   41MOL   C37222852   1.774   1.764   5.462 -0.7746  0.4085  0.4924
   41MOL   O37322853   1.698   1.645   5.448 -0.2734  0.3340 -0.2393
   41MOL   C37422854   1.683   1.889   5.452  0.4400  0.6310 -0.4989
   41MOL   C37522855   1.576   1.894   5.560  0.6470  0.3078 -0.6322
   41MOL   C37622856   1.764   2.018   5.451 -0.5078  0.1661  0.0558
   41MOL   C37722857   1.869   2.019   5.342 -0.5740 -0.2917  0.4832
   41MOL   H37822858   1.891   1.866   5.072  0.6853 -0.0871 -2.7221
   41MOL   H37922859   1.951   2.033   5.077  0.8459  0.4599 -1.9630
   41MOL   H38022860   2.097   1.791   5.212 -0.1561 -0.6717 -1.7933
   41MOL   H38122861   2.177   2.012   5.149 -1.0039  0.0906  0.1272
   41MOL   H38222862   2.020   1.876   5.419 -1.4243 -4.7650  1.4662
   41MOL   H38322863   1.796   1.753   5.251 -0.1213  1.6897  0.1687
   41MOL   H38422864   1.927   1.672   5.338  0.9618  0.4047 -1.1908
   41MOL   H38522865   1.845   1.762   5.545 -1.6921 -0.8826  1.2694
   41MOL   H38622866   1.675   1.614   5.534 -0.1342  0.0747 -0.2926
   41MOL   H38722867   1.635   1.884   5.355 -2.0854  0.9520  0.6746
   41MOL   H38822868   1.521   1.800   5.564  1.2581 -0.1289 -1.9185
   41MOL   H38922869   1.617   1.920   5.657 -1.2246  0.1252  0.2185
   41MOL   H39022870   1.806   2.030   5.551 -1.8317 -0.3239  0.6853
   41MOL   H39122871   1.701   2.104   5.428  0.5701  0.6678 -1.1039
   41MOL   H39222872   1.947   2.089   5.372 -1.0680 -0.4104  2.1198
   41MOL   H39322873   1.826   2.051   5.248 -1.5711 -0.7238  0.7855
   41MOL   O39422874   1.484   1.998   5.526 -0.0496  0.4153 -0.1654
   41MOL   C39522875   1.400   2.038   5.638  0.9052 -0.7770  0.1827
   41MOL   C39622876   1.302   2.151   5.603 -0.6144  0.2294 -0.0605
   41MOL   O39722877   1.193   2.142   5.697  0.1471  0.2354  0.4483
   41MOL   C39822878   1.355   2.297   5.605  0.5091  0.0276 -0.4574
   41MOL   C39922879   1.248   2.408   5.583 -0.1374 -0.6053 -0.1288
   41MOL   C40022880   1.307   2.551   5.580  0.3172  0.0590  0.3816
   41MOL   O40122881   1.201   2.646   5.581 -0.2286  0.5627 -0.2363
   41MOL   C40222882   1.418   2.566   5.474  0.0247  0.2034 -0.1429
   41MOL   C40322883   1.474   2.708   5.457  0.1617 -0.7189  0.2110
   41MOL   C40422884   1.528   2.462   5.495  0.2010 -0.2791 -0.5129
   41MOL   C40522885   1.468   2.323   5.502  0.0046  0.1068 -0.1172
   41MOL   H40622886   1.452   2.073   5.727 -0.5299 -2.5610  1.7712
   41MOL   H40722887   1.335   1.954   5.664 -0.3175 -0.0108 -0.3246
   41MOL   H40822888   1.259   2.124   5.507  0.9139 -0.7195 -0.4971
   41MOL   H40922889   1.155   2.056   5.691  2.5298 -1.0345  2.5794
   41MOL   H41022890   1.396   2.304   5.706 -1.7596  0.2057  0.4756
   41MOL   H41122891   1.213   2.395   5.481 -0.2328  1.8624 -0.4460
   41MOL   H41222892   1.164   2.407   5.652 -2.2097 -1.3435 -2.5899
   41MOL   H41322893   1.354   2.553   5.678  0.7112  1.2624  0.1663
   41MOL   H41422894   1.167   2.649   5.493 -0.6353  1.8306 -0.0544
   41MOL   H41522895   1.374   2.534   5.380  1.8947 -2.8835 -0.0332
   41MOL   H41622896   1.521   2.709   5.359  0.5201 -1.7206  0.3680
   41MOL   H41722897   1.397   2.784   5.445 -0.9895 -1.8031  0.6404
   41MOL   H41822898   1.588   2.478   5.584  0.6564  1.7062 -1.1478
   41MOL   H41922899   1.607   2.463   5.419  1.0416  0.6965  0.3674
   41MOL   H42022900   1.553   2.260   5.532 -1.7320 -3.1354 -1.7566
   41MOL   H42122901   1.434   2.301   5.401 -1.8882  0.7266  0.3632
   41MOL   O42222902   1.585   2.734   5.540  0.0998 -0.2627  0.6223
   41MOL   C42322903   1.551   2.775   5.677  0.2345 -0.4118 -0.0546
   41MOL   C42422904   1.679   2.846   5.730  1.2345  0.2356  0.0912
   41MOL   O42522905   1.767   2.734   5.728 -0.4709  0.2791  0.6774
   41MOL   C42622906   1.740   2.961   5.648 -0.4182  0.3041 -0.2141
   41MOL   C42722907   1.873   3.014   5.710  0.6332  0.4308 -0.3808
   41MOL   C42822908   1.939   3.140   5.656  0.4466  0.5912 -0.0432
   41MOL   O42922909   2.042   3.184   5.747 -0.1909 -0.1508  0.2127
   41MOL   C43022910   1.835   3.246   5.625  0.1359 -1.0190  0.0376
   41MOL   C43122911   1.899   3.359   5.545  0.9965  0.1741  0.3602
   41MOL   C43222912   1.724   3.186   5.544 -1.3106 -0.8357  0.0040
   41MOL   C43322913   1.649   3.092   5.641  0.3850  0.9168  1.1508
   41MOL   H43422914   1.526   2.684   5.730  0.0471  1.2646  2.8073
   41MOL   H43522915   1.464   2.838   5.691 -0.0841 -0.8328 -0.1276
   41MOL   H43622916   1.673   2.877   5.834  0.1820  1.0014 -0.1754
   41MOL   H43722917   1.751   2.705   5.639  2.4533  0.4294  0.0521
   41MOL   H43822918   1.750   2.927   5.545 -0.0896  1.1218 -0.4568
   41MOL   H43922919   1.849   3.041   5.813  1.1890  1.7901 -0.5996
   41MOL   H44022920   1.948   2.935   5.715  0.6232  0.4892  1.1141
   41MOL   H44122921   1.979   3.111   5.559  0.6730  0.8743 -0.0344
   41MOL   H44222922   2.076   3.112   5.798  1.2728  1.4273  1.5283
   41MOL   H44322923   1.793   3.280   5.719  0.6979  2.6213 -0.9403
   41MOL   H44422924   1.988   3.402   5.592  0.4487  1.0817  0.5888
   41MOL   H44522925   1.938   3.325   5.449 -1.0476 -0.1897 -0.3642
   41MOL   H44622926   1.757   3.138   5.452 -1.1697  0.3012 -0.5508
   41MOL   H44722927   1.656   3.266   5.514 -1.6637 -1.2935 -0.4141
   41MOL   H44822928   1.558   3.054   5.594  1.8401  0.3574 -1.3716
   41MOL   H44922929   1.618   3.133   5.736 -1.9015  0.9613  0.4064
   41MOL   O45022930   1.801   3.463   5.529  0.1072  0.2126  0.7006
   41MOL   C45122931   1.839   3.551   5.427  0.0801  0.6494  0.8511
   41MOL   C45222932   1.731   3.664   5.412 -0.0961  0.4135 -0.5586
   41MOL   O45322933   1.749   3.741   5.530 -0.4146 -0.2576  0.3068
   41MOL   C45422934   1.738   3.753   5.291 -0.1164 -0.1717 -1.0271
   41MOL   C45522935   1.703   3.680   5.164  0.4599  0.6459  0.1851
   41MOL   C45622936   1.726   3.757   5.036 -0.0603 -0.3094 -0.0609
   41MOL   O45722937   1.703   3.663   4.929 -0.2935  0.0251  0.5658
   41MOL   C45822938   1.858   3.836   5.023 -0.2668 -0.2162  0.5309
   41MOL   C45922939   1.869   3.927   4.900  0.1915 -0.9705 -0.8133
   41MOL   C46022940   1.885   3.910   5.158  0.0277  0.3484 -0.0089
   41MOL   C46122941   1.873   3.819   5.280  0.1387  0.6310 -0.2477
   41MOL   H46222942   1.829   3.498   5.332 -0.8334  0.5794  0.9871
   41MOL   H46322943   1.939   3.594   5.440  1.9017 -2.6201 -1.5982
   41MOL   H46422944   1.632   3.618   5.416  0.6034 -1.0021  2.2893
   41MOL   H46522945   1.744   3.679   5.601 -1.4691 -1.5745 -0.8930
   41MOL   H46622946   1.657   3.825   5.309  0.5945  0.3243  0.2432
   41MOL   H46722947   1.759   3.588   5.148 -0.1201  0.4312 -0.6564
   41MOL   H46822948   1.602   3.641   5.181  1.6639 -2.2557  0.8532
   41MOL   H46922949   1.643   3.828   5.023 -0.6480 -0.9091  0.3906
   41MOL   H47022950   1.769   3.596   4.938 -0.6815 -0.5911 -0.9962
   41MOL   H47122951   1.934   3.759   5.012 -0.5959 -0.6623  1.3058
   41MOL   H47222952   1.857   3.868   4.809  1.0620  1.3232 -2.4582
   41MOL   H47322953   1.788   3.999   4.888 -0.7855 -2.0064 -0.5550
   41MOL   H47422954   1.814   3.991   5.177 -0.7940  0.1971 -2.3491
   41MOL   H47522955   1.983   3.959   5.162  0.9909 -1.5031 -0.1474
   41MOL   H47622956   1.896   3.876   5.370 -1.7876  1.1603 -0.0770
   41MOL   H47722957   1.951   3.747   5.253 -0.0289  1.1158 -2.0553
   41MOL   O47822958   1.994   3.990   4.910  0.7876 -0.1805 -0.0602
   41MOL   C47922959   2.002   4.111   4.833 -0.0390  0.1566  0.5118
   41MOL   C48022960   2.152   4.137   4.824  0.1848 -0.6552 -0.0094
   41MOL   O48122961   2.163   4.235   4.727  0.3765 -0.0441  0.7849
   41MOL   C48222962   2.218   4.187   4.954  0.2127  0.9056 -0.0997
   41MOL   C48322963   2.158   4.321   4.997  0.2960 -0.4893  0.4044
   41MOL   C48422964   2.211   4.366   5.136  0.3943  0.3683  0.1689
   41MOL   O48522965   2.149   4.487   5.183 -0.7581 -0.0511 -0.5096
   41MOL   C48622966   2.363   4.374   5.136 -0.1081  0.1203 -0.0905
   41MOL   C48722967   2.420   4.431   5.263 -0.0984 -0.2312 -0.5948
   41MOL   C48822968   2.422   4.234   5.099 -0.2995  0.2436 -0.3931
   41MOL   C48922969   2.370   4.195   4.955  0.1455 -0.1788 -0.3605
   41MOL   H49022970   1.941   4.184   4.886  1.1485  0.1100  1.9749
   41MOL   H49122971   1.961   4.103   4.732 -0.4764  2.0923  0.5162
   41MOL   H49222972   2.209   4.051   4.789  0.9948 -0.0040 -0.3213
   41MOL   H49322973   2.250   4.271   4.735  0.2215  0.0128  2.4241
   41MOL   H49422974   2.186   4.113   5.027  2.2417 -1.0769 -1.1621
   41MOL   H49522975   2.167   4.407   4.931 -0.9429 -1.2829 -0.8178
   41MOL   H49622976   2.050   4.311   5.010 -0.0561  0.7218 -1.4665
   41MOL   H49722977   2.183   4.279   5.197  1.3790 -0.8411 -1.0587
   41MOL   H49822978   2.085   4.453   5.244  2.6995 -1.1429  2.6581
   41MOL   H49922979   2.384   4.441   5.052 -0.8156 -1.8335 -1.8890
   41MOL   H50022980   2.386   4.535   5.264  0.6482  0.0358 -1.9788
   41MOL   H50122981   2.380   4.384   5.352 -0.9258  1.9806  0.2403
   41MOL   H50222982   2.402   4.153   5.170 -1.4609 -0.4674 -1.5157
   41MOL   H50322983   2.530   4.241   5.089 -0.2107 -3.1410 -2.9292
   41MOL   H50422984   2.415   4.098   4.938  0.1628 -0.2945  0.3447
   41MOL   H50522985   2.400   4.269   4.881  0.9816 -1.1917 -1.0511
   41MOL   O50622986   2.563   4.440   5.268  0.2256  0.5663 -0.0876
   41MOL   C50722987   2.624   4.541   5.351 -0.1012  1.0154  0.5445
   41MOL   C50822988   2.611   4.510   5.503 -0.2250 -0.4206  0.1532
   41MOL   O50922989   2.721   4.419   5.522  0.0276 -0.0504  0.6408
   41MOL   C51022990   2.632   4.640   5.584 -0.0559 -0.6482 -0.1906
   41MOL   C51122991   2.643   4.609   5.735  0.2770  0.2204  1.1426
   41MOL   C51222992   2.663   4.739   5.821  0.2867  0.2328 -0.4134
   41MOL   O51322993   2.651   4.707   5.958  0.2907  0.4703  0.1704
   41MOL   C51422994   2.559   4.850   5.789  0.1302 -0.6400 -0.2909
   41MOL   C51522995   2.591   4.982   5.864  0.5703 -0.2762 -0.5360
   41MOL   C51622996   2.544   4.872   5.634  0.3012  0.4254  0.0152
   41MOL   C51722997   2.521   4.737   5.570 -0.3496 -0.0040  0.2152
   41MOL   H51822998   2.573   4.629   5.311 -0.2082 -0.0597 -1.7823
   41MOL   H51922999   2.730   4.555   5.331  0.0912 -0.6361  0.3072
   41MOL   H52023000   2.511   4.471   5.520 -0.0372 -1.4143 -0.9316
   41MOL   H52123001   2.707   4.372   5.603  2.2951  0.2943  1.2502
   41MOL   H52223002   2.723   4.688   5.546  0.4672 -0.4363  1.3016
   41MOL   H52323003   2.552   4.558   5.767 -0.6257  0.5160 -0.9123
   41MOL   H52423004   2.732   4.550   5.758  1.9987  2.7166  1.0475
   41MOL   H52523005   2.760   4.785   5.803 -0.7720  3.1063  0.9916
   41MOL   H52623006   2.735   4.685   5.996  0.1402 -0.2459  0.1065
   41MOL   H52723007   2.460   4.817   5.821 -0.7482  1.4778 -0.7643
   41MOL   H52823008   2.511   5.055   5.874  0.7725 -0.2032  0.6432
   41MOL   H52923009   2.628   4.959   5.964 -0.5790 -1.0033 -0.2733
   41MOL   H53023010   2.636   4.907   5.587  0.5183 -1.9950 -1.4363
   41MOL   H53123011   2.467   4.943   5.606 -1.9524 -1.2340  1.8176
   41MOL   H53223012   2.494   4.761   5.467 -0.2304 -1.9162 -0.2849
   41MOL   H53323013   2.427   4.694   5.605 -0.0999 -0.9192 -0.2237
   41MOL   O53423014   2.691   5.063   5.800  0.0668 -0.8770 -0.4359
   41MOL   C53523015   2.769   5.131   5.906  0.9207 -0.0143 -0.2851
   41MOL   C53623016   2.869   5.232   5.851  0.5268  0.9982  0.0798
   41MOL   O53723017   2.790   5.355   5.827 -0.4795 -0.3341 -0.7298
   41MOL   C53823018   2.984   5.263   5.943 -0.0626  0.3793 -0.0372
   41MOL   C53923019   2.959   5.366   6.061 -0.0160 -0.4543  0.8130
   41MOL   C54023020   3.078   5.386   6.160 -0.2388 -0.1933 -0.1194
   41MOL   O54123021   3.051   5.486   6.259  0.4050 -0.0328  0.3536
   41MOL   C54223022   3.207   5.423   6.079  0.0455 -0.3881 -0.5378
   41MOL   C54323023   3.324   5.424   6.176 -0.0035  0.4360 -0.3356
   41MOL   C54423024   3.237   5.324   5.958  1.0124 -0.6214  0.0336
   41MOL   C54523025   3.115   5.300   5.862 -0.1123 -0.3712 -0.1453
   41MOL   H54623026   2.818   5.049   5.958  1.0367  0.3533  0.1811
   41MOL   H54723027   2.698   5.173   5.977 -0.4624 -2.5982 -0.0597
   41MOL   H54823028   2.898   5.192   5.754  1.0941 -0.5139  0.8423
   41MOL   H54923029   2.709   5.327   5.788 -0.1392  0.1862 -1.8437
   41MOL   H55023030   3.006   5.168   5.994  1.3980  1.1411  0.7781
   41MOL   H55123031   2.964   5.460   6.007  3.0783 -0.2977  1.2925
   41MOL   H55223032   2.868   5.345   6.119 -0.9857 -1.4958 -1.0428
   41MOL   H55323033   3.097   5.292   6.212  0.1101  0.4020  0.8635
   41MOL   H55423034   3.064   5.444   6.342  0.3910 -0.0411  0.3514
   41MOL   H55523035   3.202   5.527   6.046 -0.3941  0.5673  2.4661
   41MOL   H55623036   3.347   5.319   6.191 -1.0429  0.1411 -0.7953
   41MOL   H55723037   3.414   5.479   6.150 -0.0908  1.5769  1.6235
   41MOL   H55823038   3.261   5.226   5.998 -1.2207 -1.1513  0.1419
   41MOL   H55923039   3.318   5.360   5.895  0.9632 -1.1290 -0.3214
   41MOL   H56023040   3.136   5.230   5.781 -0.3736  0.8763 -1.3190
   41MOL   H56123041   3.083   5.394   5.816 -0.2837 -2.0537 -3.6102
   41MOL   H56223042   3.295   5.474   6.269 -0.8787  0.4777 -0.6246
   42MOL     O123043   3.193   6.886   6.802 -0.4698  0.2740  0.3113
   42MOL     C223044   3.065   6.889   6.736  0.0339 -0.0442 -0.1159
   42MOL     C323045   3.066   6.956   6.600  0.7340  0.4336 -0.0251
   42MOL     O423046   3.182   7.041   6.614 -0.1600  0.1325 -0.2109
   42MOL     C523047   3.094   6.859   6.481  0.3259 -0.1767 -0.3552
   42MOL     C623048   3.229   6.774   6.494  0.5928 -0.0788 -0.4016
   42MOL     C723049   3.229   6.671   6.376 -0.1862  0.1492 -0.2064
   42MOL     O823050   3.344   6.596   6.405 -0.4174 -0.4170 -0.3470
   42MOL     C923051   3.230   6.748   6.241 -0.4646 -0.3073 -0.6211
   42MOL    C1023052   3.259   6.655   6.121  0.0057  0.2713  0.0028
   42MOL    C1123053   3.093   6.823   6.231 -0.2550 -0.1742 -0.4707
   42MOL    C1223054   3.086   6.921   6.340  0.3810 -0.1143 -0.1156
   42MOL    H1323055   2.993   6.947   6.793 -0.0630 -0.1657 -0.1137
   42MOL    H1423056   3.024   6.788   6.735  0.3490 -0.1674 -0.6500
   42MOL    H1523057   2.975   7.013   6.580  0.2204 -0.3149  0.1630
   42MOL    H1623058   3.235   6.975   6.657  1.2601  0.3975 -1.4939
   42MOL    H1723059   3.009   6.794   6.502 -0.0274  0.4448  0.1814
   42MOL    H1823060   3.311   6.846   6.494 -0.9694  1.7771  1.7865
   42MOL    H1923061   3.232   6.721   6.589 -0.9449 -0.0679 -0.3387
   42MOL    H2023062   3.139   6.609   6.370 -1.2254  1.5934  0.2096
   42MOL    H2123063   3.423   6.646   6.414  0.5632 -2.1652  1.0514
   42MOL    H2223064   3.307   6.825   6.244 -1.6190  0.8638 -0.2118
   42MOL    H2323065   3.270   6.722   6.036  4.4397 -2.1619 -1.5484
   42MOL    H2423066   3.346   6.590   6.133  0.3187  0.7316  0.2289
   42MOL    H2523067   3.000   6.769   6.246 -0.8934  1.0761  0.2165
   42MOL    H2623068   3.087   6.862   6.129  0.7643 -0.5876 -0.6966
   42MOL    H2723069   2.992   6.976   6.342  0.4455 -0.0233  0.7385
   42MOL    H2823070   3.157   7.000   6.317 -0.0274  0.4667  0.5785
   42MOL    H2923071   3.176   6.848   6.887  0.2145  0.6244  0.6049
   42MOL    O3023072   3.142   6.586   6.084 -0.2111  0.5299  0.2049
   42MOL    C3123073   3.184   6.465   6.020 -0.4563  0.0799 -0.1256
   42MOL    C3223074   3.213   6.349   6.113  0.1090 -0.1371  0.0349
   42MOL    O3323075   3.101   6.269   6.114 -1.3438  0.2240 -0.3400
   42MOL    C3423076   3.340   6.264   6.074  0.3303  0.0679 -0.3557
   42MOL    C3523077   3.471   6.350   6.067 -0.6899 -0.3312 -0.5560
   42MOL    C3623078   3.598   6.269   6.033 -0.7588  0.1171 -0.4856
   42MOL    O3723079   3.703   6.367   5.993  1.0146 -0.1769 -0.0432
   42MOL    C3823080   3.564   6.164   5.921 -0.4022 -0.3930 -0.5240
   42MOL    C3923081   3.685   6.070   5.898  0.1830 -0.1402  0.3280
   42MOL    C4023082   3.438   6.082   5.936 -0.3929  0.2415 -0.6696
   42MOL    C4123083   3.319   6.176   5.953 -0.5667 -0.4246 -0.0747
   42MOL    H4223084   3.263   6.487   5.948  1.3919 -0.1327  1.7751
   42MOL    H4323085   3.096   6.437   5.962 -1.0544 -3.4218  2.3355
   42MOL    H4423086   3.230   6.377   6.218  1.5162  1.7487 -0.6600
   42MOL    H4523087   3.036   6.338   6.112 -0.3312  1.1808 -1.3039
   42MOL    H4623088   3.345   6.203   6.164 -1.1976  0.8971  0.3140
   42MOL    H4723089   3.474   6.429   5.992  0.1668 -0.0415 -0.2238
   42MOL    H4823090   3.485   6.387   6.169 -1.8485  1.0925 -0.9035
   42MOL    H4923091   3.644   6.206   6.109  3.0187 -0.3957 -3.0611
   42MOL    H5023092   3.736   6.393   6.077  1.8095 -0.8340 -0.1496
   42MOL    H5123093   3.550   6.221   5.829 -1.1877  0.1824 -0.0484
   42MOL    H5223094   3.778   6.120   5.923  0.7587 -1.7409  1.4526
   42MOL    H5323095   3.671   5.995   5.976 -0.6622 -0.4763 -0.1288
   42MOL    H5423096   3.449   6.015   6.022  0.2612 -2.8120 -3.0317
   42MOL    H5523097   3.433   6.014   5.850  2.1226  0.5705 -1.1113
   42MOL    H5623098   3.226   6.122   5.965 -0.1012 -0.4951  3.5914
   42MOL    H5723099   3.311   6.238   5.863 -0.8758 -0.7751 -0.2898
   42MOL    O5823100   3.683   6.013   5.771  0.8338 -0.1120 -0.4766
   42MOL    C5923101   3.816   5.971   5.720 -0.0033 -0.0797  0.9419
   42MOL    C6023102   3.811   5.870   5.602  0.2399  0.1466 -1.4748
   42MOL    O6123103   3.755   5.755   5.657 -0.2777  0.0988  0.0527
   42MOL    C6223104   3.740   5.917   5.478  0.5372 -0.1807  0.0117
   42MOL    C6323105   3.587   5.901   5.478 -0.4411 -0.3341  0.0632
   42MOL    C6423106   3.527   5.968   5.351 -0.3934  0.1393 -0.2531
   42MOL    O6523107   3.385   5.968   5.369 -0.0140  0.6235  0.1079
   42MOL    C6623108   3.565   5.879   5.231  0.1161  0.0047  0.1460
   42MOL    C6723109   3.496   5.927   5.101  0.1254 -0.5979  0.8391
   42MOL    C6823110   3.718   5.877   5.222  0.1576 -0.9094 -0.6666
   42MOL    C6923111   3.786   5.831   5.352  0.0053 -0.1378  0.0147
   42MOL    H7023112   3.880   5.928   5.797  2.1030  0.6007 -0.3974
   42MOL    H7123113   3.875   6.059   5.694  0.1447 -1.0801 -2.2995
   42MOL    H7223114   3.914   5.852   5.571  0.2475 -1.5412 -0.5543
   42MOL    H7323115   3.668   5.786   5.680 -0.8706  0.0664 -1.9966
   42MOL    H7423116   3.767   6.020   5.458  0.8569 -0.5751 -1.6298
   42MOL    H7523117   3.535   5.806   5.490 -1.5067  0.1664 -0.4850
   42MOL    H7623118   3.557   5.943   5.574 -0.3736 -1.1785  0.4549
   42MOL    H7723119   3.564   6.070   5.339  1.0187 -0.4508 -1.1006
   42MOL    H7823120   3.360   6.035   5.430  1.5523  0.7897  0.5735
   42MOL    H7923121   3.529   5.781   5.262 -1.1424  0.7124  0.9744
   42MOL    H8023122   3.390   5.945   5.115  0.3867  1.0521  0.8234
   42MOL    H8123123   3.532   6.029   5.086  1.0940 -0.8943  1.0815
   42MOL    H8223124   3.755   5.971   5.180  2.5112 -1.6052 -0.2027
   42MOL    H8323125   3.751   5.815   5.139  0.9397  1.7820 -2.4417
   42MOL    H8423126   3.891   5.858   5.345 -0.5989  3.2605  2.6790
   42MOL    H8523127   3.775   5.724   5.370 -1.3916 -0.2869 -1.6337
   42MOL    O8623128   3.517   5.849   4.980 -0.3130 -0.1205 -0.3570
   42MOL    C8723129   3.435   5.726   4.978  0.0689 -0.1255 -0.1287
   42MOL    C8823130   3.480   5.657   4.850  0.1914 -0.3574 -0.2980
   42MOL    O8923131   3.410   5.715   4.743 -0.0692 -0.1390  0.6608
   42MOL    C9023132   3.636   5.659   4.837  0.2801  0.4695 -0.1731
   42MOL    C9123133   3.682   5.615   4.700 -0.3918 -0.3049  0.6138
   42MOL    C9223134   3.838   5.629   4.685  0.3958 -0.2403 -0.5773
   42MOL    O9323135   3.873   5.583   4.557  0.1156  0.1850 -0.5534
   42MOL    C9423136   3.921   5.557   4.800 -0.3086  0.3421 -0.3432
   42MOL    C9523137   4.068   5.584   4.791  0.4276 -0.0291  0.3217
   42MOL    C9623138   3.859   5.596   4.931  0.1588 -0.2783 -0.1207
   42MOL    C9723139   3.706   5.578   4.943 -0.0081 -0.0433  0.7550
   42MOL    H9823140   3.330   5.753   4.970  0.3424  1.0199  0.1523
   42MOL    H9923141   3.444   5.659   5.063 -0.9027 -0.7654 -0.5193
   42MOL   H10023142   3.459   5.552   4.869  1.8222 -0.9794 -1.7397
   42MOL   H10123143   3.450   5.801   4.745  1.3202 -0.7120 -0.7781
   42MOL   H10223144   3.676   5.759   4.853  1.7850 -0.0778 -0.3520
   42MOL   H10323145   3.653   5.512   4.683  1.8158 -0.7003 -0.9539
   42MOL   H10423146   3.626   5.677   4.630 -0.9019 -0.6709  0.6953
   42MOL   H10523147   3.868   5.734   4.692  4.4326 -1.3810  0.4440
   42MOL   H10623148   3.873   5.489   4.559 -1.9698  0.1685  0.2122
   42MOL   H10723149   3.907   5.451   4.782  0.6521 -0.1926  1.8473
   42MOL   H10823150   4.116   5.546   4.701  0.2339 -0.4336  0.3885
   42MOL   H10923151   4.079   5.692   4.801 -2.2641  0.3732 -0.5601
   42MOL   H11023152   3.889   5.697   4.961 -0.3136 -0.5724  1.3765
   42MOL   H11123153   3.895   5.533   5.012  1.1546 -1.0465 -1.1485
   42MOL   H11223154   3.675   5.610   5.043  4.2390  1.4696  1.6874
   42MOL   H11323155   3.683   5.472   4.939 -2.3598  0.3688  2.2012
   42MOL   O11423156   4.122   5.521   4.903 -0.3385  0.1126 -0.5938
   42MOL   C11523157   4.265   5.508   4.911  0.2164 -0.1769 -0.5221
   42MOL   C11623158   4.328   5.640   4.975  0.1131  0.0872 -0.0100
   42MOL   O11723159   4.235   5.671   5.080 -0.1636 -0.3379 -0.3812
   42MOL   C11823160   4.471   5.617   5.019 -0.0735  0.1915 -0.4382
   42MOL   C11923161   4.508   5.747   5.096  0.5817 -0.3074 -0.2142
   42MOL   C12023162   4.663   5.761   5.127  0.1324 -0.3726 -0.4389
   42MOL   O12123163   4.671   5.887   5.199  0.0505  0.0773 -0.4068
   42MOL   C12223164   4.735   5.743   4.996  0.2774  0.0651  0.6588
   42MOL   C12323165   4.891   5.766   5.009 -0.4496 -0.1266 -0.6517
   42MOL   C12423166   4.707   5.612   4.927 -0.5210  0.2974 -0.3061
   42MOL   C12523167   4.557   5.606   4.892 -0.2201  0.0329 -0.3998
   42MOL   H12623168   4.298   5.476   4.812 -1.3453 -4.6089  0.2676
   42MOL   H12723169   4.292   5.427   4.978 -0.0524 -1.0584 -1.4564
   42MOL   H12823170   4.311   5.717   4.899 -4.8343 -0.6693  0.1817
   42MOL   H12923171   4.149   5.648   5.050 -0.6485  1.8633 -0.7516
   42MOL   H13023172   4.474   5.530   5.084 -1.1781 -2.0234 -3.2223
   42MOL   H13123173   4.470   5.833   5.041  0.9681 -0.2485 -0.3964
   42MOL   H13223174   4.468   5.753   5.197 -0.6120 -1.0338 -0.6368
   42MOL   H13323175   4.690   5.671   5.183  0.9051 -0.1998 -0.5216
   42MOL   H13423176   4.687   5.854   5.286 -0.8127 -0.3267 -0.3886
   42MOL   H13523177   4.701   5.819   4.925 -1.3149 -2.2910 -1.2139
   42MOL   H13623178   4.934   5.737   4.914 -0.5691  0.3412 -0.8496
   42MOL   H13723179   4.927   5.867   5.028  0.7030 -0.6536 -0.0114
   42MOL   H13823180   4.742   5.530   4.989 -0.6121  1.5508  1.4325
   42MOL   H13923181   4.770   5.602   4.838  0.8815  1.8645  0.4705
   42MOL   H14023182   4.537   5.514   4.837 -3.7953  0.1856  0.5385
   42MOL   H14123183   4.529   5.681   4.818 -1.7369  2.3582  2.4340
   42MOL   O14223184   4.935   5.680   5.105 -0.4208  0.2091  0.1349
   42MOL   C14323185   5.073   5.683   5.133 -0.0358 -0.1253  0.2620
   42MOL   C14423186   5.102   5.605   5.263 -0.4726  0.3195  0.5363
   42MOL   O14523187   5.082   5.683   5.372 -0.1626  0.0474 -0.6781
   42MOL   C14623188   5.026   5.475   5.276  0.5920 -0.4917 -0.7457
   42MOL   C14723189   5.067   5.396   5.401  0.2706 -0.3046  0.4799
   42MOL   C14823190   4.990   5.256   5.397  0.0964  0.1830  0.9342
   42MOL   O14923191   5.037   5.184   5.507 -0.1369  0.1778 -0.1691
   42MOL   C15023192   5.016   5.177   5.264 -0.1968  0.5473 -0.1637
   42MOL   C15123193   4.943   5.045   5.259 -0.2818 -0.4453 -0.0758
   42MOL   C15223194   4.972   5.261   5.143 -0.1949 -0.9306  0.6191
   42MOL   C15323195   5.053   5.392   5.146 -0.1534 -0.6506  0.9517
   42MOL   H15423196   5.117   5.782   5.144 -1.5144  0.2888  2.8314
   42MOL   H15523197   5.117   5.633   5.047 -2.7651 -0.5267 -0.9742
   42MOL   H15623198   5.209   5.585   5.268 -0.1998  0.5187 -3.0889
   42MOL   H15723199   4.991   5.709   5.365  0.0434  0.7555 -0.7478
   42MOL   H15823200   4.918   5.489   5.281  0.8058  0.9796  0.0908
   42MOL   H15923201   5.174   5.375   5.405 -0.0459 -1.9764  0.1285
   42MOL   H16023202   5.049   5.438   5.500  0.5574  0.9599  0.0090
   42MOL   H16123203   4.882   5.265   5.402 -0.1281 -1.2207 -1.0812
   42MOL   H16223204   4.991   5.101   5.502  1.2246 -0.5394 -1.1469
   42MOL   H16323205   5.122   5.151   5.258 -0.2359  0.1007  0.9124
   42MOL   H16423206   4.835   5.058   5.274 -0.3660  0.6558 -1.6451
   42MOL   H16523207   4.957   4.988   5.167  2.0951 -0.3539  0.1969
   42MOL   H16623208   4.865   5.270   5.126 -0.1139  1.2958  1.2018
   42MOL   H16723209   5.003   5.207   5.053 -1.2742  1.2629 -1.1139
   42MOL   H16823210   5.013   5.439   5.056 -0.2583  0.6725  1.6782
   42MOL   H16923211   5.161   5.380   5.137 -0.0943  0.3861  0.1304
   42MOL   O17023212   4.985   4.957   5.359 -0.4089  0.5292 -0.2186
   42MOL   C17123213   5.090   4.875   5.329 -0.5866 -0.5415 -0.5804
   42MOL   C17223214   5.153   4.804   5.451 -0.0431 -0.0627 -0.9033
   42MOL   O17323215   5.100   4.684   5.475 -0.0389 -0.3828 -0.0962
   42MOL   C17423216   5.310   4.781   5.450 -0.5321 -0.5181  0.6853
   42MOL   C17523217   5.380   4.916   5.454  0.3439 -0.0310 -0.1333
   42MOL   C17623218   5.525   4.899   5.482 -0.0009 -0.8210 -0.0481
   42MOL   O17723219   5.577   5.030   5.478  0.3574 -0.1650  0.1649
   42MOL   C17823220   5.593   4.819   5.367  0.8090  0.2992  0.4704
   42MOL   C17923221   5.739   4.801   5.399  1.0427  0.5538  0.5573
   42MOL   C18023222   5.512   4.689   5.343 -0.3046 -0.1137  1.0641
   42MOL   C18123223   5.361   4.704   5.332  0.9477 -0.4643  0.4432
   42MOL   H18223224   5.170   4.934   5.285 -1.0530 -0.5301 -1.4297
   42MOL   H18323225   5.059   4.799   5.257 -1.9378 -0.7762  0.2251
   42MOL   H18423226   5.122   4.864   5.537  0.1060 -0.2491 -0.7200
   42MOL   H18523227   5.015   4.701   5.440 -0.6454 -0.7223  1.1725
   42MOL   H18623228   5.335   4.727   5.541  1.5318  0.8896  1.0038
   42MOL   H18723229   5.369   4.965   5.357  0.5154  0.8762  0.3006
   42MOL   H18823230   5.344   4.983   5.532  1.5645 -0.2427  0.6363
   42MOL   H18923231   5.535   4.845   5.577 -2.5041  2.7478  2.3616
   42MOL   H19023232   5.548   5.066   5.395  0.2052  0.1380  0.3492
   42MOL   H19123233   5.578   4.875   5.275  1.5822  2.2274  1.4835
   42MOL   H19223234   5.785   4.892   5.437 -1.4980  1.4243  1.6306
   42MOL   H19323235   5.744   4.735   5.486  1.3238  1.4180  1.1974
   42MOL   H19423236   5.525   4.638   5.438  1.4532  1.2124  1.5621
   42MOL   H19523237   5.555   4.623   5.268 -1.2895  1.9860 -1.4343
   42MOL   H19623238   5.314   4.606   5.319  0.4132 -0.2561  0.7594
   42MOL   H19723239   5.331   4.743   5.235  0.1156  1.4707  1.4459
   42MOL   O19823240   5.819   4.745   5.290 -0.0325 -0.6169  0.1646
   42MOL   C19923241   5.846   4.603   5.292  0.5106  0.0865 -0.2627
   42MOL   C20023242   5.948   4.557   5.400 -0.3017  0.7567  0.6133
   42MOL   O20123243   5.879   4.514   5.512 -0.0776 -0.4120  0.9082
   42MOL   C20223244   6.057   4.458   5.352  1.0909  0.4024  0.4754
   42MOL   C20323245   6.012   4.328   5.280  0.4044 -0.0214 -0.2546
   42MOL   C20423246   6.135   4.261   5.210  0.4010  0.1256 -0.4763
   42MOL   O20523247   6.100   4.139   5.165 -0.2778  0.3778 -0.3363
   42MOL   C20623248   6.253   4.243   5.311 -0.0570 -0.0018 -0.2453
   42MOL   C20723249   6.385   4.189   5.250  0.6015 -0.3335  0.2290
   42MOL   C20823250   6.272   4.357   5.413  0.1782  0.0917  0.5244
   42MOL   C20923251   6.147   4.418   5.469 -0.4707  0.0605  0.2634
   42MOL   H21023252   5.893   4.577   5.197  1.9435  0.4627  0.3258
   42MOL   H21123253   5.764   4.534   5.278 -0.9291  1.0564  2.8483
   42MOL   H21223254   6.002   4.646   5.432 -3.0982  2.4174  0.9378
   42MOL   H21323255   5.807   4.459   5.484 -0.9276  0.3154  1.6375
   42MOL   H21423256   6.114   4.517   5.280  0.4166  0.6040  0.1110
   42MOL   H21523257   5.961   4.268   5.355  0.2446 -1.0715 -1.1925
   42MOL   H21623258   5.931   4.340   5.207  0.5316  2.0800 -0.0781
   42MOL   H21723259   6.152   4.320   5.120  0.6568  1.6945  0.5775
   42MOL   H21823260   6.017   4.151   5.122 -0.4161 -1.6977 -0.6906
   42MOL   H21923261   6.220   4.165   5.380 -3.5264  1.2798 -0.3605
   42MOL   H22023262   6.369   4.093   5.201 -1.3088 -0.4068  0.9214
   42MOL   H22123263   6.420   4.262   5.177  1.2272 -0.2014  0.6644
   42MOL   H22223264   6.338   4.430   5.364 -0.6135  0.0311 -0.6593
   42MOL   H22323265   6.330   4.327   5.500  1.1843  1.6210  0.4043
   42MOL   H22423266   6.184   4.503   5.526  1.1582  0.7587 -1.7724
   42MOL   H22523267   6.118   4.337   5.536  1.2022 -1.4405 -0.7869
   42MOL   O22623268   6.485   4.168   5.338 -0.0571  0.0966  0.3041
   42MOL   C22723269   6.595   4.107   5.275 -0.2699  0.0143 -0.1858
   42MOL   C22823270   6.726   4.132   5.347  0.3140  0.5441  0.1362
   42MOL   O22923271   6.769   4.265   5.324 -0.2458 -0.3493 -0.3080
   42MOL   C23023272   6.718   4.105   5.502 -0.3765 -0.2378  0.9671
   42MOL   C23123273   6.628   4.189   5.587  0.4083 -0.3335  0.2303
   42MOL   C23223274   6.633   4.156   5.736 -0.0738 -0.0977  0.2805
   42MOL   O23323275   6.546   4.249   5.791  0.5187 -0.0107 -0.5334
   42MOL   C23423276   6.777   4.164   5.797 -0.1723  0.0900 -0.2264
   42MOL   C23523277   6.788   4.138   5.949  1.0357  0.2785  0.7580
   42MOL   C23623278   6.852   4.065   5.713 -0.4109  0.4416  0.1649
   42MOL   C23723279   6.854   4.101   5.568  0.0595 -0.2599 -1.1932
   42MOL   H23823280   6.607   4.136   5.171  1.0008 -1.8803 -0.5980
   42MOL   H23923281   6.581   3.999   5.274  1.7308 -0.2859  0.9434
   42MOL   H24023282   6.801   4.059   5.314  0.8234  0.2455  1.9246
   42MOL   H24123283   6.705   4.323   5.360  0.5708 -0.0409  0.6933
   42MOL   H24223284   6.673   4.007   5.511  0.0559 -0.2718  2.8773
   42MOL   H24323285   6.659   4.293   5.578 -1.4089  0.3272  1.2997
   42MOL   H24423286   6.523   4.182   5.559  0.8873 -1.7371 -1.2893
   42MOL   H24523287   6.595   4.055   5.750  0.2983  0.0857  2.8650
   42MOL   H24623288   6.566   4.253   5.883  0.6045 -1.6041 -0.4567
   42MOL   H24723289   6.814   4.266   5.779 -0.5147  0.3288  0.3975
   42MOL   H24823290   6.755   4.036   5.970 -0.7897  0.7134  0.1156
   42MOL   H24923291   6.892   4.144   5.980  1.1316 -0.4605  0.5964
   42MOL   H25023292   6.814   3.963   5.727 -1.4377  1.0965  2.3788
   42MOL   H25123293   6.953   4.063   5.751  0.4805  0.0201 -2.1267
   42MOL   H25223294   6.915   4.027   5.516  0.4172 -0.3171 -0.6880
   42MOL   H25323295   6.906   4.196   5.558  0.2876  0.0173  2.1541
   42MOL   O25423296   6.712   4.238   6.018  0.2644  0.2595 -0.6067
   42MOL   C25523297   6.724   4.207   6.155 -0.0351 -0.2366  0.3340
   42MOL   C25623298   6.630   4.305   6.231  0.3326  0.0086  0.5580
   42MOL   O25723299   6.599   4.233   6.346 -0.1439 -0.1256  0.7030
   42MOL   C25823300   6.697   4.442   6.266  0.3766  0.0022 -0.3184
   42MOL   C25923301   6.611   4.521   6.362 -0.3484  0.1572  0.5856
   42MOL   C26023302   6.629   4.675   6.376 -0.4567  0.7197  0.0973
   42MOL   O26123303   6.524   4.725   6.454  0.1202 -0.0697  0.2115
   42MOL   C26223304   6.637   4.733   6.238  0.1116 -0.3749  0.1598
   42MOL   C26323305   6.678   4.880   6.254 -0.0668 -0.4567 -0.4587
   42MOL   C26423306   6.741   4.665   6.151 -0.5715  0.3201  0.1483
   42MOL   C26523307   6.709   4.519   6.132 -0.1676 -0.6327 -0.1159
   42MOL   H26623308   6.827   4.213   6.191 -0.0900  4.5026 -0.0495
   42MOL   H26723309   6.686   4.105   6.167 -2.4093  0.5239 -0.5036
   42MOL   H26823310   6.547   4.327   6.164  1.3535  2.3172 -0.0082
   42MOL   H26923311   6.678   4.197   6.383 -0.3313 -2.6866 -1.2698
   42MOL   H27023312   6.786   4.436   6.329  0.1413  1.5161  0.1697
   42MOL   H27123313   6.508   4.507   6.330  0.6121 -2.7631 -1.3948
   42MOL   H27223314   6.627   4.471   6.458 -0.4208  2.8237  2.0544
   42MOL   H27323315   6.719   4.707   6.428 -0.1857 -0.2882  0.2513
   42MOL   H27423316   6.556   4.761   6.535  0.9456 -4.5092  1.9993
   42MOL   H27523317   6.543   4.732   6.184 -0.5780 -0.2305  1.3574
   42MOL   H27623318   6.610   4.938   6.316  1.9175  1.8755 -0.3906
   42MOL   H27723319   6.777   4.882   6.299 -0.8751  0.5447  1.3136
   42MOL   H27823320   6.833   4.673   6.208  0.1642 -1.8212 -0.6992
   42MOL   H27923321   6.756   4.708   6.052 -0.1977 -1.1588 -0.4528
   42MOL   H28023322   6.786   4.471   6.073  1.1507  0.5804  0.6013
   42MOL   H28123323   6.626   4.507   6.062 -0.3564 -1.5225  0.2545
   42MOL   O28223324   6.677   4.938   6.121 -0.1021 -0.7436  0.5235
   42MOL   C28323325   6.749   5.065   6.126 -0.1234 -0.6081  0.1041
   42MOL   C28423326   6.755   5.118   5.980  0.0939 -0.4064  0.2937
   42MOL   O28523327   6.798   5.250   6.001 -0.1895 -0.5112 -0.0153
   42MOL   C28623328   6.852   5.052   5.887 -0.2212  0.4188 -0.7847
   42MOL   C28723329   7.005   5.072   5.914 -0.0476 -0.1972  0.3875
   42MOL   C28823330   7.091   4.989   5.826  0.1759  0.3862 -0.0168
   42MOL   O28923331   7.211   5.040   5.871  0.1151  0.2370 -0.1090
   42MOL   C29023332   7.067   5.042   5.682 -0.1292 -0.0124 -0.3354
   42MOL   C29123333   7.156   4.971   5.580  0.8622  0.6619  0.2066
   42MOL   C29223334   6.923   5.009   5.644 -0.4964 -0.3273 -0.5996
   42MOL   C29323335   6.820   5.070   5.734 -0.3660  0.1504  0.0846
   42MOL   H29423336   6.854   5.044   6.147 -0.0534  0.7236  1.1675
   42MOL   H29523337   6.706   5.135   6.198  0.2137 -0.3562  0.0632
   42MOL   H29623338   6.653   5.129   5.941  0.8705  0.9146 -1.4745
   42MOL   H29723339   6.743   5.287   6.069 -0.5382 -0.0420 -0.5435
   42MOL   H29823340   6.826   4.947   5.904  0.0743  0.3699 -0.6276
   42MOL   H29923341   7.032   5.178   5.904  1.1112 -0.6711 -1.6641
   42MOL   H30023342   7.030   5.054   6.019  2.6121 -2.1452 -0.5312
   42MOL   H30123343   7.074   4.884   5.849 -0.7426  0.8841  1.6201
   42MOL   H30223344   7.260   5.072   5.797  0.0101 -0.6175 -0.5524
   42MOL   H30323345   7.085   5.148   5.662  0.3968 -0.2423 -1.0652
   42MOL   H30423346   7.139   4.863   5.591  0.4354  0.6951 -0.1130
   42MOL   H30523347   7.140   4.991   5.474 -0.3390 -3.0706 -0.4060
   42MOL   H30623348   6.911   4.901   5.634  1.2132 -0.8270  2.3437
   42MOL   H30723349   6.914   5.043   5.541  0.1128 -0.1538 -0.5941
   42MOL   H30823350   6.724   5.020   5.717 -1.0447  0.0845  3.5427
   42MOL   H30923351   6.810   5.176   5.711  1.0016  0.3890  0.5322
   42MOL   O31023352   7.293   4.988   5.616 -0.0434  0.4153  0.2602
   42MOL   C31123353   7.379   4.889   5.562  0.4190  0.0675  0.4997
   42MOL   C31223354   7.528   4.929   5.562 -0.0663 -0.4708  0.3401
   42MOL   O31323355   7.562   4.978   5.429  0.3217  0.3294  0.0535
   42MOL   C31423356   7.561   5.021   5.677  0.2102  0.8706 -0.6143
   42MOL   C31523357   0.080   5.062   5.652  0.3707  0.5224  0.3139
   42MOL   C31623358   0.113   5.172   5.751  0.0389  0.5271 -0.4408
   42MOL   O31723359   0.239   5.208   5.714 -0.3717  0.0011 -0.9631
   42MOL   C31823360   0.107   5.121   5.895 -0.1437  0.5575  0.1571
   42MOL   C31923361   0.159   5.217   6.006 -0.1883  0.3226  0.3358
   42MOL   C32023362   7.583   5.073   5.921  0.1935 -0.3289 -0.2025
   42MOL   C32123363   7.543   4.958   5.818 -0.3316 -0.2332 -0.9074
   42MOL   H32223364   7.341   4.838   5.474 -0.7546 -0.6461  1.4161
   42MOL   H32323365   7.384   4.803   5.629  1.1327  0.6631  1.2190
   42MOL   H32423366   7.586   4.836   5.565 -0.1900 -0.6199 -1.5033
   42MOL   H32523367   7.489   5.028   5.395 -1.4215 -0.1457  2.9321
   42MOL   H32623368   7.500   5.110   5.666 -0.3664  0.4768 -0.6477
   42MOL   H32723369   0.148   4.979   5.668  0.5465  0.1816 -2.0263
   42MOL   H32823370   0.097   5.093   5.548  0.3230 -1.6329 -0.3733
   42MOL   H32923371   0.045   5.256   5.740 -2.2104 -1.0758  0.8912
   42MOL   H33023372   0.244   5.302   5.704  0.3523 -0.0714 -1.3561
   42MOL   H33123373   0.176   5.036   5.898 -0.5208  0.2203 -0.5253
   42MOL   H33223374   0.265   5.224   5.985 -0.1204 -0.2799  0.4560
   42MOL   H33323375   0.138   5.324   6.002  1.7685  0.7763  1.7332
   42MOL   H33423376   7.511   5.155   5.919  0.1193 -0.3792  0.2360
   42MOL   H33523377   7.569   5.046   6.026  0.3287 -0.4616 -0.2180
   42MOL   H33623378   7.440   4.924   5.827 -0.4322  0.2780 -0.0723
   42MOL   H33723379   7.614   4.875   5.823  0.5261  0.4739 -1.2515
   42MOL   O33823380   0.126   5.165   6.133 -0.1597 -0.1496  0.1286
   42MOL   C33923381   0.184   5.245   6.239  0.0552 -0.5505 -0.0031
   42MOL   C34023382   0.092   5.242   6.365 -0.3650 -0.2027 -0.2368
   42MOL   O34123383   0.164   5.273   6.484 -0.1212 -0.0250  0.8392
   42MOL   C34223384   7.600   5.341   6.366  0.3682 -0.3218  0.5020
   42MOL   C34323385   7.525   5.338   6.504 -0.6744 -0.3358 -0.3937
   42MOL   C34423386   7.406   5.433   6.518 -0.7958  0.1803 -0.2501
   42MOL   O34523387   7.365   5.429   6.655  1.0904  0.8406  0.5808
   42MOL   C34623388   7.299   5.389   6.419 -0.6721 -0.3553  0.0089
   42MOL   C34723389   7.158   5.454   6.444  0.4854  0.7240  0.4106
   42MOL   C34823390   7.353   5.388   6.276 -0.0312 -0.0663 -0.2119
   42MOL   C34923391   7.488   5.306   6.259 -0.1244  0.5626  0.3793
   42MOL   H35023392   0.188   5.350   6.210  1.1726  0.0539  2.1524
   42MOL   H35123393   0.287   5.217   6.261  0.8246  1.8153 -0.5027
   42MOL   H35223394   0.065   5.136   6.362 -0.2449 -0.2869  1.3325
   42MOL   H35323395   0.128   5.217   6.551  0.6279 -0.0671  1.2151
   42MOL   H35423396   0.006   5.438   6.331  1.1136 -0.2136  1.5374
   42MOL   H35523397   7.519   5.237   6.544  1.1384 -0.4218 -0.2893
   42MOL   H35623398   7.596   5.376   6.578 -0.4071 -0.1128 -0.7634
   42MOL   H35723399   7.455   5.526   6.490  1.9414 -1.4842 -1.1629
   42MOL   H35823400   7.359   5.337   6.676 -0.1630  1.5253  3.4086
   42MOL   H35923401   7.286   5.282   6.430 -0.9662 -0.4317 -1.0988
   42MOL   H36023402   7.079   5.406   6.385  1.2567  0.1072 -0.1456
   42MOL   H36123403   7.128   5.460   6.548 -0.5818  1.4294  0.0682
   42MOL   H36223404   7.369   5.493   6.252 -0.4937  0.6051  2.2318
   42MOL   H36323405   7.277   5.335   6.218  0.4436  0.6502 -1.5170
   42MOL   H36423406   7.518   5.326   6.156 -2.0571  0.3914 -0.2332
   42MOL   H36523407   7.468   5.199   6.259  1.5161  0.2372  1.4244
   42MOL   O36623408   7.176   5.584   6.387  0.0129 -0.2221  0.1313
   42MOL   C36723409   7.071   5.674   6.421  0.1906 -0.1049  0.2040
   42MOL   C36823410   7.033   5.755   6.293 -0.9262  0.1056  0.0245
   42MOL   O36923411   7.148   5.831   6.257 -0.6191  0.1016 -0.4388
   42MOL   C37023412   6.971   5.677   6.176 -0.4995  0.2996  0.9325
   42MOL   C37123413   7.073   5.584   6.105 -0.0185  0.0396  0.1503
   42MOL   C37223414   7.024   5.518   5.977 -0.3482 -0.8026  0.3526
   42MOL   O37323415   7.138   5.472   5.899 -0.1334  0.0698  0.0620
   42MOL   C37423416   6.956   5.613   5.876  0.1442  0.1438  0.1225
   42MOL   C37523417   6.880   5.541   5.768 -0.0943 -0.0774  0.6510
   42MOL   C37623418   6.857   5.705   5.949 -0.3290  0.1659 -0.0768
   42MOL   C37723419   6.922   5.774   6.072  0.3156  0.1864 -0.2361
   42MOL   H37823420   7.109   5.742   6.496 -0.7788  1.4769 -0.7022
   42MOL   H37923421   6.984   5.620   6.457  1.6809 -2.7093  0.0011
   42MOL   H38023422   6.953   5.823   6.321 -0.1120  1.3610 -0.6984
   42MOL   H38123423   7.228   5.783   6.270 -2.2017 -2.7882 -0.8145
   42MOL   H38223424   6.889   5.612   6.207 -0.4150 -0.5402 -0.5641
   42MOL   H38323425   7.168   5.632   6.077 -1.0345  1.0681 -1.6051
   42MOL   H38423426   7.088   5.503   6.176 -2.5818 -0.8304 -0.2504
   42MOL   H38523427   6.957   5.433   5.995  0.8324 -2.1845 -1.6600
   42MOL   H38623428   7.183   5.403   5.945  1.9878  0.8961 -0.6972
   42MOL   H38723429   7.038   5.669   5.832  0.5785 -0.1363  0.5653
   42MOL   H38823430   6.935   5.454   5.733  1.3156  0.4928  1.4148
   42MOL   H38923431   6.783   5.510   5.807 -1.1673  1.0271 -1.1134
   42MOL   H39023432   6.765   5.657   5.981 -0.6642  0.7154 -0.2157
   42MOL   H39123433   6.820   5.773   5.872 -1.4503  1.8638  1.9433
   42MOL   H39223434   6.847   5.836   6.119  0.4151 -0.5154  0.8654
   42MOL   H39323435   7.001   5.837   6.030  1.1011 -0.4877  0.1984
   42MOL   O39423436   6.845   5.642   5.669 -0.0470 -0.0338 -0.0998
   42MOL   C39523437   6.761   5.579   5.568 -0.4310 -0.3317  0.1945
   42MOL   C39623438   6.743   5.684   5.464 -0.5821  0.0723 -0.6545
   42MOL   O39723439   6.658   5.781   5.529 -0.3382  0.5702  0.0081
   42MOL   C39823440   6.873   5.744   5.407  0.6721 -0.4892 -0.0295
   42MOL   C39923441   6.871   5.898   5.392 -0.1798  0.1972 -0.1441
   42MOL   C40023442   7.012   5.941   5.343  0.2644  0.4113  0.5207
   42MOL   O40123443   7.010   6.081   5.362  0.4072  0.4127  0.1912
   42MOL   C40223444   7.056   5.880   5.200 -0.1482  0.5104 -0.1075
   42MOL   C40323445   7.198   5.915   5.156  0.3572  0.9342  0.2607
   42MOL   C40423446   7.043   5.724   5.223 -0.6244  0.7415  0.6584
   42MOL   C40523447   6.917   5.675   5.279  0.6292  0.4159 -0.4884
   42MOL   H40623448   6.669   5.539   5.609 -0.6033  0.0594  0.1822
   42MOL   H40723449   6.811   5.493   5.523 -1.7480 -0.9260 -0.1607
   42MOL   H40823450   6.684   5.645   5.382  0.0411  0.0199 -1.0806
   42MOL   H40923451   6.708   5.815   5.601  1.2842 -0.2941 -0.6626
   42MOL   H41023452   6.955   5.704   5.467  1.7370  0.0231 -1.1189
   42MOL   H41123453   6.795   5.933   5.323  0.9443 -0.1989 -1.6132
   42MOL   H41223454   6.851   5.950   5.485 -0.4661  0.5742 -0.4180
   42MOL   H41323455   7.087   5.902   5.411  1.1897  2.3457  0.6704
   42MOL   H41423456   7.045   6.104   5.446 -0.8181  2.0726  0.2730
   42MOL   H41523457   6.985   5.907   5.121 -0.3029 -0.3374 -0.2619
   42MOL   H41623458   7.222   6.021   5.165  2.8538  0.3847  0.4391
   42MOL   H41723459   7.257   5.869   5.235 -1.2025  1.4440  1.7294
   42MOL   H41823460   7.131   5.689   5.277 -0.8435 -1.5705 -0.4146
   42MOL   H41923461   7.048   5.675   5.126 -1.1872 -0.5461  1.2686
   42MOL   H42023462   6.932   5.569   5.300 -0.0771  0.0492 -1.7978
   42MOL   H42123463   6.836   5.688   5.207 -0.0806 -0.9496  0.0507
   42MOL   O42223464   7.234   5.876   5.023  0.9632  0.1461 -0.1548
   42MOL   C42323465   7.263   5.972   4.930 -0.5365  0.3993  0.1338
   42MOL   C42423466   7.361   5.918   4.818  0.0376 -0.0671 -0.2454
   42MOL   O42523467   7.335   5.956   4.686  0.1459  0.2440  0.5242
   42MOL   C42623468   7.507   5.942   4.852 -0.2699 -0.7089  0.1408
   42MOL   C42723469   7.554   5.875   4.991 -0.1955 -0.6757  0.4315
   42MOL   C42823470   0.073   5.882   5.012  0.5798 -0.0178  0.2295
   42MOL   O42923471   0.084   5.840   5.148 -0.3935 -0.2890  0.5622
   42MOL   C43023472   0.140   6.020   4.980  0.0261 -0.1731  0.0748
   42MOL   C43123473   0.293   5.995   4.965  0.1378 -0.3542  0.3719
   42MOL   C43223474   0.077   6.091   4.861 -0.0948  0.1035 -0.4220
   42MOL   C43323475   7.553   6.092   4.849  0.6067  0.3270 -0.3605
   42MOL   H43423476   7.310   6.052   4.987  1.2024 -0.5928  0.1311
   42MOL   H43523477   7.174   6.013   4.882 -0.9886  0.3807  0.9577
   42MOL   H43623478   7.360   5.809   4.815  3.7524 -0.1422 -2.8838
   42MOL   H43723479   7.411   6.011   4.676  0.0285  0.1365 -1.0718
   42MOL   H43823480   7.562   5.886   4.776 -0.0950 -2.3348  1.4273
   42MOL   H43923481   7.509   5.939   5.067 -2.1944 -0.1469 -1.1593
   42MOL   H44023482   7.512   5.775   4.995  0.6075 -1.0565 -0.4198
   42MOL   H44123483   0.129   5.810   4.951  0.7598 -1.1469  1.6995
   42MOL   H44223484   0.143   5.767   5.142  1.2440  1.1377 -1.2427
   42MOL   H44323485   0.130   6.083   5.069 -1.4795 -1.8034  1.1108
   42MOL   H44423486   0.339   6.094   4.961 -0.6471  0.0435  0.9656
   42MOL   H44523487   0.324   5.931   5.048 -0.2955 -0.6535  0.3054
   42MOL   H44623488   0.115   6.042   4.771 -0.0741 -0.3159 -0.1814
   42MOL   H44723489   0.105   6.197   4.863 -1.2266  0.4200 -0.7796
   42MOL   H44823490   7.525   6.140   4.756 -0.2387 -1.2827 -0.9536
   42MOL   H44923491   7.507   6.152   4.928 -2.0989 -0.2245 -1.4702
   42MOL   O45023492   0.306   5.939   4.843  0.3852 -0.1228  0.3241
   42MOL   C45123493   0.443   5.937   4.786  0.4626  0.4694 -0.8284
   42MOL   C45223494   0.446   5.846   4.658  0.4144 -0.2068  0.0871
   42MOL   O45323495   0.390   5.918   4.555 -0.2357 -0.2416  0.5719
   42MOL   C45423496   0.585   5.795   4.625  0.3089  0.1086  0.7735
   42MOL   C45523497   0.632   5.686   4.721 -0.4141  0.2012  0.0482
   42MOL   C45623498   0.774   5.634   4.677 -0.5720  0.2311  0.1177
   42MOL   O45723499   0.799   5.520   4.770  1.0187 -0.3693 -0.2181
   42MOL   C45823500   0.877   5.743   4.689 -0.2652  0.1328  0.3817
   42MOL   C45923501   1.021   5.696   4.653 -0.6694 -0.2114  0.4417
   42MOL   C46023502   0.834   5.855   4.586 -0.4737 -0.1836 -0.0473
   42MOL   C46123503   0.694   5.905   4.626 -0.0954 -0.0828  0.0376
   42MOL   H46223504   0.519   5.912   4.860 -0.5173 -2.3902 -0.7114
   42MOL   H46323505   0.462   6.043   4.771  0.7192  0.5821  0.2585
   42MOL   H46423506   0.379   5.763   4.680  1.0254 -0.5339  0.7066
   42MOL   H46523507   0.303   5.945   4.580 -0.7881 -2.8902  1.7189
   42MOL   H46623508   0.584   5.753   4.524 -1.4618 -0.2678  0.9398
   42MOL   H46723509   0.633   5.736   4.818 -1.6438  0.4082 -0.0388
   42MOL   H46823510   0.560   5.604   4.719 -0.6684  0.4395 -2.7786
   42MOL   H46923511   0.780   5.591   4.577  2.6707 -1.7030  1.0627
   42MOL   H47023512   0.771   5.555   4.853 -0.4993  1.4283 -1.4291
   42MOL   H47123513   0.873   5.782   4.791 -0.8166  0.0776  0.3781
   42MOL   H47223514   1.051   5.617   4.721  0.1199  0.2855  0.6717
   42MOL   H47323515   1.025   5.658   4.551  1.3130  1.8244 -0.2739
   42MOL   H47423516   0.835   5.802   4.491  0.9882 -0.2096 -0.0228
   42MOL   H47523517   0.910   5.933   4.586  0.4147 -1.0245 -1.8782
   42MOL   H47623518   0.662   5.990   4.567 -0.6995 -0.4937 -0.2189
   42MOL   H47723519   0.706   5.953   4.723 -0.1921 -1.3347  0.6906
   42MOL   O47823520   1.101   5.811   4.669 -0.2287 -0.2514  0.4849
   42MOL   C47923521   1.241   5.789   4.659  0.4961 -0.4162  0.2327
   42MOL   C48023522   1.302   5.899   4.746 -0.2235  1.1834 -0.7332
   42MOL   O48123523   1.237   5.882   4.868 -0.3592 -0.8626  0.9060
   42MOL   C48223524   1.453   5.890   4.769 -0.3548  0.3660  0.1841
   42MOL   C48323525   1.508   6.013   4.858  0.2962  0.8839 -0.1355
   42MOL   C48423526   1.661   6.035   4.863  0.4008  0.4616 -0.2058
   42MOL   O48523527   1.679   6.166   4.925  0.7052  0.1604 -0.3191
   42MOL   C48623528   1.722   6.032   4.724 -0.0306  0.1946 -0.3156
   42MOL   C48723529   1.874   6.048   4.735 -0.1288 -0.3148 -0.2669
   42MOL   C48823530   1.681   5.898   4.655 -0.4435 -0.6564 -0.5449
   42MOL   C48923531   1.530   5.889   4.640 -0.3412 -0.4548 -0.5088
   42MOL   H49023532   1.272   5.796   4.554  2.2105  1.1357  0.8216
   42MOL   H49123533   1.261   5.686   4.689 -2.2964 -1.4616 -1.2373
   42MOL   H49223534   1.273   5.997   4.709 -0.6371  0.9525 -1.0362
   42MOL   H49323535   1.147   5.874   4.840 -0.5166  0.6775  0.8937
   42MOL   H49423536   1.466   5.798   4.826 -3.0161  0.8553  1.6969
   42MOL   H49523537   1.458   6.102   4.819  1.8212  1.6903 -0.3185
   42MOL   H49623538   1.477   6.002   4.962  3.7975 -0.7680  0.8138
   42MOL   H49723539   1.697   5.949   4.918  0.0952 -0.3333 -1.2440
   42MOL   H49823540   1.647   6.167   5.014  0.1305 -1.2350 -0.5041
   42MOL   H49923541   1.689   6.112   4.658 -0.9834  0.3293  0.3057
   42MOL   H50023542   1.888   6.149   4.771 -1.6735 -0.8138  1.8636
   42MOL   H50123543   1.920   5.980   4.806 -2.2073 -0.8960  0.5551
   42MOL   H50223544   1.720   5.818   4.718 -0.7146 -1.2492 -1.1229
   42MOL   H50323545   1.719   5.889   4.553  0.5514 -1.7373 -0.0853
   42MOL   H50423546   1.513   5.796   4.585  0.3359 -0.0826 -1.3638
   42MOL   H50523547   1.487   5.970   4.582  0.0604 -0.9623 -1.5376
   42MOL   O50623548   1.928   6.031   4.603  0.6567 -0.1480 -0.0413
   42MOL   C50723549   1.996   5.906   4.577  0.0358 -0.7834 -0.5780
   42MOL   C50823550   2.049   5.904   4.429  0.0201  0.1989  0.2667
   42MOL   O50923551   1.951   5.871   4.329  0.1949  0.1281 -0.5279
   42MOL   C51023552   2.150   6.020   4.386  0.6118 -0.3917  0.0531
   42MOL   C51123553   2.069   6.154   4.361 -0.3009 -0.2573 -0.0717
   42MOL   C51223554   2.175   6.265   4.314  0.0279  0.1269  0.1424
   42MOL   O51323555   2.102   6.381   4.288 -0.1196 -0.3798  0.1254
   42MOL   C51423556   2.249   6.215   4.185 -0.3275  0.9419 -0.2051
   42MOL   C51523557   2.330   6.330   4.122 -0.0600  0.1095  0.0230
   42MOL   C51623558   2.330   6.083   4.220 -0.0811  0.2681 -0.1766
   42MOL   C51723559   2.227   5.976   4.254  0.0254 -0.1418 -0.8703
   42MOL   H51823560   1.927   5.825   4.601 -1.6260  0.7846  0.0496
   42MOL   H51923561   2.079   5.901   4.648 -0.4960 -2.4606 -0.0443
   42MOL   H52023562   2.107   5.812   4.436 -0.3681  0.1529  3.4799
   42MOL   H52123563   1.892   5.944   4.320 -0.2023 -0.3260 -1.7176
   42MOL   H52223564   2.208   6.049   4.473  1.4614  2.6928 -1.4692
   42MOL   H52323565   1.995   6.144   4.282 -0.3524 -0.8272  0.0439
   42MOL   H52423566   2.020   6.188   4.453  0.8085  0.9518  0.0958
   42MOL   H52523567   2.244   6.293   4.393  1.2874 -0.3088 -0.8016
   42MOL   H52623568   2.040   6.362   4.219  0.5615  0.5531 -0.7673
   42MOL   H52723569   2.179   6.177   4.111 -3.6021  2.5117  2.0176
   42MOL   H52823570   2.272   6.422   4.119 -0.1242  0.0813  0.4711
   42MOL   H52923571   2.421   6.341   4.180  0.1109  0.8681 -0.3765
   42MOL   H53023572   2.404   6.093   4.299 -0.5130  0.8923  0.1515
   42MOL   H53123573   2.395   6.045   4.140  1.0142 -1.7599  1.6348
   42MOL   H53223574   2.267   5.875   4.264  0.4531  0.0616 -0.5101
   42MOL   H53323575   2.165   5.966   4.164  0.3212  0.8833 -1.1982
   42MOL   O53423576   2.377   6.288   3.993 -0.1635  0.0989 -0.0458
   42MOL   C53523577   2.447   6.385   3.921 -0.2854 -0.8093  0.3914
   42MOL   C53623578   2.422   6.335   3.777 -0.2318  0.0556 -0.4120
   42MOL   O53723579   2.286   6.359   3.745 -0.4057 -0.1146 -0.2950
   42MOL   C53823580   2.495   6.411   3.671 -0.3969  0.1162  0.1463
   42MOL   C53923581   2.463   6.367   3.527 -0.0370 -0.8528 -0.1954
   42MOL   C54023582   2.539   6.457   3.423  0.2165  0.7697  0.2447
   42MOL   O54123583   2.515   6.402   3.295  0.5753  0.1781  0.5082
   42MOL   C54223584   2.690   6.474   3.453 -0.3735 -0.0084 -0.3217
   42MOL   C54323585   2.752   6.581   3.358 -0.5369 -0.5518 -0.8808
   42MOL   C54423586   2.719   6.505   3.599  0.1091 -0.0708  0.4502
   42MOL   C54523587   2.650   6.412   3.695  0.1731  0.2400  0.8239
   42MOL   H54623588   2.549   6.375   3.957 -0.2424 -0.3094  0.4121
   42MOL   H54723589   2.413   6.488   3.928 -0.6651 -0.8365 -0.9587
   42MOL   H54823590   2.444   6.228   3.773 -0.6459 -0.0895  1.1479
   42MOL   H54923591   2.237   6.320   3.816 -0.3383  1.7238  0.8115
   42MOL   H55023592   2.465   6.515   3.676 -0.1282  0.1382  1.4654
   42MOL   H55123593   2.497   6.266   3.502 -0.9137 -1.7624  2.1061
   42MOL   H55223594   2.357   6.371   3.505 -0.6064  0.3556  2.5010
   42MOL   H55323595   2.491   6.555   3.424 -0.2672  0.5535 -1.0723
   42MOL   H55423596   2.532   6.469   3.230 -1.3627  0.3144  0.0958
   42MOL   H55523597   2.742   6.381   3.433 -1.0253 -0.2583 -0.8765
   42MOL   H55623598   2.717   6.679   3.389  0.0316 -1.0701  1.4796
   42MOL   H55723599   2.859   6.576   3.341 -0.2742  1.5041  0.0656
   42MOL   H55823600   2.684   6.602   3.637 -0.4493  0.2382 -0.8452
   42MOL   H55923601   2.827   6.504   3.612  0.3820 -1.4205 -1.7031
   42MOL   H56023602   2.684   6.449   3.791 -0.6806  1.6541  0.6094
   42MOL   H56123603   2.696   6.314   3.683 -1.1634 -0.0958 -2.1726
   42MOL   H56223604   2.718   6.576   3.254 -1.3714 -2.5944 -0.5494
   43MOL     O123605   0.386   0.978   4.474 -0.0518  0.4872  0.3210
   43MOL     C223606   0.498   0.905   4.513  0.1592  0.2624 -0.1522
   43MOL     C323607   0.547   0.849   4.378  0.7958 -1.1282  0.5506
   43MOL     O423608   0.559   0.951   4.275  0.6677 -0.0360  0.1612
   43MOL     C523609   0.678   0.764   4.381  0.7542  0.2033  0.2309
   43MOL     C623610   0.729   0.732   4.240 -0.3685 -1.1630 -0.0558
   43MOL     C723611   0.843   0.639   4.243 -0.2250 -0.2065 -0.2072
   43MOL     O823612   0.872   0.601   4.115 -0.2363 -0.0445  0.1117
   43MOL     C923613   0.818   0.519   4.335 -0.1606  0.7063 -0.7888
   43MOL    C1023614   0.949   0.437   4.328  0.1001 -0.6478  0.4748
   43MOL    C1123615   0.795   0.558   4.478  0.2670  0.2060 -0.0560
   43MOL    C1223616   0.669   0.642   4.478  0.0295 -0.4349 -0.0935
   43MOL    H1323617   0.469   0.840   4.596 -1.0567 -0.3608 -1.0469
   43MOL    H1423618   0.569   0.976   4.556 -1.2397  2.0533 -0.7269
   43MOL    H1523619   0.480   0.772   4.341  0.9005 -0.3895 -1.2691
   43MOL    H1623620   0.551   0.909   4.190 -0.1938  0.0606  0.1957
   43MOL    H1723621   0.750   0.819   4.440 -1.9083  1.1937  2.6938
   43MOL    H1823622   0.644   0.702   4.178 -0.0557  0.4065 -1.2980
   43MOL    H1923623   0.765   0.820   4.186 -0.4536 -1.6121 -0.8534
   43MOL    H2023624   0.930   0.694   4.278 -1.3938  1.3387  0.3256
   43MOL    H2123625   0.803   0.546   4.079 -1.3233  0.7970  0.8933
   43MOL    H2223626   0.737   0.462   4.290 -1.2968 -0.2190  2.3034
   43MOL    H2323627   0.974   0.414   4.225 -1.1470 -2.2431  0.5162
   43MOL    H2423628   1.033   0.488   4.375 -0.9128 -0.2538  1.8882
   43MOL    H2523629   0.877   0.624   4.508  0.2888 -0.2015  0.7862
   43MOL    H2623630   0.786   0.473   4.546  1.4224  0.5370  0.5373
   43MOL    H2723631   0.647   0.668   4.581  2.0759  3.9121 -0.6348
   43MOL    H2823632   0.581   0.584   4.451  0.6525 -1.4625  0.0717
   43MOL    H2923633   0.404   1.009   4.387 -3.7116 -0.7162 -0.9317
   43MOL    O3023634   0.935   0.311   4.401  0.1865  0.6952 -0.1818
   43MOL    C3123635   1.054   0.231   4.376  0.2313 -0.1258 -0.3353
   43MOL    C3223636   1.016   0.084   4.373 -0.5439  0.8789 -0.2642
   43MOL    O3323637   1.132   0.009   4.331  0.4829  0.5180 -0.5807
   43MOL    C3423638   0.985   0.016   4.512 -0.0374  0.0678  0.5755
   43MOL    C3523639   0.947   7.502   4.505  0.4499  0.1680  0.2427
   43MOL    C3623640   0.909   7.440   4.639  0.4771  0.1882  0.9002
   43MOL    O3723641   0.894   7.296   4.611 -0.0328 -0.4592 -0.2183
   43MOL    C3823642   0.786   7.519   4.695 -0.2655 -0.2049 -0.4503
   43MOL    C3923643   0.740   7.462   4.838 -0.7885 -0.2314 -0.0619
   43MOL    C4023644   0.825   0.037   4.715  0.5175  0.5354  0.2936
   43MOL    C4123645   0.871   0.092   4.582  0.0256 -0.7654 -0.2115
   43MOL    H4223646   1.133   0.235   4.451 -0.1230  0.8763 -0.0106
   43MOL    H4323647   1.105   0.263   4.284  0.1702  1.0725  0.0327
   43MOL    H4423648   0.942   0.056   4.297  2.6881 -2.0249 -2.5351
   43MOL    H4523649   1.095   7.567   4.281  1.4664  1.4048 -2.6387
   43MOL    H4623650   1.075   0.021   4.573 -0.7065 -0.4092  1.6218
   43MOL    H4723651   0.865   7.504   4.433 -0.4462 -0.5109  1.2424
   43MOL    H4823652   1.031   7.456   4.452  1.6320 -0.3567  2.5264
   43MOL    H4923653   0.990   7.463   4.709  2.4687 -1.5945 -0.7573
   43MOL    H5023654   0.883   7.252   4.694  2.3044  0.5388  0.6562
   43MOL    H5123655   0.702   7.514   4.625 -0.7831 -1.3045  0.2415
   43MOL    H5223656   0.661   7.528   4.874 -0.4452  0.7190 -1.0510
   43MOL    H5323657   0.691   7.366   4.824  1.0503 -1.1850 -0.0244
   43MOL    H5423658   0.909   0.043   4.784 -0.5874 -2.6669  2.0200
   43MOL    H5523659   0.734   0.070   4.766 -2.5758 -4.4372 -1.6736
   43MOL    H5623660   0.895   0.196   4.603 -2.2353 -0.2417 -0.0621
   43MOL    H5723661   0.790   0.107   4.512 -0.7909  0.8924  1.0565
   43MOL    O5823662   0.844   7.447   4.928 -0.1663  0.0225  0.1901
   43MOL    C5923663   0.812   7.436   5.063  0.8359  0.1841  0.5203
   43MOL    C6023664   0.923   7.359   5.134 -0.7023  0.2697 -0.0528
   43MOL    O6123665   0.921   7.227   5.091 -0.1635 -0.5172 -0.0812
   43MOL    C6223666   1.068   7.416   5.150 -0.4122 -0.1436  0.0160
   43MOL    C6323667   1.088   7.567   5.194  0.4438  0.1022  0.4820
   43MOL    C6423668   1.229   7.618   5.211  0.1163 -0.3347 -0.9962
   43MOL    O6523669   1.228   0.126   5.244 -0.5831  0.7677 -0.1438
   43MOL    C6623670   1.318   7.586   5.091 -0.1217 -0.0399 -0.0983
   43MOL    C6723671   1.465   0.007   5.118 -0.5656  0.1300  0.6597
   43MOL    C6823672   1.299   7.439   5.066 -0.0135 -0.3021  0.2685
   43MOL    C6923673   1.156   7.396   5.025  0.0969  0.3441 -0.4736
   43MOL    H7023674   0.717   7.383   5.070  1.5343 -0.9147  1.7516
   43MOL    H7123675   0.805   7.533   5.113 -1.0418 -0.0618  0.7684
   43MOL    H7223676   0.893   7.354   5.239 -0.1686  0.4837  0.1117
   43MOL    H7323677   0.900   7.240   5.000 -0.5096 -0.3404  0.0221
   43MOL    H7423678   1.106   7.366   5.239 -1.9702  1.1356  1.4532
   43MOL    H7523679   1.032   7.629   5.125  0.1879 -0.7471 -0.0854
   43MOL    H7623680   1.036   7.574   5.290 -3.7785 -3.0315 -1.4119
   43MOL    H7723681   1.275   7.561   5.291 -1.0290  0.6680  0.4135
   43MOL    H7823682   1.149   0.130   5.295 -1.1742 -2.5506 -0.7325
   43MOL    H7923683   1.281   0.002   5.000 -1.1582 -2.5906 -1.0079
   43MOL    H8023684   1.484   0.114   5.121 -1.4518  0.3648 -1.4030
   43MOL    H8123685   1.508   7.606   5.213 -0.5115  0.1883  0.6544
   43MOL    H8223686   1.338   7.379   5.149  0.3222 -1.3010 -0.5916
   43MOL    H8323687   1.373   7.409   4.991  1.6387  0.3858  1.5944
   43MOL    H8423688   1.150   7.293   4.990  2.9211  0.6709 -2.0800
   43MOL    H8523689   1.111   7.455   4.945 -2.4465 -1.1482 -0.2042
   43MOL    O8623690   1.554   7.586   5.024  0.5600  0.7005  0.0382
   43MOL    C8723691   1.674   0.029   5.015  0.2626  0.4128 -0.4731
   43MOL    C8823692   1.743   7.598   4.898 -0.0581  0.0986 -0.6880
   43MOL    O8923693   1.655   7.620   4.795 -0.3837  0.6236  0.2633
   43MOL    C9023694   1.879   0.036   4.858 -0.4842 -0.3835 -0.2577
   43MOL    C9123695   1.988   7.620   4.966 -0.5983  0.3246  0.1668
   43MOL    C9223696   2.127   0.062   4.938  0.0645  0.4296  0.2954
   43MOL    O9323697   2.211   0.041   5.043  0.2991 -0.4438  0.4866
   43MOL    C9423698   2.120   0.220   4.904  0.6071  0.4340 -0.2576
   43MOL    C9523699   2.250   0.284   4.858  0.3004  0.9878 -0.2094
   43MOL    C9623700   2.009   0.249   4.802  0.2731  0.0622  0.3478
   43MOL    C9723701   1.873   0.189   4.848 -1.0202 -0.2307 -0.4519
   43MOL    H9823702   1.722   0.017   5.112 -0.0525  3.2224  0.0926
   43MOL    H9923703   1.655   0.136   5.000 -0.6409  0.0033 -2.3489
   43MOL   H10023704   1.762   7.494   4.924  1.6402  0.9997  1.8030
   43MOL   H10123705   1.570   7.602   4.830 -0.1255  0.1249  0.6371
   43MOL   H10223706   1.922   7.621   4.769  1.1518 -1.4115  1.0198
   43MOL   H10323707   1.959   0.012   5.069  2.7880 -0.2435  1.2859
   43MOL   H10423708   2.002   7.512   4.963  1.6111  0.6048 -0.1167
   43MOL   H10523709   2.180   0.016   4.854 -0.1829 -1.4679  1.1462
   43MOL   H10623710   2.299   0.066   5.017 -0.9965  0.2485 -3.6532
   43MOL   H10723711   2.072   0.256   4.995 -1.5371 -1.7076 -0.4945
   43MOL   H10823712   2.281   0.245   4.761 -2.2636  1.9042 -1.4678
   43MOL   H10923713   2.244   0.391   4.840 -0.8404  0.9231 -0.2522
   43MOL   H11023714   2.035   0.215   4.702 -2.1095 -0.2699 -0.1693
   43MOL   H11123715   2.015   0.355   4.781 -0.1893  0.5414  2.4888
   43MOL   H11223716   1.796   0.223   4.779  0.2556  0.4999 -1.5500
   43MOL   H11323717   1.852   0.237   4.943  1.7393  0.9231 -0.3830
   43MOL   O11423718   2.355   0.256   4.946 -0.0577 -0.2879 -0.1688
   43MOL   C11523719   2.484   0.292   4.900 -0.6507 -0.3992 -0.2608
   43MOL   C11623720   2.593   0.264   5.009 -0.2008  0.2628  0.3865
   43MOL   O11723721   2.708   0.206   4.956 -0.3657 -0.4213  0.4398
   43MOL   C11823722   2.636   0.397   5.081  0.2175  0.1253 -0.0022
   43MOL   C11923723   2.716   0.492   4.991  0.7464  0.1604  0.5675
   43MOL   C12023724   2.756   0.623   5.051 -0.1092  0.1764  0.3535
   43MOL   O12123725   2.818   0.703   4.955  0.3072 -0.6470  0.3359
   43MOL   C12223726   2.842   0.596   5.171 -0.0668 -0.3192  0.1941
   43MOL   C12323727   2.875   0.729   5.247  0.2738 -0.1435 -0.1390
   43MOL   C12423728   2.771   0.501   5.262 -0.3643  0.3630 -0.1927
   43MOL   C12523729   2.732   0.365   5.199 -0.3585  0.3727  0.1321
   43MOL   H12623730   2.470   0.394   4.865 -0.3332 -0.0114  0.7085
   43MOL   H12723731   2.513   0.228   4.817 -1.5096 -2.8820  1.2646
   43MOL   H12823732   2.547   0.197   5.082 -1.5920 -0.6628 -1.2989
   43MOL   H12923733   2.683   0.120   4.925 -0.1188 -0.5564  0.6105
   43MOL   H13023734   2.546   0.446   5.118  1.3709  0.7871  1.9819
   43MOL   H13123735   2.803   0.437   4.955  1.3996  0.5572  1.5212
   43MOL   H13223736   2.656   0.500   4.900  1.5641  2.9121  0.2068
   43MOL   H13323737   2.668   0.681   5.079  0.2941  1.5992 -1.2294
   43MOL   H13423738   2.896   0.658   4.927  2.0358  2.6124 -0.2561
   43MOL   H13523739   2.936   0.552   5.139 -0.7029 -1.8617  0.3668
   43MOL   H13623740   2.946   0.703   5.325 -0.5423 -0.4430  0.5157
   43MOL   H13723741   2.927   0.798   5.181  2.5209 -0.1160  1.6037
   43MOL   H13823742   2.675   0.547   5.282  0.4230  1.9503 -0.0119
   43MOL   H13923743   2.823   0.494   5.358 -1.7661  2.2735  0.7311
   43MOL   H14023744   2.677   0.292   5.259 -0.7988 -0.9177 -1.7950
   43MOL   H14123745   2.820   0.309   5.170  0.3041 -0.4969  3.5623
   43MOL   O14223746   2.767   0.776   5.324  0.4669  0.0367 -0.2886
   43MOL   C14323747   2.806   0.889   5.396  0.1917 -0.8845 -0.3066
   43MOL   C14423748   2.675   0.923   5.468 -0.6688 -0.1832  0.0192
   43MOL   O14523749   2.620   0.801   5.519 -0.3233 -0.0640  0.0888
   43MOL   C14623750   2.673   1.019   5.589  0.2784 -0.0332  0.1782
   43MOL   C14723751   2.719   1.161   5.543 -0.3370  0.2974 -0.1306
   43MOL   C14823752   2.716   1.275   5.649  0.1965 -0.2968 -0.5940
   43MOL   O14923753   2.772   1.392   5.590  0.1808  0.0203  0.3458
   43MOL   C15023754   2.802   1.233   5.769 -0.4857 -0.5123 -0.1627
   43MOL   C15123755   2.806   1.333   5.886  0.8483  0.2872  0.2365
   43MOL   C15223756   2.773   1.088   5.813 -0.6755  0.3980 -0.3450
   43MOL   C15323757   2.767   0.984   5.709  0.4906 -0.3204 -0.8424
   43MOL   H15423758   2.832   0.973   5.331 -1.8333  1.0988  1.3556
   43MOL   H15523759   2.889   0.864   5.462  0.7860  2.2542  0.2321
   43MOL   H15623760   2.602   0.960   5.397 -0.5366  0.2774  0.1216
   43MOL   H15723761   2.652   0.737   5.458  0.1701 -1.7881  2.0731
   43MOL   H15823762   2.567   1.031   5.615  0.3511 -1.9734  1.4358
   43MOL   H15923763   2.824   1.142   5.521 -0.4737  1.9551 -2.3790
   43MOL   H16023764   2.681   1.188   5.445  2.1765  1.5340 -0.7888
   43MOL   H16123765   2.612   1.297   5.672  0.4565 -0.4254  0.7416
   43MOL   H16223766   2.741   1.468   5.637 -0.3572 -0.1552  0.2800
   43MOL   H16323767   2.904   1.227   5.732  0.7755  0.4309  2.9480
   43MOL   H16423768   2.868   1.291   5.965 -1.3376  1.5467  2.6689
   43MOL   H16523769   2.870   1.414   5.850 -0.9135  1.7452  0.3391
   43MOL   H16623770   2.676   1.081   5.862 -1.1485 -4.6792 -1.8005
   43MOL   H16723771   2.854   1.058   5.880  0.5488 -1.6346 -2.6742
   43MOL   H16823772   2.741   0.883   5.741 -1.1935  0.3462 -0.0556
   43MOL   H16923773   2.866   0.971   5.665  0.3816  0.9727 -1.4998
   43MOL   O17023774   2.677   1.360   5.937 -0.2687 -0.1617  0.3075
   43MOL   C17123775   2.686   1.445   6.051 -1.0179  0.2326  0.1172
   43MOL   C17223776   2.556   1.458   6.131  0.5052  0.4270  0.0787
   43MOL   O17323777   2.528   1.350   6.210  0.0318 -0.4316 -0.6197
   43MOL   C17423778   2.564   1.588   6.222 -0.3392 -0.5586  0.3264
   43MOL   C17523779   2.638   1.585   6.358  0.3731  0.2824  0.4731
   43MOL   C17623780   2.642   1.721   6.435  0.3949  0.6688  0.7561
   43MOL   O17723781   2.733   1.723   6.543  0.1836  0.0459  1.0233
   43MOL   C17823782   2.497   1.767   6.461 -0.0501 -0.4905  0.8315
   43MOL   C17923783   2.488   1.903   6.536  0.4362  0.1368 -0.5053
   43MOL   C18023784   2.422   1.777   6.328 -0.2361  0.4070 -0.0520
   43MOL   C18123785   2.423   1.647   6.251  0.1396 -0.0537 -0.0928
   43MOL   H18223786   2.733   1.538   6.019 -0.5828 -0.2808 -0.7549
   43MOL   H18323787   2.756   1.402   6.122  0.5616 -0.0162 -1.5557
   43MOL   H18423788   2.470   1.479   6.066  1.4064 -1.1583 -1.6691
   43MOL   H18523789   2.495   1.281   6.154 -0.6659 -1.6572  1.2511
   43MOL   H18623790   2.616   1.666   6.167  0.2551 -0.4053  1.0889
   43MOL   H18723791   2.580   1.516   6.419 -2.0400  0.5403 -1.4753
   43MOL   H18823792   2.741   1.554   6.341  0.0483 -1.2732  1.2443
   43MOL   H18923793   2.686   1.794   6.367 -0.4109 -0.4750 -1.0492
   43MOL   H19023794   2.712   1.659   6.610 -1.6784 -0.5361 -0.0767
   43MOL   H19123795   2.455   1.690   6.525 -3.5087  1.1016  0.6064
   43MOL   H19223796   2.561   1.894   6.616  0.3552 -1.6020 -0.6100
   43MOL   H19323797   2.522   1.985   6.472 -0.9353  0.2761 -1.0641
   43MOL   H19423798   2.467   1.858   6.270  1.9606 -0.3902  0.4734
   43MOL   H19523799   2.322   1.810   6.355 -0.8942 -1.2784 -0.3268
   43MOL   H19623800   2.373   1.658   6.155 -0.0704 -0.2903 -0.0101
   43MOL   H19723801   2.376   1.560   6.299  0.1369 -1.1967 -2.1146
   43MOL   O19823802   2.358   1.925   6.605 -0.2789  0.3879  0.3699
   43MOL   C19923803   2.358   2.065   6.649 -0.4574 -0.3089  0.6114
   43MOL   C20023804   2.262   2.092   6.765 -0.5115 -0.6859 -0.5997
   43MOL   O20123805   2.145   2.039   6.718  0.6717  0.1993 -0.9144
   43MOL   C20223806   2.307   2.029   6.905  0.2422 -0.1883  0.2273
   43MOL   C20323807   2.189   2.042   7.001  0.1064  0.4371  0.6163
   43MOL   C20423808   2.226   1.984   7.138  0.3344  0.2225  0.0308
   43MOL   O20523809   2.116   2.001   7.220  0.2209 -0.2411  0.2255
   43MOL   C20623810   2.359   2.037   7.195  0.4474 -0.1911  0.0081
   43MOL   C20723811   2.408   1.950   7.316  0.0477 -0.4234 -0.2306
   43MOL   C20823812   2.470   2.028   7.089 -0.2343 -0.5034 -0.6560
   43MOL   C20923813   2.437   2.094   6.957  0.4101  0.1339 -0.0201
   43MOL   H21023814   2.327   2.135   6.571  0.5896  1.3386  1.6456
   43MOL   H21123815   2.453   2.100   6.688 -0.4562  0.0183  0.3152
   43MOL   H21223816   2.244   2.200   6.765 -1.1260 -0.7865 -0.6112
   43MOL   H21323817   2.177   1.961   6.676 -0.2680  0.7328 -2.6633
   43MOL   H21423818   2.322   1.923   6.882  0.2437  0.5618 -3.5710
   43MOL   H21523819   2.152   2.143   6.990 -1.2893  0.1157  2.0798
   43MOL   H21623820   2.102   1.988   6.963 -1.2119  2.1994  1.1126
   43MOL   H21723821   2.235   1.876   7.127  2.9919  0.5132 -1.0032
   43MOL   H21823822   2.101   1.923   7.271 -1.5110 -0.1662 -0.1410
   43MOL   H21923823   2.361   2.140   7.231  0.0822 -0.4324  0.7271
   43MOL   H22023824   2.337   1.967   7.397  0.1148 -0.5072 -0.1540
   43MOL   H22123825   2.404   1.844   7.291  1.2271 -0.4706 -0.2343
   43MOL   H22223826   2.507   1.926   7.080 -1.2233 -0.8776 -0.5290
   43MOL   H22323827   2.559   2.083   7.118 -0.3029  0.6160 -2.4887
   43MOL   H22423828   2.523   2.081   6.891 -2.0289 -2.6182 -2.7848
   43MOL   H22523829   2.421   2.199   6.981  3.2057  0.5312  0.3008
   43MOL   O22623830   2.538   1.986   7.354  0.3806 -0.2491 -0.3642
   43MOL   C22723831   2.619   1.871   7.390  0.0586  0.4345  0.2686
   43MOL   C22823832   2.754   1.923   7.457  0.0561 -0.3480  0.5006
   43MOL   O22923833   2.816   2.008   7.357 -0.5682 -0.0947  0.4750
   43MOL   C23023834   2.738   1.988   7.594 -0.1653  0.2002  0.4089
   43MOL   C23123835   2.875   2.030   0.032  0.5153  0.3670  0.6115
   43MOL   C23223836   2.856   2.110   0.164  0.6260  0.5499 -0.2625
   43MOL   O23323837   2.984   2.132   0.220 -0.0606 -0.1112  0.2344
   43MOL   C23423838   2.752   2.045   0.262  0.4372  0.6945  0.1975
   43MOL   C23523839   2.712   2.133   0.380  0.2170  0.1910 -1.1280
   43MOL   C23623840   2.632   1.988   0.196  0.6424 -0.4007  0.8085
   43MOL   C23723841   2.658   1.904   0.067  0.6703 -0.3420 -0.7447
   43MOL   H23823842   2.637   1.806   7.303  1.4237 -0.1555  0.9694
   43MOL   H23923843   2.562   1.809   7.459 -0.5650  2.3021  1.4597
   43MOL   H24023844   2.808   1.829   7.458 -2.1554 -1.6626  1.0390
   43MOL   H24123845   2.749   2.053   7.307 -0.4105  1.1767  1.3919
   43MOL   H24223846   2.679   2.078   7.580 -0.6812 -0.0965  0.6617
   43MOL   H24323847   2.919   1.936   0.064  0.3200  0.2357  0.4964
   43MOL   H24423848   2.938   2.083   7.591  0.2694 -0.1792 -0.0214
   43MOL   H24523849   2.814   2.206   0.133 -2.4574 -0.6354  0.1275
   43MOL   H24623850   2.973   2.182   0.300 -2.5569 -0.8703  0.3954
   43MOL   H24723851   2.798   1.953   0.299  0.4219  0.0808 -1.2486
   43MOL   H24823852   2.796   2.174   0.437  0.7430 -1.2736 -0.8289
   43MOL   H24923853   2.665   2.225   0.343 -0.7043  1.4930  3.0035
   43MOL   H25023854   2.554   2.061   0.174  0.9444  0.0546  1.2367
   43MOL   H25123855   2.572   1.929   0.265  0.5148 -3.1304 -1.5112
   43MOL   H25223856   2.563   1.870   0.024 -0.1513  0.7202  0.1968
   43MOL   H25323857   2.719   1.821   0.101  0.0185 -0.7998 -0.6898
   43MOL   O25423858   2.632   2.059   0.469  0.0784  0.0198 -0.0405
   43MOL   C25523859   2.542   2.135   0.552 -0.1707 -0.1715  0.2650
   43MOL   C25623860   2.406   2.146   0.477  0.2683 -0.4061  0.8806
   43MOL   O25723861   2.327   2.031   0.508 -0.0536 -0.3708 -0.2149
   43MOL   C25823862   2.328   2.274   0.527  0.1716 -0.1649  0.2396
   43MOL   C25923863   2.302   2.270   0.675  0.7520 -0.6656  0.0655
   43MOL   C26023864   2.237   2.399   0.729  0.1737 -0.1658  0.6085
   43MOL   O26123865   2.234   2.392   0.869  0.3668  0.4565 -0.4612
   43MOL   C26223866   2.102   2.428   0.658  0.7329 -0.8180  0.2695
   43MOL   C26323867   2.029   2.557   0.695  0.6611 -0.6873 -0.4396
   43MOL   C26423868   2.113   2.429   0.502  0.0334  0.2850 -0.3372
   43MOL   C26523869   2.197   2.311   0.448 -0.7191 -0.2946  0.5453
   43MOL   H26623870   2.584   2.234   0.569 -0.7016  0.2890 -0.9877
   43MOL   H26723871   2.526   2.098   0.653 -3.4925  0.8718  0.1845
   43MOL   H26823872   2.416   2.146   0.369 -0.7074  1.7748  0.7538
   43MOL   H26923873   2.311   1.983   0.428 -0.0389 -0.9410  0.1193
   43MOL   H27023874   2.395   2.357   0.507  0.9170 -0.8525 -0.1397
   43MOL   H27123875   2.260   2.174   0.704  1.5493 -0.7645  0.9226
   43MOL   H27223876   2.402   2.274   0.720  1.4718 -0.8991 -1.4771
   43MOL   H27323877   2.305   2.483   0.713 -0.1393  0.0433  0.3820
   43MOL   H27423878   2.316   2.358   0.902 -0.5520 -1.2900  0.0765
   43MOL   H27523879   2.038   2.345   0.687  0.9182 -0.8791  0.5106
   43MOL   H27623880   2.024   2.560   0.804 -0.2604  1.5962 -0.4989
   43MOL   H27723881   2.093   2.643   0.676 -0.4243  0.4220  0.7628
   43MOL   H27823882   2.149   2.521   0.457 -0.8639  1.1654  0.7251
   43MOL   H27923883   2.015   2.439   0.457  0.8191 -1.0238 -2.4079
   43MOL   H28023884   2.203   2.321   0.339 -1.1326 -0.1633  0.5319
   43MOL   H28123885   2.147   2.214   0.450 -0.3003 -0.5015  0.7521
   43MOL   O28223886   1.899   2.567   0.638 -0.4231  0.2557 -0.2111
   43MOL   C28323887   1.833   2.689   0.677 -0.0291  0.0072 -0.3601
   43MOL   C28423888   1.898   2.816   0.623  0.1852  0.0914  0.1433
   43MOL   O28523889   1.911   2.787   0.484 -0.3074 -0.3056 -0.7203
   43MOL   C28623890   1.824   2.951   0.647  0.2887  0.3187  0.2384
   43MOL   C28723891   1.677   2.961   0.588  0.1771  0.1157  0.0980
   43MOL   C28823892   1.622   3.097   0.629 -0.1500 -0.3399 -0.4278
   43MOL   O28923893   1.495   3.095   0.572 -0.3902  0.5010 -0.1974
   43MOL   C29023894   1.711   3.224   0.601  0.3763  0.3917  0.1558
   43MOL   C29123895   1.658   3.363   0.654 -0.0328  0.6226 -0.1335
   43MOL   C29223896   1.847   3.197   0.654  0.4120  0.1576  0.4581
   43MOL   C29323897   1.914   3.067   0.605  0.9793  0.4424  0.1489
   43MOL   H29423898   1.822   2.689   0.786 -1.0421  1.9671 -0.4345
   43MOL   H29523899   1.730   2.693   0.642  0.3242 -0.1169 -1.4037
   43MOL   H29623900   2.000   2.824   0.659  0.0261  0.3795  0.5405
   43MOL   H29723901   1.910   2.692   0.483  4.6432 -0.4961 -0.3685
   43MOL   H29823902   1.803   2.960   0.754 -0.8484  0.0880  0.0394
   43MOL   H29923903   1.677   2.943   0.481  1.3470 -2.1749  0.4569
   43MOL   H30023904   1.609   2.886   0.627  1.9962 -0.8434  1.4978
   43MOL   H30123905   1.613   3.101   0.738  1.2804  1.0736 -0.3296
   43MOL   H30223906   1.442   3.162   0.614 -0.5412 -0.7244  1.6303
   43MOL   H30323907   1.711   3.219   0.492 -2.6865 -2.4893  0.1902
   43MOL   H30423908   1.552   3.383   0.643 -0.3474  1.1541  3.3788
   43MOL   H30523909   1.665   3.338   0.760 -0.1358  1.3794  0.0523
   43MOL   H30623910   1.850   3.189   0.763 -0.0860 -1.4713  0.3695
   43MOL   H30723911   1.910   3.283   0.632  2.3012 -0.4428  3.2979
   43MOL   H30823912   2.014   3.058   0.648  0.3598  2.0110  1.9789
   43MOL   H30923913   1.924   3.067   0.496 -0.4648 -0.6546  0.0070
   43MOL   O31023914   1.762   3.457   0.629 -0.2537 -0.3491  0.1513
   43MOL   C31123915   1.709   3.583   0.607  0.0124 -0.1697 -0.6655
   43MOL   C31223916   1.816   3.688   0.566  0.2653 -0.0080 -0.0586
   43MOL   O31323917   1.881   3.630   0.459  0.0976  0.6418 -0.2699
   43MOL   C31423918   1.777   3.831   0.517  0.8570  0.1306 -0.3288
   43MOL   C31523919   1.716   3.921   0.632 -0.0292  0.1610 -0.1021
   43MOL   C31623920   1.681   4.065   0.586  0.0898  0.4514 -0.3562
   43MOL   O31723921   1.618   4.127   0.695  0.0745  0.0778  1.1507
   43MOL   C31823922   1.594   4.059   0.459  0.3029 -0.0992 -0.3731
   43MOL   C31923923   1.569   4.201   0.399 -0.0076 -0.0298 -0.6168
   43MOL   C32023924   1.662   3.972   0.348 -0.1624  0.5643 -0.0828
   43MOL   C32123925   1.682   3.823   0.396 -0.1601 -0.1696  0.7587
   43MOL   H32223926   1.666   3.623   0.699  0.1738 -2.6140  0.5186
   43MOL   H32323927   1.627   3.573   0.536 -0.3146 -0.4297 -0.2615
   43MOL   H32423928   1.893   3.699   0.643  0.3878 -1.4709  0.0395
   43MOL   H32523929   1.881   3.540   0.485  4.6393  0.6931  0.3567
   43MOL   H32623930   1.872   3.873   0.484  1.8481 -2.7640 -1.3031
   43MOL   H32723931   1.636   3.863   0.677  0.1921  0.5622  0.8276
   43MOL   H32823932   1.799   3.931   0.703  0.3760 -2.6063 -0.1324
   43MOL   H32923933   1.774   4.118   0.564  0.6250  0.1099  1.0555
   43MOL   H33023934   1.528   4.100   0.700  0.4053 -1.2469  0.0420
   43MOL   H33123935   1.497   4.013   0.482  0.0526  0.8920  0.6296
   43MOL   H33223936   1.523   4.269   0.470 -1.3550 -1.7296  0.1473
   43MOL   H33323937   1.667   4.239   0.369  0.8795 -0.1096  2.1068
   43MOL   H33423938   1.755   4.022   0.322 -0.5413  1.1231 -0.3952
   43MOL   H33523939   1.605   3.968   0.255  0.3608 -0.3910 -0.3700
   43MOL   H33623940   1.719   3.766   0.310 -1.5041  0.9671 -0.6145
   43MOL   H33723941   1.586   3.775   0.413  0.6413 -1.7397  0.9740
   43MOL   O33823942   1.480   4.184   0.293 -0.0115  0.1596 -0.5647
   43MOL   C33923943   1.504   4.265   0.177 -0.2471  0.5326 -0.2281
   43MOL   C34023944   1.448   4.197   0.049 -0.0394 -0.2935 -0.6446
   43MOL   O34123945   1.414   4.295   7.577 -0.0487 -0.2878 -0.1830
   43MOL   C34223946   1.551   4.093   7.625 -0.5278 -0.9657 -0.2540
   43MOL   C34323947   1.693   4.141   7.598 -0.7622  0.5219 -0.4387
   43MOL   C34423948   1.791   4.028   7.560  0.1178  0.1200  0.1124
   43MOL   O34523949   1.921   4.085   7.558  0.2048  0.1992  0.1584
   43MOL   C34623950   1.744   3.956   7.441  0.3636  0.5010  0.4992
   43MOL   C34723951   1.850   3.841   7.410  0.2644  0.3958  0.3131
   43MOL   C34823952   1.590   3.911   7.464  0.2937  0.5855  0.1191
   43MOL   C34923953   1.500   4.029   7.500 -0.3502 -0.4210  0.5235
   43MOL   H35023954   1.609   4.294   0.169 -0.1089  0.5784  1.5732
   43MOL   H35123955   1.453   4.361   0.186  2.3122  1.8622  0.5735
   43MOL   H35223956   1.354   4.145   0.068  0.1162  0.3009  1.9552
   43MOL   H35323957   1.485   4.355   7.562  1.5696 -1.3871  2.5787
   43MOL   H35423958   1.559   4.014   0.071  3.4383  0.1409  0.5869
   43MOL   H35523959   1.694   4.215   7.518  0.8095 -0.3821 -1.2767
   43MOL   H35623960   1.737   4.194   0.053  1.0396 -1.9558  0.2462
   43MOL   H35723961   1.782   3.964   0.019 -1.5216  0.5336  0.2699
   43MOL   H35823962   1.926   4.145   7.484  3.1984 -0.4493 -0.2181
   43MOL   H35923963   1.754   4.016   7.351  1.3005 -0.8160 -0.2890
   43MOL   H36023964   1.947   3.888   7.394  0.4253  0.5236  1.6160
   43MOL   H36123965   1.863   3.762   7.483 -0.1555 -0.6288 -0.7088
   43MOL   H36223966   1.583   3.830   7.537 -2.1770 -0.8317 -1.6086
   43MOL   H36323967   1.549   3.871   7.372 -0.0181  1.4702 -0.1281
   43MOL   H36423968   1.402   3.992   7.531  0.3013 -1.8818  0.8818
   43MOL   H36523969   1.483   4.101   7.420  4.3059  0.4982  0.2293
   43MOL   O36623970   1.823   3.790   7.277  0.9329  0.2050 -0.2024
   43MOL   C36723971   1.744   3.666   7.269 -0.1462  0.3134  0.3323
   43MOL   C36823972   1.678   3.655   7.130 -0.3737 -0.2534 -0.7072
   43MOL   O36923973   1.781   3.642   7.035  0.5124 -0.0229  0.1993
   43MOL   C37023974   1.571   3.542   7.129  0.2425  0.1655  0.2744
   43MOL   C37123975   1.626   3.395   7.151 -0.5307 -0.8931  0.0694
   43MOL   C37223976   1.498   3.312   7.179 -0.2372  0.3107 -0.2058
   43MOL   O37323977   1.550   3.181   7.205 -0.3111 -0.6830  0.0285
   43MOL   C37423978   1.403   3.303   7.059  0.0587  0.6292 -0.3968
   43MOL   C37523979   1.288   3.210   7.094 -0.4820 -0.0467 -0.4331
   43MOL   C37623980   1.357   3.442   7.014  0.8662 -0.1735  0.5380
   43MOL   C37723981   1.481   3.538   7.001  0.4685  0.1598  0.1662
   43MOL   H37823982   1.673   3.660   7.351 -0.7540 -1.3387 -0.2801
   43MOL   H37923983   1.812   3.583   7.289 -0.3563  0.1703  0.4521
   43MOL   H38023984   1.627   3.746   7.102  2.9405  1.7095 -0.6616
   43MOL   H38123985   1.809   3.727   7.006 -1.2731  0.4436 -0.2531
   43MOL   H38223986   1.491   3.569   7.198  1.1726  0.8348  1.1109
   43MOL   H38323987   1.686   3.361   7.067  1.4214 -1.9525  1.8539
   43MOL   H38423988   1.702   3.381   7.228  0.3746 -2.8302 -1.1353
   43MOL   H38523989   1.449   3.340   7.273 -3.6388  1.2031 -2.1639
   43MOL   H38623990   1.504   3.145   7.279  0.5439  0.4849  1.1510
   43MOL   H38723991   1.461   3.273   6.972 -1.6579 -0.5326 -1.1695
   43MOL   H38823992   1.331   3.110   7.107 -2.9580 -1.0285  0.3507
   43MOL   H38923993   1.252   3.249   7.189 -0.9328  1.1220 -1.0712
   43MOL   H39023994   1.281   3.478   7.083 -0.2315 -0.5917 -0.4253
   43MOL   H39123995   1.297   3.431   6.923  0.1260  2.5257  0.6635
   43MOL   H39223996   1.441   3.636   6.976  2.6515  0.9561 -0.3237
   43MOL   H39323997   1.552   3.524   6.919  0.0267 -1.1858  0.0048
   43MOL   O39423998   1.194   3.220   6.995  0.1486  0.8548 -0.3888
   43MOL   C39523999   1.104   3.109   6.999  0.0302  0.7431 -0.2276
   43MOL   C39624000   0.990   3.135   6.899 -0.2759  0.1948  0.1175
   43MOL   O39724001   1.068   3.162   6.784 -0.1430  0.1406  0.2565
   43MOL   C39824002   0.888   3.024   6.860  0.0086  0.3532  0.2654
   43MOL   C39924003   0.768   3.025   6.949  0.5603 -0.2537  0.7795
   43MOL   C40024004   0.672   2.922   6.886  0.6161  0.4721  0.2715
   43MOL   O40124005   0.556   2.918   6.974 -0.1583  0.2018 -0.1465
   43MOL   C40224006   0.726   2.780   6.866  0.0534 -0.4385 -0.1633
   43MOL   C40324007   0.624   2.697   6.788  0.3997  0.1559 -0.1725
   43MOL   C40424008   0.862   2.780   6.793 -0.0705  0.0996  0.0478
   43MOL   C40524009   0.960   2.887   6.846  0.1463  0.5421  0.2020
   43MOL   H40624010   1.056   3.113   7.097  0.9666 -0.7519  0.2992
   43MOL   H40724011   1.161   3.018   6.981 -0.5207  0.5121 -0.8245
   43MOL   H40824012   0.933   3.223   6.928 -0.4096 -0.7049  2.7168
   43MOL   H40924013   1.136   3.218   6.818 -0.6495  1.0379 -0.1639
   43MOL   H41024014   0.862   3.043   6.756  0.9289 -0.9712 -0.2251
   43MOL   H41124015   0.796   3.010   7.053  2.7467  3.0262  0.7466
   43MOL   H41224016   0.721   3.123   6.936 -1.5009 -1.3401 -0.1445
   43MOL   H41324017   0.632   2.962   6.793 -0.2372 -0.1724  0.3564
   43MOL   H41424018   0.504   2.997   6.979  1.8622  1.4739  1.0436
   43MOL   H41524019   0.744   2.729   6.961 -0.4475 -1.6209 -0.6983
   43MOL   H41624020   0.520   2.723   6.811  0.0524  0.1481 -1.6706
   43MOL   H41724021   0.634   2.743   6.690  0.6166 -0.8952 -0.6435
   43MOL   H41824022   0.856   2.801   6.686  1.9569  0.6632  0.0185
   43MOL   H41924023   0.909   2.684   6.814 -0.7072 -0.2161  0.0269
   43MOL   H42024024   1.049   2.893   6.783  0.3811 -1.3584  0.3257
   43MOL   H42124025   0.992   2.854   6.945 -0.5084 -0.5615  0.0568
   43MOL   O42224026   0.651   2.560   6.791 -0.2243  0.1551  0.1135
   43MOL   C42324027   0.618   2.483   6.676  0.2018 -0.2079  0.0407
   43MOL   C42424028   0.694   2.352   6.693 -0.3460  0.8008 -0.2902
   43MOL   O42524029   0.821   2.387   6.736 -0.1752 -0.3984  0.1219
   43MOL   C42624030   0.620   2.245   6.776  0.1562 -0.0007 -0.4069
   43MOL   C42724031   0.717   2.170   6.868  0.2332 -0.0395 -0.3498
   43MOL   C42824032   0.648   2.057   6.952  0.9498  0.2862  0.1843
   43MOL   O42924033   0.752   1.999   7.034  0.2406  0.3028 -0.0276
   43MOL   C43024034   0.589   1.952   6.848  0.3203 -0.5014  0.2699
   43MOL   C43124035   0.521   1.832   6.917  0.1987 -0.4786 -0.7484
   43MOL   C43224036   0.488   2.031   6.760  0.1562 -0.5048  0.7129
   43MOL   C43324037   0.556   2.141   6.681 -0.2743 -0.4318 -0.0176
   43MOL   H43424038   0.655   2.544   6.593  2.7207  0.5202  1.6301
   43MOL   H43524039   0.511   2.466   6.666  0.5719 -1.4911 -2.0913
   43MOL   H43624040   0.723   2.298   6.603  0.2398 -0.0708  0.4117
   43MOL   H43724041   0.804   2.465   6.787 -0.1532 -0.5113  0.3055
   43MOL   H43824042   0.538   2.268   6.844  1.2055 -2.0847  1.6519
   43MOL   H43924043   0.802   2.137   6.809  0.4133 -2.2273  1.0815
   43MOL   H44024044   0.760   2.241   6.938 -0.3403  1.0679 -1.1057
   43MOL   H44124045   0.567   2.100   7.011  0.0445 -0.2828 -0.6283
   43MOL   H44224046   0.799   2.068   7.079 -0.2726  2.4728 -2.6836
   43MOL   H44324047   0.664   1.916   6.777 -1.4545 -1.7686 -1.0140
   43MOL   H44424048   0.595   1.787   6.982  2.0983 -0.1712 -2.6524
   43MOL   H44524049   0.448   1.866   6.991  1.0760  0.6027 -0.3778
   43MOL   H44624050   0.400   2.064   6.816  0.6161 -0.4749  1.4224
   43MOL   H44724051   0.450   1.958   6.689  0.0483  1.2106 -1.0220
   43MOL   H44824052   0.483   2.195   6.620  1.3488  1.2269 -0.5481
   43MOL   H44924053   0.629   2.091   6.616  1.7071  0.2501  1.6323
   43MOL   O45024054   0.487   1.735   6.817  0.4555  0.1858  0.6306
   43MOL   C45124055   0.366   1.666   6.856  0.3524 -0.2512  0.4414
   43MOL   C45224056   0.369   1.542   6.767 -0.1983  0.2576  0.5305
   43MOL   O45324057   0.268   1.447   6.803 -0.1536  0.2141 -0.1237
   43MOL   C45424058   0.380   1.565   6.609  0.4181  0.3893 -1.0611
   43MOL   C45524059   0.245   1.610   6.546  0.1878  0.6140  0.2783
   43MOL   C45624060   0.274   1.648   6.401 -0.1360  0.2079  0.3901
   43MOL   O45724061   0.155   1.694   6.346  0.0404  0.6904  0.4693
   43MOL   C45824062   0.333   1.531   6.325  0.4433 -0.7425  0.3447
   43MOL   C45924063   0.360   1.574   6.182  0.1724  0.0149  0.0135
   43MOL   C46024064   0.454   1.468   6.395 -0.2730  0.3626  0.1901
   43MOL   C46124065   0.429   1.442   6.542  0.2219 -0.2387  0.1702
   43MOL   H46224066   0.274   1.720   6.836  0.9518  1.0202  1.0917
   43MOL   H46324067   0.361   1.638   6.961 -0.2144 -0.0907  0.4570
   43MOL   H46424068   0.455   1.480   6.794 -1.3927 -1.6097  0.1510
   43MOL   H46524069   0.288   1.363   6.763 -2.0891  0.3759 -1.4354
   43MOL   H46624070   0.459   1.638   6.590  0.6075  0.5083  0.1372
   43MOL   H46724071   0.170   1.532   6.549  0.3308  0.3031 -2.6991
   43MOL   H46824072   0.194   1.685   6.606 -0.8641  0.1780 -0.0691
   43MOL   H46924073   0.349   1.727   6.394 -1.0708  0.9615 -1.5137
   43MOL   H47024074   0.096   1.621   6.345  4.1088 -2.7986 -0.4286
   43MOL   H47124075   0.255   1.456   6.321 -0.0876 -0.1577 -0.2805
   43MOL   H47224076   0.276   1.616   6.126 -0.9255 -2.6590 -0.4362
   43MOL   H47324077   0.444   1.643   6.182 -0.8436  1.3110  2.0660
   43MOL   H47424078   0.539   1.535   6.379  0.9808 -1.8393 -3.0308
   43MOL   H47524079   0.476   1.368   6.357 -2.4436 -0.0730  0.0354
   43MOL   H47624080   0.521   1.403   6.585  1.9445  1.7368 -1.6428
   43MOL   H47724081   0.357   1.361   6.551  0.5529 -0.4656  0.8074
   43MOL   O47824082   0.390   1.464   6.107 -0.1748  0.2944  0.2867
   43MOL   C47924083   0.434   1.499   5.971 -0.0034 -0.1726 -0.7338
   43MOL   C48024084   0.466   1.366   5.899  0.3140  0.2351 -0.8063
   43MOL   O48124085   0.338   1.328   5.868 -0.5292  0.0726 -0.1366
   43MOL   C48224086   0.541   1.375   5.767 -0.3638  0.6977  0.7295
   43MOL   C48324087   0.523   1.241   5.682  0.1392 -0.6047  0.0040
   43MOL   C48424088   0.629   1.224   5.571 -0.3996  0.4200 -0.0248
   43MOL   O48524089   0.614   1.088   5.519  0.1808 -0.2562  0.5323
   43MOL   C48624090   0.780   1.252   5.620 -0.2919 -0.2128 -0.3656
   43MOL   C48724091   0.891   1.238   5.512  0.2078 -0.1259 -0.2398
   43MOL   C48824092   0.783   1.391   5.680 -0.1460  0.1231 -0.4396
   43MOL   C48924093   0.690   1.410   5.798 -0.0361  1.3465  0.0742
   43MOL   H49024094   0.517   1.570   5.971 -0.6657  0.6373  0.8642
   43MOL   H49124095   0.351   1.540   5.912 -1.7047 -2.1952  0.2290
   43MOL   H49224096   0.505   1.290   5.966  0.0719  0.4671 -0.4023
   43MOL   H49324097   0.291   1.337   5.950  1.0738  1.0824  0.7036
   43MOL   H49424098   0.502   1.463   5.716 -0.9302  0.5919  0.9769
   43MOL   H49524099   0.519   1.162   5.756 -2.3839  0.8871  1.5595
   43MOL   H49624100   0.424   1.246   5.636 -1.0649 -2.7017  2.2703
   43MOL   H49724101   0.605   1.289   5.487  0.2872 -0.2434 -0.7488
   43MOL   H49824102   0.689   1.082   5.462  0.0979  2.9710 -0.0100
   43MOL   H49924103   0.809   1.167   5.682  0.8597  0.1520 -0.3958
   43MOL   H50024104   0.987   1.275   5.549 -0.2136  1.3132 -0.5669
   43MOL   H50124105   0.913   1.133   5.492 -2.0514 -0.6936  0.1395
   43MOL   H50224106   0.757   1.461   5.601  0.5987  0.2364 -0.5913
   43MOL   H50324107   0.877   1.423   5.726 -0.9803  1.4861  0.3573
   43MOL   H50424108   0.689   1.512   5.836 -2.8008  1.2859  0.2596
   43MOL   H50524109   0.728   1.347   5.879  0.4754  0.8607 -0.5371
   43MOL   O50624110   0.857   1.312   5.397  0.1880  0.6618 -0.6000
   43MOL   C50724111   0.958   1.322   5.296  0.2018 -0.4832  0.4715
   43MOL   C50824112   0.876   1.335   5.166  0.1252 -0.6395  0.0959
   43MOL   O50924113   0.823   1.212   5.125  0.0378  0.0574 -0.0991
   43MOL   C51024114   0.764   1.446   5.179  0.0270  0.3262  0.0476
   43MOL   C51124115   0.696   1.461   5.044 -0.3400  0.4886  0.5110
   43MOL   C51224116   0.579   1.571   5.047  0.5382 -0.3983  0.1657
   43MOL   O51324117   0.513   1.568   4.920 -0.2843  0.3078  0.7436
   43MOL   C51424118   0.631   1.709   5.092 -0.1251 -0.2594 -0.6477
   43MOL   C51524119   0.529   1.820   5.104  0.5517  0.4667 -0.1533
   43MOL   C51624120   0.704   1.691   5.233 -0.3654  0.7287 -0.2399
   43MOL   C51724121   0.815   1.580   5.236  0.2549 -0.2388  0.2711
   43MOL   H51824122   1.014   1.230   5.288  2.9464  1.1807  0.0269
   43MOL   H51924123   1.024   1.405   5.320 -0.1922 -0.0455  0.0559
   43MOL   H52024124   0.930   1.370   5.078 -0.9946  1.6980  0.2964
   43MOL   H52124125   0.781   1.172   5.199  1.5205 -0.9724  0.2102
   43MOL   H52224126   0.687   1.413   5.249  1.7961 -1.8063  1.0378
   43MOL   H52324127   0.756   1.486   4.956 -1.4037  0.5368 -0.2165
   43MOL   H52424128   0.656   1.363   5.018  1.6416 -0.5339  1.2328
   43MOL   H52524129   0.507   1.545   5.125  0.2658  0.9996  0.3929
   43MOL   H52624130   0.503   1.474   4.914  1.8744  0.0946  0.1609
   43MOL   H52724131   0.700   1.743   5.014 -0.6217  2.1180 -0.0912
   43MOL   H52824132   0.475   1.806   5.011  0.5048 -2.3657  0.2445
   43MOL   H52924133   0.461   1.803   5.187 -0.6565  1.7055 -0.8747
   43MOL   H53024134   0.628   1.668   5.308 -0.5285  2.3279  0.1042
   43MOL   H53124135   0.753   1.785   5.258 -0.3278  0.5939  0.1941
   43MOL   H53224136   0.854   1.566   5.337 -0.7420 -0.1658  0.6654
   43MOL   H53324137   0.891   1.624   5.171  1.2174 -1.9129  0.2441
   43MOL   O53424138   0.596   1.943   5.120  0.6784 -0.1922 -0.7810
   43MOL   C53524139   0.509   2.048   5.144  1.0460 -0.1463  0.3644
   43MOL   C53624140   0.583   2.176   5.187 -0.3118  0.2384  0.3318
   43MOL   O53724141   0.650   2.221   5.071 -0.2510 -0.2218 -0.6164
   43MOL   C53824142   0.484   2.284   5.231 -0.2519 -0.0802 -0.1878
   43MOL   C53924143   0.428   2.259   5.374 -0.4613  0.6564 -0.3545
   43MOL   C54024144   0.343   2.380   5.418  0.6101 -0.4525 -0.1871
   43MOL   O54124145   0.299   2.365   5.548  0.1381 -0.1548  0.2808
   43MOL   C54224146   0.227   2.394   5.316  0.4485 -0.9011 -0.1319
   43MOL   C54324147   0.121   2.500   5.352  0.2180 -0.6790  0.3218
   43MOL   C54424148   0.273   2.420   5.169  0.4019 -1.0483  0.3029
   43MOL   C54524149   0.365   2.297   5.132  0.7223 -0.1890  0.6029
   43MOL   H54624150   0.430   2.021   5.214  1.2296  0.0011  0.6283
   43MOL   H54724151   0.457   2.065   5.050  3.6247 -0.3176 -1.1591
   43MOL   H54824152   0.645   2.165   5.277 -0.8509 -2.2315  0.4276
   43MOL   H54924153   0.661   2.137   5.028 -0.4525 -1.3626  1.5265
   43MOL   H55024154   0.537   2.379   5.229  0.6140 -0.5279  1.2311
   43MOL   H55124155   0.367   2.169   5.365 -1.3459  0.9693  1.9789
   43MOL   H55224156   0.510   2.244   5.444 -0.9251 -0.0978  0.0416
   43MOL   H55324157   0.395   2.475   5.408 -1.3620  0.7563  0.5604
   43MOL   H55424158   0.363   2.413   5.598 -0.0040  0.0171  0.2989
   43MOL   H55524159   0.162   2.307   5.303  0.8083 -1.0242 -1.1423
   43MOL   H55624160   0.169   2.592   5.384  0.9164 -0.9173 -0.0374
   43MOL   H55724161   0.056   2.529   5.269  0.0115 -0.5029  0.5420
   43MOL   H55824162   0.321   2.516   5.149 -0.5193 -0.8070 -0.7769
   43MOL   H55924163   0.182   2.420   5.110 -0.1388 -1.6416  1.1303
   43MOL   H56024164   0.403   2.302   5.030 -1.1287  0.8361 -0.0500
   43MOL   H56124165   0.298   2.212   5.133 -0.4766  0.7526  0.9352
   43MOL   H56224166   0.054   2.469   5.432 -0.4034 -0.4225 -0.0978
   44MOL     O124167   0.460   2.302   7.116  0.4615  0.3005 -0.3146
   44MOL     C224168   0.534   2.420   7.100  0.2018  0.0772 -0.1842
   44MOL     C324169   0.492   2.511   7.209  0.3334  0.5756  0.1866
   44MOL     O424170   0.510   2.424   7.321 -0.0655  0.6572 -0.3785
   44MOL     C524171   0.570   2.651   7.227  0.2229 -0.5186  0.2528
   44MOL     C624172   0.721   2.635   7.262  0.0467 -1.4709 -0.4214
   44MOL     C724173   0.803   2.769   7.280 -0.0554 -0.2011 -0.1495
   44MOL     O824174   0.927   2.732   7.341 -0.2600 -0.1587 -0.0644
   44MOL     C924175   0.721   2.873   7.365  0.0725  0.0802 -0.3461
   44MOL    C1024176   0.788   3.016   7.374  0.5342  0.4569 -0.0088
   44MOL    C1124177   0.573   2.889   7.328  0.0025  0.0510  0.7604
   44MOL    C1224178   0.494   2.750   7.329 -0.1887 -0.6544  0.6649
   44MOL    H1324179   0.521   2.467   7.003 -0.4928 -2.9388 -1.6133
   44MOL    H1424180   0.637   2.390   7.116  0.4410  1.4023  0.8250
   44MOL    H1524181   0.388   2.539   7.192 -0.2239 -0.7337  1.3739
   44MOL    H1624182   0.504   2.335   7.288 -0.0526 -0.3533  2.2744
   44MOL    H1724183   0.546   2.702   7.134 -0.6908  1.2464  1.4484
   44MOL    H1824184   0.727   2.565   7.345  0.8678 -0.3336  0.5004
   44MOL    H1924185   0.757   2.571   7.182  0.7583 -1.3127 -0.2341
   44MOL    H2024186   0.823   2.805   7.179  0.3302  0.9844  0.3466
   44MOL    H2124187   0.898   2.671   7.408 -4.3544  1.1901 -0.5051
   44MOL    H2224188   0.722   2.839   7.469  0.5372 -0.9977 -0.7070
   44MOL    H2324189   0.890   3.005   7.410  0.7305  0.9191 -0.4134
   44MOL    H2424190   0.786   3.063   7.276 -1.1594  2.1534  0.8046
   44MOL    H2524191   0.577   2.936   7.229 -1.4700 -0.9050  0.2254
   44MOL    H2624192   0.521   2.964   7.388 -3.3315 -0.5365 -1.2217
   44MOL    H2724193   0.388   2.762   7.309  0.2339  0.6760 -0.8775
   44MOL    H2824194   0.500   2.705   7.428 -1.5615 -0.6721  0.7465
   44MOL    H2924195   0.371   2.322   7.093 -0.5707 -2.4600  1.0487
   44MOL    O3024196   0.723   3.083   7.479 -0.0868 -0.3479  0.4551
   44MOL    C3124197   0.743   3.225   7.476  0.0235 -0.1986  0.1613
   44MOL    C3224198   0.687   3.301   7.354  0.3614  0.1106  0.0168
   44MOL    O3324199   0.571   3.363   7.395  0.5718 -0.3995  0.1991
   44MOL    C3424200   0.775   3.408   7.288  0.3116  0.1406  0.5239
   44MOL    C3524201   0.710   3.465   7.167 -0.3690 -0.1976  0.2030
   44MOL    C3624202   0.797   3.576   7.106 -0.2024 -0.1923  0.2772
   44MOL    O3724203   0.727   3.627   6.994  0.0796  0.1292 -0.2528
   44MOL    C3824204   0.933   3.520   7.066  0.4893  0.5207  1.1532
   44MOL    C3924205   1.029   3.618   7.001  0.6710 -0.3500  0.0252
   44MOL    C4024206   0.996   3.459   7.190  0.5935  0.0196  0.0373
   44MOL    C4124207   0.910   3.346   7.244 -0.5250  0.2773 -0.0201
   44MOL    H4224208   0.837   3.261   7.518  0.2953  0.5497 -1.0565
   44MOL    H4324209   0.683   3.248   7.564 -1.2733 -1.2183 -0.4293
   44MOL    H4424210   0.649   3.230   7.280  0.1558 -0.9502  1.1388
   44MOL    H4524211   0.575   3.383   7.488  0.7317 -0.6388  0.2447
   44MOL    H4624212   0.784   3.485   7.365 -2.7599 -0.6069  1.7275
   44MOL    H4724213   0.696   3.389   7.091  0.3726 -2.4078  2.2077
   44MOL    H4824214   0.614   3.513   7.182 -1.3353 -1.4082 -1.9046
   44MOL    H4924215   0.810   3.654   7.181  1.1117 -2.5707  2.5963
   44MOL    H5024216   0.717   3.720   7.004  2.0061  0.4743 -1.1741
   44MOL    H5124217   0.920   3.446   6.987 -1.7129  2.2264 -0.1390
   44MOL    H5224218   1.114   3.563   6.961  1.5799 -0.1513  1.6500
   44MOL    H5324219   0.988   3.660   6.909 -2.0159  3.3284  2.7900
   44MOL    H5424220   1.015   3.530   7.270 -0.2900  1.5489 -1.0903
   44MOL    H5524221   1.097   3.422   7.169  0.9034  1.3456 -0.8948
   44MOL    H5624222   0.961   3.315   7.335 -2.5487  0.4435  1.1949
   44MOL    H5724223   0.897   3.265   7.173 -1.6118  0.5155 -0.1071
   44MOL    O5824224   1.064   3.727   7.089 -0.6550  0.4006 -0.3291
   44MOL    C5924225   1.184   3.794   7.052  0.1765  0.5701 -0.1880
   44MOL    C6024226   1.214   3.919   7.133  0.2512 -0.6959 -1.1574
   44MOL    O6124227   1.260   3.886   7.263  0.4500  0.1195 -0.1440
   44MOL    C6224228   1.309   4.018   7.061 -0.4006  0.7104  0.7394
   44MOL    C6324229   1.445   3.955   7.043 -0.1687 -0.1631  0.2817
   44MOL    C6424230   1.546   4.043   6.966  0.7286  0.1897 -0.0594
   44MOL    O6524231   1.668   3.966   6.954  0.3159  0.1411 -0.2815
   44MOL    C6624232   1.561   4.171   7.031  0.4503 -0.1664  0.4884
   44MOL    C6724233   1.676   4.258   6.976  0.9607 -0.0650 -0.1543
   44MOL    C6824234   1.429   4.238   7.052  0.5435 -0.9113  0.3513
   44MOL    C6924235   1.333   4.149   7.135 -0.0654 -0.1384 -0.3908
   44MOL    H7024236   1.188   3.802   6.943  2.2614 -2.2211 -0.3751
   44MOL    H7124237   1.266   3.726   7.074  2.0646  3.0131  0.6035
   44MOL    H7224238   1.122   3.975   7.152  1.1333  0.6957 -0.8895
   44MOL    H7324239   1.334   3.834   7.236  0.3823  0.5052 -1.0905
   44MOL    H7424240   1.275   4.033   6.959 -1.4595 -3.3997  0.4255
   44MOL    H7524241   1.490   3.934   7.141  0.0888  0.3891  0.2845
   44MOL    H7624242   1.448   3.854   7.003 -0.2955  0.3481 -1.0149
   44MOL    H7724243   1.516   4.065   6.864  2.3739 -1.5619 -0.9572
   44MOL    H7824244   1.663   3.912   6.877 -1.1018 -0.5244  0.2507
   44MOL    H7924245   1.594   4.147   7.132 -0.8660  0.5544  1.1136
   44MOL    H8024246   1.758   4.208   6.925  2.3159  3.2224 -1.3758
   44MOL    H8124247   1.631   4.334   6.912  0.8944  0.3960  0.4353
   44MOL    H8224248   1.384   4.267   6.957 -0.5879 -2.9652  0.2382
   44MOL    H8324249   1.442   4.335   7.101 -2.0143  0.7883 -2.1244
   44MOL    H8424250   1.241   4.207   7.148  0.6974  0.9448  0.2135
   44MOL    H8524251   1.360   4.135   7.239 -1.4401 -0.0227 -0.0038
   44MOL    O8624252   1.735   4.331   7.089 -0.6220 -0.2619  0.0792
   44MOL    C8724253   1.847   4.267   7.153 -0.4103  0.2879 -0.4517
   44MOL    C8824254   1.948   4.366   7.215 -0.3486 -0.7851 -0.7128
   44MOL    O8924255   2.033   4.279   7.284 -0.3656  0.1531  0.1033
   44MOL    C9024256   2.017   4.464   7.122 -0.1789  0.1501  0.8643
   44MOL    C9124257   2.079   4.583   7.198  0.6493  0.6666  0.1049
   44MOL    C9224258   2.146   4.696   7.117  0.3197 -0.1694 -0.1823
   44MOL    O9324259   2.160   4.805   7.199 -0.3755 -0.2256  0.2883
   44MOL    C9424260   2.063   4.740   6.990 -0.2544  0.5649  0.2260
   44MOL    C9524261   2.138   4.823   6.888  0.3718  0.2225  0.2307
   44MOL    C9624262   2.003   4.620   6.920 -0.1405  0.1653  0.1387
   44MOL    C9724263   1.919   4.526   7.013  0.2868  0.0411 -0.2170
   44MOL    H9824264   1.903   4.214   7.077 -1.3734  1.3432 -1.9111
   44MOL    H9924265   1.821   4.191   7.228  1.7430  1.6314  1.7263
   44MOL   H10024266   1.908   4.431   7.293  2.5886  0.0038  0.1741
   44MOL   H10124267   2.057   4.215   7.219 -1.3635 -0.2857  0.1668
   44MOL   H10224268   2.099   4.417   7.069  1.4213  3.2571  0.4457
   44MOL   H10324269   2.000   4.632   7.255  3.3712  2.1057  2.8323
   44MOL   H10424270   2.149   4.558   7.278  0.6350  3.5595  1.0732
   44MOL   H10524271   2.239   4.658   7.075  1.0660  0.3880  0.9224
   44MOL   H10624272   2.076   4.840   7.222 -0.0804  0.0445  0.9700
   44MOL   H10724273   1.979   4.799   7.027 -1.7594 -0.0958 -2.0475
   44MOL   H10824274   2.051   4.854   6.829 -0.7640  0.3475  1.9331
   44MOL   H10924275   2.174   4.915   6.932  2.6894 -0.1453 -0.8439
   44MOL   H11024276   2.083   4.557   6.881 -1.2169 -0.4299 -1.1554
   44MOL   H11124277   1.940   4.641   6.834 -0.9432 -2.3907  0.0668
   44MOL   H11224278   1.886   4.445   6.949 -2.0342 -0.2883  1.3141
   44MOL   H11324279   1.828   4.571   7.053  2.1483  3.3943  0.4326
   44MOL   O11424280   2.236   4.748   6.816  0.3381 -0.3404 -0.1421
   44MOL   C11524281   2.365   4.785   6.849 -0.5591  0.2481  0.3675
   44MOL   C11624282   2.462   4.714   6.750  0.1783  0.5077 -0.7390
   44MOL   O11724283   2.463   4.576   6.780  0.0376  0.2010 -0.3949
   44MOL   C11824284   2.421   4.724   6.600 -0.1081 -0.4128  0.0334
   44MOL   C11924285   2.532   4.676   6.511 -1.0094  0.6808 -0.1082
   44MOL   C12024286   2.492   4.677   6.357 -0.2518 -0.4527  0.6996
   44MOL   O12124287   2.598   4.631   6.271  0.2381  0.2802 -0.3547
   44MOL   C12224288   2.439   4.820   6.316  0.1897 -0.0873 -0.0112
   44MOL   C12324289   2.369   4.820   6.180  0.7398 -0.1589 -0.4863
   44MOL   C12424290   2.356   4.894   6.426  0.0628  0.0111  0.0331
   44MOL   C12524291   2.406   4.877   6.570  0.0645  0.0844 -0.0400
   44MOL   H12624292   2.393   4.771   6.953 -0.8415 -2.2374  0.1386
   44MOL   H12724293   2.374   4.892   6.831 -1.4131  0.0461 -1.3695
   44MOL   H12824294   2.568   4.731   6.769  0.3360 -1.9429  0.8060
   44MOL   H12924295   2.501   4.573   6.866 -0.4508 -0.9830 -0.2170
   44MOL   H13024296   2.325   4.678   6.581 -0.5076  0.7310 -0.7959
   44MOL   H13124297   2.622   4.728   6.543 -0.5598  0.0155 -0.2636
   44MOL   H13224298   2.542   4.570   6.538 -1.6657  0.7779  0.5233
   44MOL   H13324299   2.413   4.604   6.336  1.0016 -1.5168 -0.4461
   44MOL   H13424300   2.552   4.604   6.193 -3.3180  0.3595  1.6045
   44MOL   H13524301   2.533   4.872   6.303 -0.6771  1.1048 -1.5606
   44MOL   H13624302   2.334   4.921   6.160 -1.2171 -1.2179 -2.6916
   44MOL   H13724303   2.433   4.797   6.094 -1.6296 -0.7588 -2.1343
   44MOL   H13824304   2.256   4.852   6.418 -0.1465  0.1226  2.0473
   44MOL   H13924305   2.360   4.997   6.390 -0.9991  0.4441  1.1431
   44MOL   H14024306   2.322   4.916   6.629  0.5976 -0.5362  1.1354
   44MOL   H14124307   2.498   4.933   6.584  1.8694 -1.9081 -3.3630
   44MOL   O14224308   2.256   4.730   6.179 -0.1946  0.1868 -0.0128
   44MOL   C14324309   2.137   4.766   6.110 -0.3435 -0.2538 -0.5739
   44MOL   C14424310   2.137   4.741   5.960  0.1823 -0.5501  1.1036
   44MOL   O14524311   2.219   4.826   5.895 -0.2265 -0.1991  0.4038
   44MOL   C14624312   2.155   4.593   5.910  0.1492  0.0916  0.7499
   44MOL   C14724313   2.294   4.548   5.941  0.8262  0.1735  0.1896
   44MOL   C14824314   2.326   4.408   5.888  0.0597  0.3986  0.5858
   44MOL   O14924315   2.455   4.368   5.930  0.3022  0.6401  0.3964
   44MOL   C15024316   2.302   4.383   5.739  0.6065 -0.6154  0.4688
   44MOL   C15124317   2.319   4.233   5.690  0.3933  0.0077 -0.3003
   44MOL   C15224318   2.161   4.447   5.700 -0.7113  0.6209  0.2181
   44MOL   C15324319   2.135   4.586   5.752 -0.2490  0.5264 -0.2615
   44MOL   H15424320   2.104   4.870   6.120 -3.1299 -1.1772  0.4975
   44MOL   H15524321   2.058   4.714   6.165 -1.3314  1.2585 -0.5177
   44MOL   H15624322   2.044   4.788   5.927 -1.3664 -2.0307  3.2193
   44MOL   H15724323   2.283   4.846   5.962 -1.6230 -0.9731  2.0261
   44MOL   H15824324   2.077   4.535   5.959  0.5103 -0.2513  0.9256
   44MOL   H15924325   2.369   4.615   5.899 -0.3058  1.8554  0.8005
   44MOL   H16024326   2.306   4.542   6.049  0.9065  0.3973  0.1930
   44MOL   H16124327   2.246   4.357   5.942  0.6064  0.9412  1.9277
   44MOL   H16224328   2.433   4.332   6.014  1.4035  0.4520  0.6193
   44MOL   H16324329   2.381   4.439   5.690  1.4898  0.3219  2.8914
   44MOL   H16424330   2.414   4.183   5.710  0.8194  1.0500  0.2947
   44MOL   H16524331   2.251   4.170   5.747 -0.5270  0.8367 -0.4820
   44MOL   H16624332   2.075   4.386   5.726 -0.7180 -0.0763 -1.3579
   44MOL   H16724333   2.158   4.454   5.591 -0.1280 -0.4178  0.1219
   44MOL   H16824334   2.029   4.609   5.741 -0.7465 -0.2436  2.3685
   44MOL   H16924335   2.198   4.655   5.697  0.9742 -0.8516 -0.6466
   44MOL   O17024336   2.275   4.232   5.557  0.3987 -0.8542  0.2887
   44MOL   C17124337   2.295   4.112   5.480 -0.0790  0.4097 -0.2624
   44MOL   C17224338   2.188   4.006   5.515 -0.5668  0.3786 -0.4342
   44MOL   O17324339   2.072   4.017   5.440  0.0972 -0.2865  0.5178
   44MOL   C17424340   2.236   3.859   5.483 -0.4190 -0.2929 -0.8336
   44MOL   C17524341   2.250   3.826   5.335 -0.2123  0.2738  0.1542
   44MOL   C17624342   2.303   3.681   5.319 -0.0815 -0.0553  0.2291
   44MOL   O17724343   2.301   3.651   5.177 -0.8833 -0.7344  0.7351
   44MOL   C17824344   2.218   3.575   5.386 -0.5841  0.4176 -0.3165
   44MOL   C17924345   2.274   3.432   5.372  0.0747 -0.0977 -0.0400
   44MOL   C18024346   2.219   3.611   5.534 -0.1858 -0.4400  0.3032
   44MOL   C18124347   2.156   3.754   5.556 -0.1245  0.0590  0.4746
   44MOL   H18224348   2.396   4.078   5.503 -1.2984 -3.0132  0.3240
   44MOL   H18324349   2.281   4.133   5.374 -2.6839 -0.1105 -0.0593
   44MOL   H18424350   2.154   4.025   5.617 -0.3260 -1.2465 -0.0399
   44MOL   H18524351   2.086   3.965   5.362 -1.6485 -1.5237  1.0018
   44MOL   H18624352   2.339   3.850   5.516 -0.2477 -0.3954 -1.3835
   44MOL   H18724353   2.154   3.827   5.285 -0.7759 -3.8901  1.0058
   44MOL   H18824354   2.313   3.898   5.281  1.3611 -2.4256 -1.7406
   44MOL   H18924355   2.408   3.669   5.347 -0.4123 -0.7582  1.1984
   44MOL   H19024356   2.363   3.703   5.130 -2.2158 -0.5515 -0.8852
   44MOL   H19124357   2.121   3.576   5.338 -1.4222  1.1186  1.3730
   44MOL   H19224358   2.282   3.401   5.268  0.8800  1.3372 -0.4166
   44MOL   H19324359   2.375   3.425   5.413  0.5895  0.4741 -1.1912
   44MOL   H19424360   2.321   3.612   5.571 -0.7917  1.6674  2.0124
   44MOL   H19524361   2.165   3.536   5.593  0.7987 -0.7986  0.7468
   44MOL   H19624362   2.151   3.783   5.662 -0.6307 -0.9279  0.7233
   44MOL   H19724363   2.052   3.745   5.523 -0.9503 -0.2125  2.9702
   44MOL   O19824364   2.198   3.330   5.434  0.3330 -0.0402  0.0231
   44MOL   C19924365   2.251   3.195   5.412  0.0712 -0.0319  0.4415
   44MOL   C20024366   2.162   3.113   5.318 -0.2493  0.4756  0.5777
   44MOL   O20124367   2.194   3.131   5.185 -0.1683  0.0721 -0.1017
   44MOL   C20224368   2.175   2.963   5.345 -0.2095 -0.0446 -0.0111
   44MOL   C20324369   2.302   2.894   5.296 -0.3118 -0.3427  0.4647
   44MOL   C20424370   2.301   2.737   5.325  0.1096 -0.7231  0.1443
   44MOL   O20524371   2.420   2.691   5.266  0.6068 -0.3112  0.2635
   44MOL   C20624372   2.175   2.672   5.265 -1.1127 -0.1922 -0.2175
   44MOL   C20724373   2.177   2.519   5.289 -0.4634  0.3628  0.5092
   44MOL   C20824374   2.045   2.740   5.311 -0.1888  0.2869 -0.2315
   44MOL   C20924375   2.046   2.898   5.287 -0.0441 -0.0796  0.5637
   44MOL   H21024376   2.238   3.139   5.504  0.5947 -0.3004  0.3477
   44MOL   H21124377   2.355   3.194   5.381  0.0951  1.7109  0.4403
   44MOL   H21224378   2.060   3.150   5.329 -0.1696  0.5014  1.2757
   44MOL   H21324379   2.160   3.214   5.153 -0.6954  0.3991  1.2777
   44MOL   H21424380   2.157   2.946   5.451  1.0778  0.8494  0.3682
   44MOL   H21524381   2.293   2.902   5.187 -1.1099  2.5388  0.6822
   44MOL   H21624382   2.396   2.942   5.324  0.3904 -0.7621 -1.0898
   44MOL   H21724383   2.303   2.723   5.433  2.2591 -0.1517  0.1958
   44MOL   H21824384   2.429   2.737   5.184  1.3905  0.4989  0.7929
   44MOL   H21924385   2.178   2.677   5.156  0.4282  0.4974 -0.1548
   44MOL   H22024386   2.254   2.457   5.243 -2.9616 -2.4218 -0.1007
   44MOL   H22124387   2.196   2.507   5.396 -0.4731  2.0175  0.7069
   44MOL   H22224388   2.021   2.714   5.414 -0.3518 -0.5075 -0.4652
   44MOL   H22324389   1.960   2.698   5.256  1.4316 -0.8411 -1.9407
   44MOL   H22424390   1.952   2.936   5.327 -0.2705  1.4818 -1.4195
   44MOL   H22524391   2.032   2.934   5.186  0.6918  1.6454  1.0456
   44MOL   O22624392   2.044   2.465   5.261 -0.1391  0.2172  0.5445
   44MOL   C22724393   2.054   2.359   5.166 -0.0994 -0.2804 -0.7391
   44MOL   C22824394   2.018   2.407   5.020  0.5842  0.2934 -0.2067
   44MOL   O22924395   2.076   2.321   4.922 -0.0641 -0.1497 -0.7286
   44MOL   C23024396   1.867   2.427   4.991 -0.3047 -0.7330  0.9011
   44MOL   C23124397   1.800   2.542   5.068  0.4808 -0.1221 -0.0401
   44MOL   C23224398   1.650   2.556   5.019 -0.5972 -0.3140 -0.0662
   44MOL   O23324399   1.583   2.638   5.111  0.2884  1.0772  0.2337
   44MOL   C23424400   1.569   2.426   5.016  0.0961 -0.4473  0.6236
   44MOL   C23524401   1.429   2.443   4.954  0.4782  0.0388  0.2569
   44MOL   C23624402   1.640   2.310   4.956 -0.7779 -0.5851 -0.2997
   44MOL   C23724403   1.784   2.301   5.008 -0.3179 -0.3551 -0.0025
   44MOL   H23824404   1.997   2.272   5.199  1.3517 -1.4065 -1.1107
   44MOL   H23924405   2.154   2.315   5.172  0.2115  0.5626  0.4452
   44MOL   H24024406   2.072   2.500   5.000 -1.1759  1.4636  0.3921
   44MOL   H24124407   2.021   2.328   4.846  0.5659 -2.4925 -1.4393
   44MOL   H24224408   1.853   2.446   4.884 -2.3603 -2.4010  0.8258
   44MOL   H24324409   1.811   2.521   5.174  1.0683  1.4737  0.2287
   44MOL   H24424410   1.854   2.636   5.054  0.2751  0.5242  3.1989
   44MOL   H24524411   1.653   2.609   4.924  0.2043 -1.7691 -0.8676
   44MOL   H24624412   1.492   2.626   5.089  0.4041  0.6344 -0.0023
   44MOL   H24724413   1.549   2.391   5.117  1.2376 -1.0818  0.6419
   44MOL   H24824414   1.444   2.518   4.876  2.6430 -0.1374  0.4838
   44MOL   H24924415   1.398   2.353   4.901 -1.1142  0.0392  1.1394
   44MOL   H25024416   1.665   2.328   4.851 -1.4435  0.8345 -0.2218
   44MOL   H25124417   1.589   2.217   4.979 -0.5110 -1.2985 -2.4104
   44MOL   H25224418   1.828   2.218   4.951 -1.7000 -2.4173  1.8732
   44MOL   H25324419   1.761   2.287   5.113  0.6041 -1.4436  0.0609
   44MOL   O25424420   1.320   2.483   5.043  0.3278  0.2680  0.2387
   44MOL   C25524421   1.201   2.498   4.972  0.2484  0.7936  0.7748
   44MOL   C25624422   1.096   2.504   5.084  0.1608 -0.1718  0.1283
   44MOL   O25724423   0.973   2.537   5.013 -0.4728  0.3941 -0.3120
   44MOL   C25824424   1.090   2.374   5.166 -0.2681 -0.0215  0.1077
   44MOL   C25924425   1.074   2.250   5.074 -1.0503 -0.3380  0.1459
   44MOL   C26024426   1.082   2.120   5.164  0.1158  0.8818  0.0397
   44MOL   O26124427   1.082   2.008   5.078  0.5373  0.6783  0.8904
   44MOL   C26224428   0.960   2.127   5.261  0.6649 -0.3874  0.7490
   44MOL   C26324429   0.950   1.996   5.346 -0.0326 -0.0837  0.1318
   44MOL   C26424430   0.972   2.251   5.350  0.6170 -0.3268 -0.0975
   44MOL   C26524431   0.974   2.383   5.269 -0.1252 -0.0618 -0.0128
   44MOL   H26624432   1.191   2.417   4.900 -0.3394  0.4981  1.1782
   44MOL   H26724433   1.197   2.582   4.903  1.9789  0.9667  0.8824
   44MOL   H26824434   1.115   2.586   5.153 -1.5102  1.4344 -1.2515
   44MOL   H26924435   0.902   2.555   5.073  1.1547  0.5401  1.5949
   44MOL   H27024436   1.183   2.365   5.222 -0.1432 -2.1935 -0.3989
   44MOL   H27124437   0.986   2.263   5.011  0.1855 -0.7641 -1.7082
   44MOL   H27224438   1.156   2.239   5.003  0.1661 -0.9832  1.6053
   44MOL   H27324439   1.185   2.121   5.200  0.6041  0.4340 -1.2927
   44MOL   H27424440   1.008   2.014   5.019  0.1352 -0.6581  1.2356
   44MOL   H27524441   0.867   2.142   5.206  0.6486 -0.3664  0.7825
   44MOL   H27624442   0.927   1.908   5.287 -2.3058  0.8388 -0.4376
   44MOL   H27724443   1.043   1.982   5.401  0.9285 -1.6631 -1.8397
   44MOL   H27824444   1.047   2.254   5.428  0.5217 -1.6533  0.0552
   44MOL   H27924445   0.875   2.252   5.400  0.0638  0.7580 -1.1567
   44MOL   H28024446   0.990   2.467   5.337  0.6815 -0.8291  0.7578
   44MOL   H28124447   0.875   2.390   5.223 -0.2875 -3.3385 -0.2518
   44MOL   O28224448   0.839   1.998   5.435 -0.1659 -0.8291  0.9431
   44MOL   C28324449   0.853   1.921   5.553 -0.3623  0.2996  0.4905
   44MOL   C28424450   0.766   1.990   5.658  0.3311  0.2797 -0.3230
   44MOL   O28524451   0.795   2.125   5.649  0.1324  0.0205  0.2574
   44MOL   C28624452   0.617   1.957   5.627  0.5497  0.6831 -0.6051
   44MOL   C28724453   0.524   2.062   5.679 -0.6504 -0.4006 -0.5982
   44MOL   C28824454   0.376   2.037   5.664  0.0203 -0.0195  0.3190
   44MOL   O28924455   0.314   2.143   5.728 -0.3096 -0.2316  0.2396
   44MOL   C29024456   0.338   1.902   5.732 -0.4694  0.3818 -0.0792
   44MOL   C29124457   0.197   1.866   5.710 -0.5555 -0.2402 -0.5397
   44MOL   C29224458   0.424   1.785   5.680 -0.4822  0.0568  0.4477
   44MOL   C29324459   0.577   1.821   5.685  0.0634 -0.1121 -0.1549
   44MOL   H29424460   0.955   1.926   5.589 -0.1485  0.5938 -0.1571
   44MOL   H29524461   0.836   1.819   5.520  1.8053 -0.4727  1.6912
   44MOL   H29624462   0.788   1.962   5.761 -2.1808 -2.1006 -0.3763
   44MOL   H29724463   0.820   2.137   5.559  0.1420  2.2772  0.5243
   44MOL   H29824464   0.612   1.958   5.518  0.3580 -0.0254 -0.6060
   44MOL   H29924465   0.540   2.087   5.784  0.0495 -2.1001 -0.2877
   44MOL   H30024466   0.546   2.159   5.633 -1.6374  0.2976  0.3762
   44MOL   H30124467   0.347   2.038   5.559  0.3106 -2.0295  0.1866
   44MOL   H30224468   0.295   2.206   5.660  1.7138  0.9719  0.7615
   44MOL   H30324469   0.364   1.904   5.838  1.6977  2.4437 -0.6107
   44MOL   H30424470   0.144   1.956   5.741 -0.7691 -0.6832  0.3905
   44MOL   H30524471   0.174   1.862   5.603 -1.4198  1.7236 -0.4523
   44MOL   H30624472   0.390   1.762   5.579  0.8422  1.2017 -0.2874
   44MOL   H30724473   0.408   1.694   5.737 -1.4514  1.3311  2.2742
   44MOL   H30824474   0.641   1.741   5.647  2.5791  2.0604 -0.5869
   44MOL   H30924475   0.603   1.824   5.790  0.2049  2.2527 -0.2419
   44MOL   O31024476   0.158   1.742   5.777  0.2134  0.7306 -0.4031
   44MOL   C31124477   0.018   1.723   5.755  0.1454  0.1480 -0.1580
   44MOL   C31224478   7.582   1.667   5.884  0.2322 -0.0186  0.8460
   44MOL   O31324479   0.033   1.564   5.930  0.6464 -0.1150 -0.0973
   44MOL   C31424480   7.569   1.775   6.000 -0.8746  0.5443 -0.1921
   44MOL   C31524481   7.461   1.870   5.974  0.1184  0.4684  0.2063
   44MOL   C31624482   7.430   1.955   6.096 -0.5952  0.0806 -0.4392
   44MOL   O31724483   7.318   2.034   6.063  0.4717  0.1427 -0.0094
   44MOL   C31824484   7.555   2.037   6.123 -0.4662  0.3179 -0.6260
   44MOL   C31924485   7.531   2.152   6.227  0.5279 -0.5401 -0.3010
   44MOL   C32024486   0.033   1.940   6.158 -0.5138 -0.1208  0.3153
   44MOL   C32124487   0.066   1.847   6.044 -0.1752  0.3972 -0.1308
   44MOL   H32224488   0.007   1.646   5.679  1.7187 -0.0368 -0.2254
   44MOL   H32324489   7.599   1.812   5.716  0.7915 -0.0518 -1.4388
   44MOL   H32424490   7.485   1.624   5.857 -0.1278  1.3331 -0.0754
   44MOL   H32524491   0.118   1.586   5.895 -0.1664  0.9586 -1.4848
   44MOL   H32624492   7.533   1.718   6.085  1.0212  0.2704  0.4567
   44MOL   H32724493   7.481   1.932   5.887  1.2685  1.5021  1.1874
   44MOL   H32824494   7.368   1.824   5.940  1.7890 -0.9551 -2.5774
   44MOL   H32924495   7.406   1.884   6.175  0.9877 -0.8518 -0.7770
   44MOL   H33024496   7.344   2.083   5.987  0.1833 -1.4946 -1.1748
   44MOL   H33124497   7.583   2.089   6.032  0.0506  0.5320 -0.3488
   44MOL   H33224498   7.457   2.227   6.201 -2.2134 -1.8367  3.4161
   44MOL   H33324499   7.503   2.091   6.313  2.3483  0.8615  1.3301
   44MOL   H33424500   0.005   1.883   6.246  1.6595 -1.6970  0.0029
   44MOL   H33524501   0.118   1.995   6.198 -1.7054  0.0806  2.6815
   44MOL   H33624502   0.137   1.772   6.078 -0.6612 -0.3073 -0.6633
   44MOL   H33724503   0.138   1.890   5.974 -0.5381 -0.6741 -1.1818
   44MOL   O33824504   0.028   2.211   6.259 -0.1611 -0.0576  0.0051
   44MOL   C33924505   0.095   2.297   6.158 -0.5001 -0.4694 -0.5727
   44MOL   C34024506   0.217   2.230   6.083 -0.1968 -0.4268 -0.8558
   44MOL   O34124507   0.255   2.323   5.988  0.7562 -0.2954 -0.1425
   44MOL   C34224508   0.338   2.182   6.167  0.0172  0.1206 -0.5701
   44MOL   C34324509   0.395   2.297   6.256 -0.3814 -0.3216 -0.3339
   44MOL   C34424510   0.518   2.245   6.343  0.1888 -0.0515 -0.0808
   44MOL   O34524511   0.566   2.352   6.421 -0.3802 -1.0330  0.3742
   44MOL   C34624512   0.623   2.182   6.251  0.3703 -0.6740 -0.1700
   44MOL   C34724513   0.736   2.127   6.334  0.4635  0.0719  0.1914
   44MOL   C34824514   0.564   2.065   6.164 -0.4047 -0.5172 -0.1210
   44MOL   C34924515   0.445   2.118   6.075  0.0693  0.7002 -0.0779
   44MOL   H35024516   0.135   2.385   6.210 -0.2541 -1.7025  1.3805
   44MOL   H35124517   0.020   2.339   6.091 -0.3201  0.6615 -0.0941
   44MOL   H35224518   0.179   2.148   6.023 -0.3299  0.5807 -2.1637
   44MOL   H35324519   0.307   2.278   5.923 -0.5603 -1.5437 -0.3817
   44MOL   H35424520   0.287   2.105   6.225 -0.5300  0.5717 -0.4437
   44MOL   H35524521   0.421   2.389   6.204  2.5924  0.6379  2.6719
   44MOL   H35624522   0.314   2.328   6.322 -0.0489  0.1965 -0.1674
   44MOL   H35724523   0.475   2.170   6.409  1.0260 -1.8593 -1.5415
   44MOL   H35824524   0.604   2.425   6.375 -0.8798 -0.9219  0.1366
   44MOL   H35924525   0.661   2.260   6.186 -1.2889 -1.1409 -1.7521
   44MOL   H36024526   0.766   2.193   6.416  2.0849  0.6560 -0.8416
   44MOL   H36124527   0.704   2.034   6.380  1.7735 -0.4206  0.1136
   44MOL   H36224528   0.544   1.974   6.221 -2.0079  1.0675  1.9339
   44MOL   H36324529   0.645   2.036   6.097 -1.4572 -3.1546 -0.3231
   44MOL   H36424530   0.393   2.049   6.008  1.1590  0.2210 -0.4407
   44MOL   H36524531   0.490   2.194   6.010  0.2702  0.6630  0.0195
   44MOL   O36624532   0.841   2.098   6.247  0.5348 -0.0422 -0.2689
   44MOL   C36724533   0.947   2.029   6.323  0.1930 -0.3873  0.3133
   44MOL   C36824534   1.056   1.996   6.227 -0.4937  0.1005  0.5837
   44MOL   O36924535   0.984   1.942   6.116  0.2074 -1.1344  0.1926
   44MOL   C37024536   1.148   2.120   6.188 -0.7328  0.2972 -0.0659
   44MOL   C37124537   1.087   2.227   6.097 -0.2293  0.9782 -0.1009
   44MOL   C37224538   1.183   2.348   6.059  0.0627 -0.8207  0.0608
   44MOL   O37324539   1.108   2.434   5.974  0.9109 -0.1208 -0.2943
   44MOL   C37424540   1.312   2.299   5.994  0.0666  0.2611  0.5287
   44MOL   C37524541   1.399   2.425   5.972  0.1654 -0.6583 -0.2642
   44MOL   C37624542   1.379   2.176   6.067 -0.0644  0.1711 -0.3814
   44MOL   C37724543   1.273   2.068   6.105 -0.1801  0.2397 -0.4661
   44MOL   H37824544   0.905   1.937   6.365  1.5391 -0.7303  0.9368
   44MOL   H37924545   0.983   2.080   6.412 -1.7044 -1.8913  1.9991
   44MOL   H38024546   1.124   1.929   6.279  1.6537  2.4901  0.9341
   44MOL   H38124547   0.918   2.009   6.102 -1.1330 -1.7334  3.2630
   44MOL   H38224548   1.179   2.156   6.286  0.2063 -0.2622 -0.1428
   44MOL   H38324549   1.054   2.193   5.999 -1.5616  1.8845  0.0219
   44MOL   H38424550   0.997   2.267   6.144 -0.5098  1.4439 -1.0048
   44MOL   H38524551   1.200   2.401   6.153 -1.8622  0.1649 -0.1158
   44MOL   H38624552   1.078   2.381   5.901  2.0608 -0.6125 -0.4322
   44MOL   H38724553   1.306   2.261   5.892  2.0176 -0.3513  0.6238
   44MOL   H38824554   1.495   2.394   5.931  0.2955 -0.0367 -0.4387
   44MOL   H38924555   1.352   2.494   5.902 -1.2359 -1.9109 -0.5767
   44MOL   H39024556   1.444   2.207   6.148  1.4141  0.4074 -1.6250
   44MOL   H39124557   1.444   2.121   5.999 -1.4563  0.3121 -1.8730
   44MOL   H39224558   1.322   1.993   6.167 -1.6764 -0.4752 -0.1153
   44MOL   H39324559   1.233   2.013   6.020  1.3911 -1.1180 -0.3622
   44MOL   O39424560   1.436   2.483   6.096 -0.6182  0.4261  0.2924
   44MOL   C39524561   1.513   2.603   6.077 -0.0856  0.1453 -0.4299
   44MOL   C39624562   1.447   2.716   6.163  0.5235  0.5034  0.0385
   44MOL   O39724563   1.540   2.824   6.173 -0.5608 -0.5517 -0.2336
   44MOL   C39824564   1.314   2.760   6.106 -0.2060  0.5673 -0.3432
   44MOL   C39924565   1.327   2.801   5.958  0.0771  0.2770 -0.2808
   44MOL   C40024566   1.187   2.828   5.896 -0.1241 -0.2203  0.9191
   44MOL   O40124567   1.209   2.860   5.762 -0.4770 -0.0147  0.2181
   44MOL   C40224568   1.109   2.929   5.978 -0.5060 -0.7337  0.0636
   44MOL   C40324569   0.978   2.965   5.917 -0.4878  0.0682  0.4660
   44MOL   C40424570   1.104   2.894   6.134 -0.2387 -0.0448 -0.0547
   44MOL   C40524571   1.252   2.877   6.185 -0.5450 -0.8591  0.6804
   44MOL   H40624572   1.533   2.622   5.972 -1.6373  1.2298 -0.5491
   44MOL   H40724573   1.610   2.577   6.120  1.3617  3.1874 -1.7451
   44MOL   H40824574   1.420   2.678   6.262  2.3465  0.9378  0.7339
   44MOL   H40924575   1.624   2.793   6.204 -1.6708 -1.1718  2.2387
   44MOL   H41024576   1.239   2.682   6.116 -1.2041  1.4829 -0.5666
   44MOL   H41124577   1.392   2.888   5.949  1.8299 -1.0886 -1.1477
   44MOL   H41224578   1.374   2.722   5.900  0.3554  0.9728 -1.0101
   44MOL   H41324579   1.135   2.732   5.900 -0.5536 -0.0076  0.4204
   44MOL   H41424580   1.197   2.790   5.699 -0.6806  2.1050 -2.1964
   44MOL   H41524581   1.176   3.013   5.961  2.2968 -3.3156 -2.4119
   44MOL   H41624582   0.986   2.953   5.809  1.8606 -0.6364  0.6915
   44MOL   H41724583   0.900   2.903   5.961  0.0374  0.2118  1.6239
   44MOL   H41824584   1.043   2.805   6.153 -0.7479  0.0807 -1.0732
   44MOL   H41924585   1.064   2.972   6.199 -0.6030  0.9803 -1.4725
   44MOL   H42024586   1.256   2.850   6.291  1.4642 -3.4290 -0.0111
   44MOL   H42124587   1.318   2.959   6.159 -0.9997 -0.3616  1.0568
   44MOL   O42224588   0.958   3.104   5.956  0.2779  0.2292 -0.3723
   44MOL   C42324589   0.830   3.163   5.958 -0.3938  0.2681 -0.7235
   44MOL   C42424590   0.836   3.312   5.979  0.4941 -0.0941  0.3959
   44MOL   O42524591   0.894   3.373   5.865 -0.5309  0.1797  0.3494
   44MOL   C42624592   0.697   3.387   5.991  0.0396 -0.8207  0.1677
   44MOL   C42724593   0.614   3.373   5.860  0.0936 -0.1142 -0.4287
   44MOL   C42824594   0.475   3.438   5.859 -0.4351 -0.7182  0.0816
   44MOL   O42924595   0.415   3.409   5.734  0.1305 -0.4959 -0.5534
   44MOL   C43024596   0.493   3.590   5.889  0.0950  0.9744 -0.3794
   44MOL   C43124597   0.361   3.659   5.891  0.0510 -0.0973 -0.1342
   44MOL   C43224598   0.571   3.610   6.020 -0.1620  0.9529  0.3361
   44MOL   C43324599   0.707   3.536   6.024 -0.0304  0.1483  0.2329
   44MOL   H43424600   0.774   3.128   6.045  0.8701 -0.9711 -0.4034
   44MOL   H43524601   0.779   3.133   5.867  0.7544 -1.2741 -0.8668
   44MOL   H43624602   0.895   3.339   6.067  0.2961  0.5380  0.3419
   44MOL   H43724603   0.980   3.333   5.864 -1.0265 -0.9377  1.9120
   44MOL   H43824604   0.643   3.344   6.075  0.8880  1.3647  1.8995
   44MOL   H43924605   0.664   3.414   5.773 -0.7751  0.3403 -0.7250
   44MOL   H44024606   0.603   3.267   5.838  2.0347 -0.7051  1.2926
   44MOL   H44124607   0.414   3.396   5.939 -0.9419 -1.0725 -0.4874
   44MOL   H44224608   0.326   3.379   5.745  0.3287 -1.0331 -0.3881
   44MOL   H44324609   0.553   3.630   5.807  0.5268  0.2137 -0.4486
   44MOL   H44424610   0.302   3.635   5.803 -0.1676 -1.6898  0.4335
   44MOL   H44524611   0.299   3.637   5.978 -0.3716  1.0238 -0.1467
   44MOL   H44624612   0.519   3.579   6.110  2.1951  0.6069  1.6036
   44MOL   H44724613   0.586   3.718   6.020 -0.4022  0.9864  0.7407
   44MOL   H44824614   0.747   3.558   6.122  3.2486  1.3830 -1.3113
   44MOL   H44924615   0.772   3.589   5.954  0.0824 -1.1712 -0.6697
   44MOL   O45024616   0.384   3.801   5.884 -0.2179 -0.0932 -0.2569
   44MOL   C45124617   0.266   3.878   5.870 -0.1927 -0.3666  0.2420
   44MOL   C45224618   0.301   3.983   5.773 -0.0461  0.1989 -0.5665
   44MOL   O45324619   0.359   3.932   5.651  0.0300  0.1836  0.4542
   44MOL   C45424620   0.193   4.087   5.740  0.3663  0.2696 -0.0557
   44MOL   C45524621   0.078   4.022   5.664  0.4294 -0.3989 -0.3936
   44MOL   C45624622   7.589   4.111   5.647 -0.7688  0.2800  0.7951
   44MOL   O45724623   7.507   4.039   5.547  0.6949 -0.4848  0.0692
   44MOL   C45824624   7.629   4.251   5.581  0.1652  0.1202  0.3300
   44MOL   C45924625   7.515   4.359   5.592  0.5837  0.8385  0.5277
   44MOL   C46024626   0.123   4.307   5.657 -0.4983  0.2931 -0.7210
   44MOL   C46124627   0.238   4.212   5.661 -0.5460 -0.1648  0.0931
   44MOL   H46224628   0.221   3.920   5.960 -1.3592 -2.0930  0.4960
   44MOL   H46324629   0.190   3.814   5.825 -1.2398  0.5082  0.7266
   44MOL   H46424630   0.386   4.031   5.822  1.1175 -1.2986 -1.0546
   44MOL   H46524631   0.387   3.843   5.668 -0.4186 -0.5111 -2.2012
   44MOL   H46624632   0.150   4.108   5.838  1.0288 -0.5944  0.4201
   44MOL   H46724633   0.115   3.994   5.565 -2.1767  0.4156 -1.6622
   44MOL   H46824634   0.042   3.939   5.725 -0.0486  0.1479  0.0721
   44MOL   H46924635   7.526   4.133   5.734 -2.2986 -0.9417  0.0160
   44MOL   H47024636   7.538   4.075   5.465 -0.4508  0.4297  0.0204
   44MOL   H47124637   0.036   4.237   5.480 -1.6001 -1.9135 -0.0630
   44MOL   H47224638   7.421   4.318   5.556  0.5609  0.9641  0.4440
   44MOL   H47324639   7.492   4.394   5.693 -2.7478 -0.5514  0.3079
   44MOL   H47424640   0.091   4.338   5.756 -0.8255 -0.2687 -0.6537
   44MOL   H47524641   0.165   4.396   5.609 -0.7514  0.6555 -0.2745
   44MOL   H47624642   0.307   4.268   5.723  1.0458 -0.9142 -0.9637
   44MOL   H47724643   0.280   4.178   5.566 -0.5685 -1.4748  0.5400
   44MOL   O47824644   7.541   4.473   5.516  0.1888  0.0047 -0.3163
   44MOL   C47924645   7.585   4.455   5.381  0.4968 -0.1794 -0.0352
   44MOL   C48024646   7.531   4.570   5.291  0.7642  0.5326  0.6617
   44MOL   O48124647   7.573   4.540   5.157 -0.0469 -0.2141 -0.1987
   44MOL   C48224648   7.386   4.600   5.286  0.3211  0.4108 -0.0500
   44MOL   C48324649   7.297   4.479   5.264 -0.2641  0.6339 -0.0779
   44MOL   C48424650   7.151   4.516   5.269  0.3999  0.5105  0.1545
   44MOL   O48524651   7.086   4.391   5.234 -0.2586  0.1270  0.3955
   44MOL   C48624652   7.107   4.627   5.170 -0.7534  0.9019 -0.0771
   44MOL   C48724653   6.949   4.658   5.175 -0.0535  0.7530 -0.0480
   44MOL   C48824654   7.189   4.754   5.181 -0.3350  0.2628 -0.2109
   44MOL   C48924655   7.341   4.720   5.187  0.3544  0.6429  0.1105
   44MOL   H49024656   7.546   4.360   5.344  0.3681  0.2632 -1.0456
   44MOL   H49124657   0.064   4.449   5.392  0.4501  0.0928  0.6068
   44MOL   H49224658   7.581   4.660   5.326 -0.2653  0.8703  1.2666
   44MOL   H49324659   7.525   4.597   5.099  1.3590  2.5254  1.2481
   44MOL   H49424660   7.359   4.639   5.384 -3.7293 -1.2595 -0.4106
   44MOL   H49524661   7.330   4.438   5.168 -0.3827 -0.1661  0.2177
   44MOL   H49624662   7.311   4.409   5.346 -3.1940  2.5609  2.1404
   44MOL   H49724663   7.119   4.547   5.369  0.8595 -0.2024  0.5258
   44MOL   H49824664   6.995   4.390   5.260 -0.2138  1.1029  0.6213
   44MOL   H49924665   7.132   4.581   5.074  2.9463 -1.8492  2.0572
   44MOL   H50024666   6.915   4.555   5.169  0.1099  0.7110 -0.2671
   44MOL   H50124667   6.928   4.706   5.271  1.1147  1.0201  0.0809
   44MOL   H50224668   7.169   4.791   5.281  1.1104  0.4318  0.0156
   44MOL   H50324669   7.163   4.823   5.101 -0.9655 -0.4806 -0.6624
   44MOL   H50424670   7.404   4.806   5.205  0.7859  0.2214  0.6104
   44MOL   H50524671   7.363   4.695   5.083 -0.7814  0.7183 -0.1515
   44MOL   O50624672   6.909   4.733   5.061  0.0902  0.1855 -0.2015
   44MOL   C50724673   6.822   4.840   5.078 -0.3726  0.1087  0.3403
   44MOL   C50824674   6.895   4.957   5.153  0.0961 -0.3682  0.5968
   44MOL   O50924675   6.984   5.014   5.062  1.1480  0.2503 -0.1232
   44MOL   C51024676   6.792   5.056   5.218 -0.1190 -1.1719  0.2330
   44MOL   C51124677   6.699   5.003   5.329 -0.7431  0.0123 -0.5475
   44MOL   C51224678   6.637   5.126   5.410  0.2365 -0.0327 -0.4263
   44MOL   O51324679   6.560   5.072   5.519 -0.3605  0.2810  0.2057
   44MOL   C51424680   6.548   5.203   5.306 -0.5062 -0.8343  0.2467
   44MOL   C51524681   6.477   5.320   5.373 -0.2875 -0.6580 -0.2966
   44MOL   C51624682   6.638   5.252   5.191  0.2253 -0.2015 -0.5174
   44MOL   C51724683   6.716   5.136   5.118 -0.2967  0.2917 -0.1406
   44MOL   H51824684   6.744   4.796   5.139 -1.6762  0.4494 -1.0554
   44MOL   H51924685   6.780   4.883   4.987 -1.6070 -1.2553  0.2477
   44MOL   H52024686   6.937   4.922   5.247 -1.7299  1.0985  2.0267
   44MOL   H52124687   6.947   4.997   4.977 -3.4300 -0.5565  1.8781
   44MOL   H52224688   6.860   5.124   5.268 -1.3937 -0.2926  0.7964
   44MOL   H52324689   6.631   4.922   5.300 -1.4850  0.7294 -0.8527
   44MOL   H52424690   6.764   4.954   5.401 -2.4724  2.3272  2.7547
   44MOL   H52524691   6.715   5.187   5.456 -0.4118  0.8469 -0.4861
   44MOL   H52624692   6.502   5.001   5.497  1.2422 -1.9607  2.9012
   44MOL   H52724693   6.473   5.138   5.260 -0.5215 -0.2512 -0.5501
   44MOL   H52824694   6.412   5.274   5.447 -0.7652  0.0066 -0.2993
   44MOL   H52924695   6.538   5.395   5.424 -1.2046  0.3995 -0.7376
   44MOL   H53024696   6.706   5.317   5.246  0.4509 -1.9450  1.3700
   44MOL   H53124697   6.572   5.304   5.122  1.5918  2.7324  0.3032
   44MOL   H53224698   6.780   5.176   5.039  1.0752  2.0530  1.7985
   44MOL   H53324699   6.638   5.070   5.081 -0.4399  0.0584  0.5733
   44MOL   O53424700   6.395   5.387   5.275  0.3205  0.0408  0.2752
   44MOL   C53524701   6.328   5.494   5.347 -0.0748 -0.1900 -0.1918
   44MOL   C53624702   6.251   5.580   5.245 -0.7466 -1.1180 -0.5698
   44MOL   O53724703   6.164   5.493   5.182 -0.1659  0.3443  0.2837
   44MOL   C53824704   6.171   5.704   5.304  0.8247 -0.6056  0.7723
   44MOL   C53924705   6.063   5.655   5.405  0.6354 -0.5261 -0.7674
   44MOL   C54024706   5.963   5.771   5.444  0.5279  0.1767 -0.0785
   44MOL   O54124707   5.856   5.710   5.511 -0.1164 -0.3089 -0.6648
   44MOL   C54224708   5.920   5.843   5.311  0.0877  0.4830 -0.1414
   44MOL   C54324709   5.813   5.957   5.328 -0.2851  0.1275 -0.3629
   44MOL   C54424710   6.038   5.896   5.238  0.0236  0.0740  0.3123
   44MOL   C54524711   6.128   5.788   5.186  0.0725 -0.3778 -0.1058
   44MOL   H54624712   6.403   5.555   5.398 -0.4277 -0.0247  0.1391
   44MOL   H54724713   6.262   5.455   5.425  1.2385 -0.3791  0.8321
   44MOL   H54824714   6.330   5.609   5.175 -1.2733 -0.5626 -0.9416
   44MOL   H54924715   6.145   5.415   5.231 -0.8169 -0.8316 -1.7894
   44MOL   H55024716   6.232   5.765   5.369 -1.6554  1.6464  1.0778
   44MOL   H55124717   6.004   5.575   5.360  0.3999  0.2098 -1.7860
   44MOL   H55224718   6.111   5.611   5.492 -2.3640 -0.4382  1.0052
   44MOL   H55324719   6.013   5.847   5.505  1.6660  0.4755 -1.3705
   44MOL   H55424720   5.817   5.655   5.444  1.4378 -1.0484 -0.9692
   44MOL   H55524721   5.873   5.768   5.248 -1.2943  1.4962 -0.3355
   44MOL   H55624722   5.729   5.918   5.384 -0.8064 -1.6739 -2.3199
   44MOL   H55724723   5.845   6.048   5.379 -0.0617  0.7646 -1.6095
   44MOL   H55824724   6.090   5.969   5.301  0.0365 -0.3702  0.8289
   44MOL   H55924725   6.004   5.946   5.148  0.6423 -0.7303 -0.3698
   44MOL   H56024726   6.207   5.831   5.124  0.2806  0.6220  0.8310
   44MOL   H56124727   6.074   5.727   5.114 -0.7547 -0.5259  0.6276
   44MOL   H56224728   5.767   5.974   5.230  0.5997 -1.6503 -1.1187
   45MOL     O124729   4.742   2.819   0.167 -0.6993  0.2809 -0.6549
   45MOL     C224730   4.705   2.946   0.199 -0.4957 -0.1373  0.3909
   45MOL     C324731   4.559   2.946   0.235 -0.2054 -0.7600 -0.3298
   45MOL     O424732   4.525   3.080   0.269  0.3341  0.1672  0.3213
   45MOL     C524733   4.456   2.919   0.126 -0.8921  0.4987  0.1848
   45MOL     C624734   4.468   3.016   7.629  0.1549  0.4645  0.6903
   45MOL     C724735   4.382   2.967   7.506  0.3079  0.0690 -0.1591
   45MOL     O824736   4.391   3.067   7.406  0.2229 -0.6167  0.4848
   45MOL     C924737   4.237   2.953   7.554  0.2252 -0.4734 -0.2253
   45MOL    C1024738   4.138   2.906   7.449 -0.6239 -0.0728  0.4276
   45MOL    C1124739   4.222   2.867   0.053 -0.3387  0.3701 -0.1532
   45MOL    C1224740   4.311   2.921   0.174  0.2274 -0.1027  0.6139
   45MOL    H1324741   4.727   3.018   0.120  1.6458  2.4115  3.2040
   45MOL    H1424742   4.766   2.978   0.284 -1.0048 -1.6400  1.3274
   45MOL    H1524743   4.535   2.883   0.321  1.1711  0.1377  0.7278
   45MOL    H1624744   4.578   3.138   0.216  0.0558 -0.2918 -0.4669
   45MOL    H1724745   4.469   2.818   0.086 -2.1504  0.9865 -1.5549
   45MOL    H1824746   4.430   3.113   0.031 -0.5909  0.4282 -0.0741
   45MOL    H1924747   4.567   3.054   7.603  0.2038  0.4210  0.8093
   45MOL    H2024748   4.417   2.878   7.454 -0.3797  1.2777 -2.8167
   45MOL    H2124749   4.484   3.068   7.389  0.2182  1.4475  0.4769
   45MOL    H2224750   4.200   3.051   7.582  0.8043 -0.4203  0.3679
   45MOL    H2324751   4.165   2.947   7.351  1.4285  0.0826  1.0319
   45MOL    H2424752   4.138   2.797   7.444  0.8171 -0.1153  0.9784
   45MOL    H2524753   4.245   2.761   0.041 -2.8954 -0.7141  3.7909
   45MOL    H2624754   4.121   2.873   0.093 -0.8864 -1.1019 -1.2582
   45MOL    H2724755   4.302   2.849   0.256 -3.5116 -1.5475 -0.9555
   45MOL    H2824756   4.283   3.019   0.212  0.4315 -0.1625  0.9163
   45MOL    H2924757   4.819   2.823   0.113 -0.3173 -0.8349 -0.2131
   45MOL    O3024758   4.003   2.949   7.483 -0.1371  0.1361 -0.0520
   45MOL    C3124759   3.913   2.914   7.375 -0.6579  0.2759 -0.8048
   45MOL    C3224760   3.877   2.769   7.384  0.0520  0.3264  0.1283
   45MOL    O3324761   3.860   2.749   7.519  0.5381  0.2212 -0.1890
   45MOL    C3424762   3.744   2.715   7.315 -0.1493  0.4288  0.3195
   45MOL    C3524763   3.737   2.563   7.318  0.0879 -0.3123 -0.6848
   45MOL    C3624764   3.611   2.510   7.255  0.0532 -0.9040 -0.2704
   45MOL    O3724765   3.609   2.368   7.277 -0.6471 -0.7186  0.0630
   45MOL    C3824766   3.605   2.553   7.109 -0.3231  0.3985 -0.0482
   45MOL    C3924767   3.471   2.506   7.047  0.5255  0.3832  0.2504
   45MOL    C4024768   3.621   2.700   7.097 -0.2882 -0.0940 -0.1083
   45MOL    C4124769   3.738   2.759   7.170 -0.2620 -0.6385  0.1611
   45MOL    H4224770   3.946   2.931   7.272  3.2591  3.0663  0.7831
   45MOL    H4324771   3.817   2.964   7.386 -0.4252  0.3741  0.8277
   45MOL    H4424772   3.964   2.713   7.350  0.7357  1.4416  0.0120
   45MOL    H4524773   3.938   2.783   7.560  1.2177 -2.3546  0.7609
   45MOL    H4624774   3.653   2.747   7.366 -0.1391  0.5302  0.2725
   45MOL    H4724775   3.821   2.521   7.264  0.9212  0.7241 -0.2031
   45MOL    H4824776   3.737   2.526   7.421 -1.6873  1.9689  0.1774
   45MOL    H4924777   3.528   2.555   7.309 -0.1602  0.0964 -1.4100
   45MOL    H5024778   3.578   2.367   7.366 -0.4997  1.3269  0.1665
   45MOL    H5124779   3.683   2.508   7.049 -0.8041  0.4498 -0.7180
   45MOL    H5224780   3.462   2.398   7.061  2.9140  0.1437  0.1224
   45MOL    H5324781   3.384   2.549   7.096  0.1031 -0.4919  0.2810
   45MOL    H5424782   3.530   2.750   7.131 -0.5894 -0.7395  0.0486
   45MOL    H5524783   3.644   2.722   6.993 -0.6017 -0.1314 -0.1851
   45MOL    H5624784   3.724   2.867   7.169  1.8665 -0.3455 -0.4761
   45MOL    H5724785   3.835   2.751   7.121  0.0775  1.1343  0.5116
   45MOL    O5824786   3.470   2.540   6.908  0.1438  0.0864  0.8722
   45MOL    C5924787   3.363   2.490   6.832  0.2988  0.7274 -0.1419
   45MOL    C6024788   3.388   2.537   6.681  1.0371 -0.2437  0.1023
   45MOL    O6124789   3.368   2.683   6.675 -0.0053 -0.1491  0.3039
   45MOL    C6224790   3.522   2.506   6.625  0.2236 -0.6542  0.2035
   45MOL    C6324791   3.546   2.584   6.487  0.2008  0.3903 -0.5309
   45MOL    C6424792   3.659   2.535   6.406 -0.2839  0.8445  0.0736
   45MOL    O6524793   3.650   2.605   6.289 -0.1575 -0.7854  0.8930
   45MOL    C6624794   3.644   2.382   6.373 -0.6401 -0.1148 -0.0038
   45MOL    C6724795   3.744   2.314   6.275  0.4647  0.1012 -0.4725
   45MOL    C6824796   3.641   2.303   6.507  0.6096 -0.7468 -0.1210
   45MOL    C6924797   3.525   2.351   6.593  0.6760 -0.0097 -0.3762
   45MOL    H7024798   3.276   2.540   6.874  0.6143  0.6335  0.6320
   45MOL    H7124799   3.349   2.382   6.836 -5.2305  1.3649  2.0133
   45MOL    H7224800   3.303   2.502   6.622  0.1197 -0.3587  1.4406
   45MOL    H7324801   3.436   2.722   6.728 -0.9372  2.2332 -0.1957
   45MOL    H7424802   3.602   2.533   6.693  3.5205  1.0063 -4.0583
   45MOL    H7524803   3.451   2.571   6.436 -1.3494 -1.6987  2.7480
   45MOL    H7624804   3.565   2.690   6.507 -0.5698  0.0668  1.9761
   45MOL    H7724805   3.754   2.553   6.457  1.2957 -2.3861 -1.5411
   45MOL    H7824806   3.660   2.698   6.297 -0.7452 -0.7461  1.2223
   45MOL    H7924807   3.546   2.373   6.327 -0.9795 -1.9670  1.0095
   45MOL    H8024808   3.755   2.375   6.185  1.3834 -1.0371 -1.1523
   45MOL    H8124809   3.847   2.306   6.310  0.5648 -1.8423 -1.1081
   45MOL    H8224810   3.731   2.326   6.564  0.4736  0.9903 -0.5721
   45MOL    H8324811   3.625   2.196   6.493 -1.9739 -0.1509 -2.1041
   45MOL    H8424812   3.510   2.299   6.688  0.4351  2.0454  0.7498
   45MOL    H8524813   3.442   2.319   6.530  0.1075 -2.7104  1.6334
   45MOL    O8624814   3.701   2.182   6.242  0.2494  0.2224  0.0657
   45MOL    C8724815   3.756   2.128   6.123  0.0395  0.7791 -0.1761
   45MOL    C8824816   3.699   1.988   6.104 -0.2237  0.3764  0.2860
   45MOL    O8924817   3.771   1.913   6.001  0.1311 -0.0880 -0.0678
   45MOL    C9024818   3.693   1.898   6.231 -0.2666  0.9973 -0.1310
   45MOL    C9124819   3.832   1.881   6.286  0.4499  0.0351  0.6256
   45MOL    C9224820   3.837   1.808   6.418 -0.7255 -0.2959  0.3101
   45MOL    O9324821   3.972   1.782   6.441 -0.5780  0.2757  0.0809
   45MOL    C9424822   3.771   1.670   6.416  0.0759  0.5371 -0.7824
   45MOL    C9524823   3.761   1.609   6.558  0.0568  0.0296 -0.2622
   45MOL    C9624824   3.631   1.684   6.345 -0.1689  0.1884  0.0960
   45MOL    C9724825   3.630   1.755   6.212 -0.4037 -0.8693 -0.6642
   45MOL    H9824826   3.864   2.126   6.138 -0.1764 -2.2594  1.2987
   45MOL    H9924827   3.737   2.179   6.029  0.0456 -0.2880 -0.7692
   45MOL   H10024828   3.597   2.006   6.071  0.6082  2.3631 -1.2580
   45MOL   H10124829   3.794   1.828   6.036 -3.0035 -1.2987 -0.7539
   45MOL   H10224830   3.631   1.943   6.309  0.4878 -0.4389  1.2989
   45MOL   H10324831   3.902   1.836   6.216 -0.3088 -0.5714  0.2535
   45MOL   H10424832   3.862   1.984   6.308  1.7237 -0.2354  0.2094
   45MOL   H10524833   3.794   1.872   6.495  0.3074 -0.4828  1.0369
   45MOL   H10624834   4.018   1.864   6.452 -0.3255  0.5554 -2.6707
   45MOL   H10724835   3.830   1.604   6.351 -0.4707 -1.0071  0.2738
   45MOL   H10824836   3.723   1.507   6.555 -1.3546  0.4918  1.1187
   45MOL   H10924837   3.860   1.611   6.602 -0.2178  1.3176  0.3138
   45MOL   H11024838   3.555   1.733   6.406 -1.1253  0.0231 -0.9478
   45MOL   H11124839   3.594   1.585   6.322  0.5607 -0.2911  0.9420
   45MOL   H11224840   3.527   1.777   6.183 -0.5935  1.1803  1.4110
   45MOL   H11324841   3.691   1.692   6.147  0.1680  0.9694 -1.9691
   45MOL   O11424842   3.675   1.683   6.640  0.7075 -0.1970 -0.5642
   45MOL   C11524843   3.665   1.635   6.768  0.1393  0.1714  1.2976
   45MOL   C11624844   3.594   1.734   6.850 -0.9839  0.3034 -0.6493
   45MOL   O11724845   3.540   1.657   6.958 -0.0998 -0.0006 -0.4128
   45MOL   C11824846   3.681   1.856   6.897 -0.1986 -0.0759 -0.0378
   45MOL   C11924847   3.591   1.966   6.951  0.1317 -0.2055  0.5381
   45MOL   C12024848   3.671   2.091   6.990  0.2576 -0.0273  0.6619
   45MOL   O12124849   3.570   2.178   7.046 -0.1613 -0.2398  0.5277
   45MOL   C12224850   3.746   2.141   6.871  0.0003  0.3369 -0.3907
   45MOL   C12324851   3.817   2.278   6.903 -0.6643 -0.9241  0.3809
   45MOL   C12424852   3.848   2.031   6.824  0.0440  0.6120 -0.1152
   45MOL   C12524853   3.763   1.910   6.782 -0.1744 -0.6408  0.2425
   45MOL   H12624854   3.759   1.609   6.817  0.7356 -1.7636 -0.7644
   45MOL   H12724855   3.593   1.553   6.759  0.1140  0.0563  2.4611
   45MOL   H12824856   3.508   1.773   6.794 -1.0307  0.1119 -0.7104
   45MOL   H12924857   3.535   1.707   7.039 -1.2423  0.6996 -0.9031
   45MOL   H13024858   3.748   1.822   6.975 -0.5581  0.8639  0.6843
   45MOL   H13124859   3.529   1.991   6.865  0.5479 -0.0491  0.2797
   45MOL   H13224860   3.548   1.923   7.041  1.3097  1.5637  1.9937
   45MOL   H13324861   3.736   2.065   7.074  0.2313 -1.4376  0.2664
   45MOL   H13424862   3.611   2.249   7.092 -0.2044 -0.1928  0.4931
   45MOL   H13524863   3.676   2.163   6.790  0.6762  0.4653 -0.9456
   45MOL   H13624864   3.745   2.359   6.890 -1.1525 -1.3804  0.1860
   45MOL   H13724865   3.859   2.283   7.003 -0.0900 -1.4679  0.1770
   45MOL   H13824866   3.923   2.000   6.896 -0.2140 -0.3017 -0.2375
   45MOL   H13924867   3.903   2.082   6.745 -0.8745 -0.4681 -1.4666
   45MOL   H14024868   3.841   1.841   6.749 -1.2850 -2.6460  1.6712
   45MOL   H14124869   3.701   1.935   6.695 -1.1905 -0.5556  0.9785
   45MOL   O14224870   3.915   2.308   6.806 -0.0976 -0.1202 -0.3368
   45MOL   C14324871   3.959   2.447   6.803  0.1919  0.0712 -0.8103
   45MOL   C14424872   4.083   2.469   6.720  0.1236  0.2445 -0.2248
   45MOL   O14524873   4.197   2.433   6.787 -0.3050 -0.2727  0.1310
   45MOL   C14624874   4.075   2.390   6.585  0.1465  0.1396 -0.5575
   45MOL   C14724875   4.130   2.236   6.594  0.0426  0.1530  0.0317
   45MOL   C14824876   4.116   2.167   6.463 -0.0873 -0.4556  0.0297
   45MOL   O14924877   4.151   2.030   6.468 -0.2678  0.0512  0.2755
   45MOL   C15024878   4.207   2.247   6.361  0.3447 -0.0677  0.3842
   45MOL   C15124879   4.206   2.169   6.227 -0.0976  0.0962 -0.4040
   45MOL   C15224880   4.155   2.388   6.342 -0.5715 -0.0606 -0.8933
   45MOL   C15324881   4.148   2.459   6.475 -0.5170  0.5771  0.1949
   45MOL   H15424882   3.970   2.480   6.906 -0.9552  0.6295 -0.8621
   45MOL   H15524883   3.870   2.500   6.770 -0.1410  0.2146  0.2985
   45MOL   H15624884   4.086   2.578   6.710 -0.3226  0.4836  2.0683
   45MOL   H15724885   4.196   2.342   6.815 -1.0811  0.8457  3.9908
   45MOL   H15824886   3.971   2.380   6.553 -0.3306 -2.9946  1.7699
   45MOL   H15924887   4.233   2.236   6.630  0.3499  0.4245 -0.8426
   45MOL   H16024888   4.075   2.171   6.662  0.6557  1.2998  1.6483
   45MOL   H16124889   4.011   2.173   6.433 -0.3812  1.5273  1.3984
   45MOL   H16224890   4.234   2.009   6.508  1.1955  0.9531 -2.1509
   45MOL   H16324891   4.307   2.238   6.402  2.0100  0.8836 -3.2240
   45MOL   H16424892   4.223   2.062   6.240 -1.5777  0.0445  1.2840
   45MOL   H16524893   4.105   2.177   6.187 -0.7031 -2.1822  0.5963
   45MOL   H16624894   4.053   2.378   6.307 -1.8236 -0.8704  2.7780
   45MOL   H16724895   4.211   2.450   6.271 -1.7702  0.3304 -1.5045
   45MOL   H16824896   4.121   2.564   6.463  0.6741  0.8042 -0.5082
   45MOL   H16924897   4.248   2.452   6.519 -0.4480  2.0828  0.3193
   45MOL   O17024898   4.308   2.234   6.155  0.1528 -0.3953 -0.2596
   45MOL   C17124899   4.281   2.240   6.013  0.4137 -0.3233  0.1857
   45MOL   C17224900   4.409   2.232   5.944  0.2310  0.4538  0.2366
   45MOL   O17324901   4.499   2.326   6.002  0.2932  0.5629 -0.0742
   45MOL   C17424902   4.464   2.087   5.940  0.2710  0.0395 -0.1970
   45MOL   C17524903   4.522   2.040   6.072 -0.0176 -0.3261  0.0693
   45MOL   C17624904   4.559   1.896   6.070 -0.1705 -0.3119 -0.3857
   45MOL   O17724905   4.615   1.863   6.198 -0.3512  0.2564 -0.0576
   45MOL   C17824906   4.668   1.867   5.974 -0.7543  0.4281 -0.1852
   45MOL   C17924907   4.704   1.715   5.968 -0.4797  0.1754  0.4877
   45MOL   C18024908   4.631   1.920   5.834 -0.3208 -0.3137 -0.0900
   45MOL   C18124909   4.569   2.067   5.830 -0.3962  0.1839  0.5141
   45MOL   H18224910   4.225   2.330   5.985  0.2619 -1.4360 -3.3921
   45MOL   H18324911   4.217   2.161   5.972 -1.1086  1.0568 -0.1406
   45MOL   H18424912   4.405   2.261   5.839 -2.6279  0.3835  0.2839
   45MOL   H18524913   4.470   2.334   6.091 -0.3281 -0.6839 -0.1579
   45MOL   H18624914   4.388   2.011   5.923 -0.6820  0.8108  0.6270
   45MOL   H18724915   4.607   2.106   6.092  1.4002 -2.2772  0.6892
   45MOL   H18824916   4.447   2.064   6.147 -0.6209 -0.2045 -0.5669
   45MOL   H18924917   4.470   1.833   6.069 -0.3492 -0.0943  0.9887
   45MOL   H19024918   4.704   1.895   6.205  0.7755 -2.6351 -0.5203
   45MOL   H19124919   4.762   1.911   6.008  1.2838 -1.8915 -2.5872
   45MOL   H19224920   4.720   1.658   6.059 -0.7498  1.2247  1.2079
   45MOL   H19324921   4.617   1.665   5.925  0.6758 -2.7928  1.5315
   45MOL   H19424922   4.549   1.857   5.800 -0.9629  1.3502 -1.7635
   45MOL   H19524923   4.710   1.906   5.761 -1.4689  0.5399 -1.5152
   45MOL   H19624924   4.527   2.086   5.731  0.1672 -0.1583  0.2040
   45MOL   H19724925   4.643   2.143   5.853 -1.2951  1.7648 -1.6070
   45MOL   O19824926   4.821   1.695   5.878  0.8481  0.6407 -0.0924
   45MOL   C19924927   4.940   1.692   5.953  0.2891 -0.2829  0.4039
   45MOL   C20024928   4.971   1.540   5.945  0.1761  0.3029 -0.2381
   45MOL   O20124929   4.971   1.493   5.813  0.1249 -0.7695 -0.0310
   45MOL   C20224930   5.097   1.498   6.018 -0.1869  0.2442  0.0071
   45MOL   C20324931   5.225   1.561   5.972 -0.3082  0.2977 -0.1393
   45MOL   C20424932   5.342   1.519   6.061  0.2176  0.3596 -0.7258
   45MOL   O20524933   5.463   1.587   6.015 -0.0062 -0.2745  0.4329
   45MOL   C20624934   5.367   1.369   6.057  0.4003  0.0197 -0.1429
   45MOL   C20724935   5.472   1.327   6.160  0.4019 -0.4407 -0.0014
   45MOL   C20824936   5.234   1.300   6.090  0.0154 -0.2337 -0.3265
   45MOL   C20924937   5.109   1.341   6.016  0.2436  0.4079 -1.1642
   45MOL   H21024938   4.936   1.714   6.060  0.0257  1.2538  0.0827
   45MOL   H21124939   5.020   1.757   5.917 -0.8090 -0.4289 -2.3951
   45MOL   H21224940   4.886   1.492   5.994  1.3754 -1.1522  0.4638
   45MOL   H21324941   4.886   1.522   5.782  0.6505  0.0982 -0.6740
   45MOL   H21424942   5.065   1.531   6.117 -0.6179 -0.5230  0.1324
   45MOL   H21524943   5.243   1.518   5.873  0.6940  1.7274 -0.5946
   45MOL   H21624944   5.210   1.668   5.961 -0.8899  0.2866  0.5269
   45MOL   H21724945   5.315   1.554   6.161  1.3329  0.6484 -0.5144
   45MOL   H21824946   5.448   1.678   6.038 -2.3742 -0.3410 -0.7018
   45MOL   H21924947   5.408   1.347   5.958 -0.0284  1.1825 -0.5829
   45MOL   H22024948   5.498   1.223   6.141  1.5889  0.1298 -1.5497
   45MOL   H22124949   5.560   1.388   6.142  0.0341  0.4604  1.1500
   45MOL   H22224950   5.208   1.314   6.195 -0.3040  2.6468 -0.7644
   45MOL   H22324951   5.248   1.193   6.072  1.3420 -0.2422  0.6554
   45MOL   H22424952   5.020   1.301   6.063 -0.0314  1.6774 -0.6014
   45MOL   H22524953   5.122   1.298   5.916 -1.8172 -0.9448 -0.8642
   45MOL   O22624954   5.440   1.353   6.298  0.1208  0.1928  0.1152
   45MOL   C22724955   5.412   1.237   6.382  0.4676 -0.1855  0.2598
   45MOL   C22824956   5.339   1.294   6.516  0.2192 -0.0010  0.2172
   45MOL   O22924957   5.440   1.348   6.598 -0.3358  0.1287  0.2582
   45MOL   C23024958   5.231   1.403   6.494 -0.0924 -1.3084  0.4842
   45MOL   C23124959   5.283   1.547   6.472 -0.2295 -0.2306  0.4393
   45MOL   C23224960   5.171   1.639   6.440  0.6952 -0.1856 -0.4368
   45MOL   O23324961   5.238   1.768   6.420 -0.2561  0.0275 -0.2349
   45MOL   C23424962   5.059   1.639   6.543 -0.2524 -1.4159  0.2426
   45MOL   C23524963   4.939   1.723   6.494  0.7806 -0.6706  0.5660
   45MOL   C23624964   5.015   1.501   6.584 -0.0825  0.5237 -0.4970
   45MOL   C23724965   5.133   1.406   6.614 -0.1644 -0.4772  0.0718
   45MOL   H23824966   5.504   1.193   6.422  0.2726 -0.7895  0.0502
   45MOL   H23924967   5.349   1.168   6.326  1.0149 -1.0238  0.6453
   45MOL   H24024968   5.296   1.203   6.559 -0.1742 -0.5075 -1.2113
   45MOL   H24124969   5.482   1.414   6.546  0.1074  0.8437  1.5254
   45MOL   H24224970   5.166   1.373   6.412 -0.1478  2.0737 -0.7835
   45MOL   H24324971   5.331   1.585   6.563  0.7736  0.2182 -0.2705
   45MOL   H24424972   5.360   1.567   6.398  1.6760  1.8493  2.8710
   45MOL   H24524973   5.120   1.608   6.348 -0.2325  0.7052 -0.2269
   45MOL   H24624974   5.170   1.827   6.446  0.6732  0.2851  1.6953
   45MOL   H24724975   5.107   1.685   6.630  0.9236  1.8847 -2.0895
   45MOL   H24824976   4.889   1.688   6.404  0.4489  1.0073  0.0785
   45MOL   H24924977   4.859   1.709   6.567  0.4160 -3.0109 -0.2546
   45MOL   H25024978   4.952   1.463   6.503  0.6512 -0.5353 -0.5833
   45MOL   H25124979   4.952   1.510   6.672 -0.9255  1.1335 -1.1641
   45MOL   H25224980   5.094   1.307   6.635  0.4734 -0.8184 -0.3236
   45MOL   H25324981   5.186   1.445   6.701 -1.1633  1.8932 -0.3439
   45MOL   O25424982   4.970   1.861   6.471  0.1976 -0.2393 -0.4917
   45MOL   C25524983   4.851   1.942   6.474  0.2843 -0.1827 -0.2334
   45MOL   C25624984   4.879   2.059   6.383  0.3431  0.2801 -0.0982
   45MOL   O25724985   4.875   1.997   6.258  0.0663  0.6656 -0.1970
   45MOL   C25824986   4.779   2.174   6.397 -0.0164 -0.3040  1.0016
   45MOL   C25924987   4.784   2.268   6.277 -0.7645  0.5543 -0.2956
   45MOL   C26024988   4.672   2.378   6.281  0.4070  0.9031  0.0973
   45MOL   O26124989   4.699   2.474   6.178 -0.7732 -0.1996 -0.1281
   45MOL   C26224990   4.674   2.456   6.418 -0.3609 -0.6625  0.4592
   45MOL   C26324991   4.556   2.552   6.427 -0.1722 -0.4598  0.0609
   45MOL   C26424992   4.680   2.366   6.545  0.1337 -0.2220 -0.6227
   45MOL   C26524993   4.785   2.256   6.536 -0.2188 -0.0491  1.1315
   45MOL   H26624994   4.840   1.974   6.578 -1.5989 -2.1296  0.2076
   45MOL   H26724995   4.756   1.896   6.447 -1.0744  1.1764  2.0261
   45MOL   H26824996   4.982   2.089   6.401  1.0620 -2.0082 -0.2867
   45MOL   H26924997   4.946   1.934   6.262 -2.2578 -1.9855  0.6459
   45MOL   H27024998   4.680   2.128   6.388  1.3848 -3.4256  0.8186
   45MOL   H27124999   4.882   2.316   6.280  0.2656 -1.4744 -0.1506
   45MOL   H27225000   4.774   2.216   6.182 -0.5358  1.3727 -0.7620
   45MOL   H27325001   4.574   2.332   6.267  0.6373 -0.3309  2.4222
   45MOL   H27425002   4.679   2.438   6.093 -0.1347  2.9058 -1.6653
   45MOL   H27525003   4.765   2.516   6.422 -1.0274  0.2391  2.5790
   45MOL   H27625004   4.547   2.619   6.342  2.1157 -1.3675 -0.9322
   45MOL   H27725005   4.472   2.483   6.415  0.6459 -0.9188 -3.5721
   45MOL   H27825006   4.579   2.326   6.559  0.3320 -1.1727 -1.9077
   45MOL   H27925007   4.688   2.427   6.636 -0.4452 -1.0619  0.0029
   45MOL   H28025008   4.781   2.189   6.622  2.0988 -0.6719  0.7840
   45MOL   H28125009   4.876   2.314   6.523 -1.2812  1.1226 -1.5612
   45MOL   O28225010   4.546   2.620   6.553  0.0503 -0.3485  0.0571
   45MOL   C28325011   4.657   2.711   6.562  0.0269  0.6877  0.5426
   45MOL   C28425012   4.660   2.788   6.697  0.1534 -0.1859  0.7313
   45MOL   O28525013   4.690   2.696   6.806  0.5923 -0.5772 -0.2169
   45MOL   C28625014   4.772   2.893   6.703 -0.3403  0.1774  0.6413
   45MOL   C28725015   4.780   2.956   6.846 -0.4825 -0.1086 -0.0375
   45MOL   C28825016   4.893   3.064   6.853 -0.2753 -0.4562 -0.3475
   45MOL   O28925017   4.881   3.133   6.980 -0.1857 -0.0472 -0.3085
   45MOL   C29025018   4.889   3.174   6.743 -0.0763  0.1390 -0.0679
   45MOL   C29125019   5.005   3.270   6.751  0.2952  1.0576 -0.1917
   45MOL   C29225020   4.874   3.101   6.608 -0.1672  0.0172  0.0796
   45MOL   C29325021   4.760   2.997   6.602 -0.9591  0.3248 -0.0835
   45MOL   H29425022   4.644   2.783   6.481 -0.8083 -0.4331 -0.3276
   45MOL   H29525023   4.757   2.675   6.536 -0.2392  0.0044  0.4591
   45MOL   H29625024   4.562   2.833   6.713 -0.0500 -0.5072  0.4021
   45MOL   H29725025   4.614   2.642   6.825  1.3825 -1.3827  0.6997
   45MOL   H29825026   4.864   2.841   6.677 -1.1312 -1.1169  0.4146
   45MOL   H29925027   4.686   3.006   6.868 -0.8069 -1.1022  0.8864
   45MOL   H30025028   4.799   2.895   6.934  0.3398  1.7241  1.0685
   45MOL   H30125029   4.992   3.018   6.849  1.0594  2.2601  0.7294
   45MOL   H30225030   4.963   3.173   7.004 -0.3244  0.2452 -0.3156
   45MOL   H30325031   4.800   3.235   6.755 -0.0997 -0.0990  0.9902
   45MOL   H30425032   4.979   3.343   6.828 -6.2767 -0.5038 -0.6835
   45MOL   H30525033   5.088   3.208   6.786 -1.2962 -0.2323  1.3844
   45MOL   H30625034   4.974   3.068   6.580  0.6800  3.6336 -1.5622
   45MOL   H30725035   4.859   3.182   6.536  0.7605 -1.3394 -1.6899
   45MOL   H30825036   4.762   2.961   6.499  0.4195  0.7054 -0.2031
   45MOL   H30925037   4.664   3.049   6.607 -0.4801  1.1505  0.6122
   45MOL   O31025038   5.045   3.320   6.624 -0.0066 -0.3185  0.6775
   45MOL   C31125039   5.160   3.404   6.624 -0.3854  0.1368  0.5926
   45MOL   C31225040   5.161   3.504   6.506  0.3736  0.0278 -0.0338
   45MOL   O31325041   5.215   3.427   6.400 -0.2568 -0.1275  0.0842
   45MOL   C31425042   5.018   3.549   6.467 -0.4995 -0.1561 -0.4013
   45MOL   C31525043   5.027   3.636   6.346 -0.1395  0.5021 -0.0409
   45MOL   C31625044   4.894   3.703   6.298  0.4184  0.0859  0.5713
   45MOL   O31725045   4.918   3.793   6.193 -0.4468 -0.1163  0.5471
   45MOL   C31825046   4.823   3.776   6.414  0.3500  0.0775 -0.6930
   45MOL   C31925047   4.681   3.829   6.390  0.8908 -0.2092 -0.4404
   45MOL   C32025048   4.822   3.684   6.542 -1.1171 -0.6517  0.0573
   45MOL   C32125049   4.965   3.644   6.579 -0.3025 -0.6805  0.1384
   45MOL   H32225050   5.255   3.351   6.615 -0.9279 -0.9970  1.4516
   45MOL   H32325051   5.156   3.461   6.716  0.1232  0.2160  0.5665
   45MOL   H32425052   5.225   3.588   6.532  0.0658 -0.2753  1.7712
   45MOL   H32525053   5.150   3.361   6.384 -1.8466  1.7758 -1.5596
   45MOL   H32625054   4.947   3.467   6.457  0.5833 -1.7152  3.6694
   45MOL   H32725055   5.104   3.713   6.356 -0.7126  1.1650 -0.6646
   45MOL   H32825056   5.068   3.573   6.268 -2.5395 -2.6832  1.1676
   45MOL   H32925057   4.829   3.624   6.258  0.0960  1.0835 -0.9039
   45MOL   H33025058   4.835   3.830   6.168  1.8051  2.3144 -3.8978
   45MOL   H33125059   4.881   3.866   6.437 -0.5561  1.5550 -3.8471
   45MOL   H33225060   4.611   3.745   6.393  0.8314 -0.1240  0.6120
   45MOL   H33325061   4.660   3.896   6.473  0.3671 -0.3515 -0.4559
   45MOL   H33425062   4.759   3.596   6.529  1.1521 -2.2796 -0.4121
   45MOL   H33525063   4.787   3.743   6.626  0.2791  0.7944 -0.3529
   45MOL   H33625064   4.962   3.594   6.676 -1.4637  1.4234  1.2278
   45MOL   H33725065   5.022   3.737   6.585 -0.3328 -0.6907  0.6190
   45MOL   O33825066   4.671   3.906   6.274 -0.4260  0.5625 -0.1152
   45MOL   C33925067   4.553   3.982   6.258  0.1792  0.6940 -0.7043
   45MOL   C34025068   4.460   3.906   6.158 -0.5358 -0.5425  0.3926
   45MOL   O34125069   4.427   3.780   6.221  0.4027 -0.0081  0.1809
   45MOL   C34225070   4.328   3.981   6.118  0.1511 -0.6152  0.9147
   45MOL   C34325071   4.229   3.990   6.239 -0.3940 -0.1349  0.1654
   45MOL   C34425072   4.093   4.053   6.192  0.0848 -0.2908 -0.5133
   45MOL   O34525073   4.012   4.044   6.299  0.1330 -0.2403 -0.3160
   45MOL   C34625074   4.031   3.975   6.075  0.6839 -0.0097  0.4171
   45MOL   C34725075   3.896   4.040   6.036 -0.2397 -0.3368 -0.2674
   45MOL   C34825076   4.128   3.964   5.955 -0.0014 -0.2284  0.0039
   45MOL   C34925077   4.255   3.897   6.010  0.3317 -0.2525 -0.5708
   45MOL   H35025078   4.575   4.079   6.212  2.0986  0.2872 -0.6739
   45MOL   H35125079   4.506   4.007   6.353 -0.3085 -1.3946 -0.3798
   45MOL   H35225080   4.516   3.893   6.065  1.5376 -3.2009  1.9381
   45MOL   H35325081   4.500   3.733   6.183  1.0637  0.1175  1.2562
   45MOL   H35425082   4.355   4.076   6.073  0.2847 -0.6397  0.9421
   45MOL   H35525083   4.213   3.889   6.277 -2.1322  0.6193  1.5132
   45MOL   H35625084   4.277   4.049   6.317  2.4682 -0.6291 -1.1853
   45MOL   H35725085   4.104   4.157   6.161 -0.5228 -1.0361 -3.3739
   45MOL   H35825086   3.991   3.954   6.317  1.6444 -1.0629 -2.4557
   45MOL   H35925087   3.996   3.875   6.099 -0.6463  0.1707 -0.7189
   45MOL   H36025088   3.826   4.043   6.119  0.6189 -0.9739  0.4812
   45MOL   H36125089   3.905   4.141   5.995  1.6602 -1.0880 -1.7378
   45MOL   H36225090   4.149   4.055   5.899 -0.5894 -0.6806 -0.9536
   45MOL   H36325091   4.085   3.904   5.875 -0.9389  0.4307 -0.0013
   45MOL   H36425092   4.321   3.870   5.928 -0.5507  2.0907 -2.1048
   45MOL   H36525093   4.230   3.797   6.047 -1.1349 -0.1662 -1.2894
   45MOL   O36625094   3.842   3.955   5.940  0.1448 -0.7032  0.2946
   45MOL   C36725095   3.708   3.988   5.910  0.1731 -0.2610 -0.2928
   45MOL   C36825096   3.657   3.879   5.822 -0.1410 -0.1215  0.5951
   45MOL   O36925097   3.728   3.881   5.697  0.2148  0.0051 -0.7079
   45MOL   C37025098   3.665   3.736   5.872  0.2525 -0.0899  0.0289
   45MOL   C37125099   3.563   3.646   5.793  0.6538 -0.2261 -0.2598
   45MOL   C37225100   3.565   3.499   5.841  0.2415  0.1715 -0.4294
   45MOL   O37325101   3.440   3.440   5.789 -0.2463  0.4825 -0.0971
   45MOL   C37425102   3.565   3.471   5.991  0.3882  0.3977 -0.1652
   45MOL   C37525103   3.605   3.328   6.023 -0.9823 -0.0577  0.2929
   45MOL   C37625104   3.663   3.566   6.058 -0.0793  0.7456 -0.0419
   45MOL   C37725105   3.641   3.714   6.022  0.3064 -0.0252  0.2878
   45MOL   H37825106   3.726   4.077   5.849 -0.7063  1.4594  1.8713
   45MOL   H37925107   3.651   3.994   6.003 -0.6415 -1.2240 -0.7149
   45MOL   H38025108   3.549   3.892   5.818 -0.1467 -0.5511 -1.0683
   45MOL   H38125109   3.806   3.933   5.710 -0.0874  0.6565 -1.4838
   45MOL   H38225110   3.766   3.700   5.851 -0.0857 -1.1652  0.2007
   45MOL   H38325111   3.466   3.695   5.797  0.4629 -0.6507  0.3468
   45MOL   H38425112   3.601   3.649   5.691 -1.2654  1.2376 -0.9587
   45MOL   H38525113   3.658   3.454   5.806  0.1367 -0.4054  0.0290
   45MOL   H38625114   3.464   3.354   5.760 -1.7554 -0.4679  1.3499
   45MOL   H38725115   3.469   3.492   6.038 -0.6689 -3.9046 -0.2534
   45MOL   H38825116   3.533   3.263   5.974  0.5905  0.6745 -3.1409
   45MOL   H38925117   3.705   3.300   5.990 -0.9734  0.9516 -0.5645
   45MOL   H39025118   3.767   3.541   6.042 -1.3772 -3.8606 -1.8574
   45MOL   H39125119   3.647   3.559   6.166  0.1998  1.7215  0.0728
   45MOL   H39225120   3.717   3.767   6.079  2.4420 -2.5076 -0.1282
   45MOL   H39325121   3.541   3.752   6.043  0.1397  0.0581 -0.6587
   45MOL   O39425122   3.586   3.305   6.161 -0.1695  0.2113  0.1229
   45MOL   C39525123   3.692   3.227   6.216 -0.2700 -0.3150 -0.7259
   45MOL   C39625124   3.632   3.159   6.344 -0.7301 -0.5123 -0.0580
   45MOL   O39725125   3.636   3.245   6.451  0.5390  0.1232 -0.5558
   45MOL   C39825126   3.499   3.087   6.322  0.8428 -0.5297  0.0353
   45MOL   C39925127   3.445   3.051   6.467 -0.1509 -0.4627 -0.1071
   45MOL   C40025128   3.315   2.973   6.457 -0.4371 -0.2134  0.9051
   45MOL   O40125129   3.297   2.935   6.581 -0.4592  0.5946  0.1021
   45MOL   C40225130   3.310   2.853   6.362  0.0513 -0.3838 -0.3207
   45MOL   C40325131   3.170   2.812   6.343 -0.0454 -0.1918  0.3317
   45MOL   C40425132   3.382   2.881   6.224  0.2612  0.1048  0.5349
   45MOL   C40525133   3.521   2.959   6.234  0.1827 -0.2902  0.0844
   45MOL   H40625134   3.778   3.287   6.248 -0.6055 -1.4740  2.6000
   45MOL   H40725135   3.726   3.141   6.159 -2.2054 -0.2920 -1.9391
   45MOL   H40825136   3.713   3.090   6.369 -0.5921 -0.1975  0.3664
   45MOL   H40925137   3.577   3.314   6.426 -1.4988 -1.3535  0.0268
   45MOL   H41025138   3.427   3.155   6.276  0.4941 -0.8563  0.0938
   45MOL   H41125139   3.517   3.000   6.531  2.0878  1.5950 -0.9307
   45MOL   H41225140   3.417   3.132   6.533  3.0218 -0.4297  1.2726
   45MOL   H41325141   3.239   3.048   6.439 -1.3089 -1.5517 -1.1348
   45MOL   H41425142   3.242   2.859   6.567 -2.8264  2.2173  0.2978
   45MOL   H41525143   3.376   2.776   6.401  0.5351  0.2126  0.0593
   45MOL   H41625144   3.133   2.784   6.442  0.2418  1.0038  0.7797
   45MOL   H41725145   3.110   2.898   6.314  1.5492  1.2908  1.3457
   45MOL   H41825146   3.307   2.930   6.161  0.0366  0.1965  0.8730
   45MOL   H41925147   3.391   2.786   6.172 -0.2386  0.3088  0.0690
   45MOL   H42025148   3.548   2.974   6.129  0.1290 -0.9901 -0.0296
   45MOL   H42125149   3.592   2.893   6.285  0.8732 -0.0225 -0.5110
   45MOL   O42225150   3.145   2.700   6.262 -0.1962 -0.1418  0.3288
   45MOL   C42325151   3.015   2.659   6.244 -0.1085 -0.0820  0.2885
   45MOL   C42425152   2.997   2.671   6.092 -0.3902  0.8057 -0.0272
   45MOL   O42525153   3.036   2.549   6.031 -0.2325  0.4450 -0.0554
   45MOL   C42625154   2.854   2.689   6.045 -0.5546  0.0471 -0.0217
   45MOL   C42725155   2.752   2.585   6.103 -0.4116 -0.5673  0.7339
   45MOL   C42825156   2.616   2.615   6.060  0.3741  0.0039  0.3394
   45MOL   O42925157   2.527   2.521   6.115  0.3733 -0.1016 -0.7155
   45MOL   C43025158   2.600   2.608   5.906  0.5017  0.8422  0.0947
   45MOL   C43125159   2.449   2.645   5.863 -0.5874  0.5229 -0.4630
   45MOL   C43225160   2.700   2.704   5.838 -0.6964 -0.1881  0.7185
   45MOL   C43325161   2.848   2.693   5.884  0.2689 -0.0281  0.5250
   45MOL   H43425162   2.952   2.727   6.300  0.3954 -0.3745  1.2153
   45MOL   H43525163   3.007   2.557   6.281  0.6679  0.8321  3.0646
   45MOL   H43625164   3.060   2.751   6.053  0.8541 -0.6566 -1.0667
   45MOL   H43725165   3.131   2.550   6.032 -0.2147 -0.3232  1.1999
   45MOL   H43825166   2.831   2.788   6.083 -0.1189 -0.0953  0.6058
   45MOL   H43925167   2.776   2.488   6.059 -1.4429 -1.0036  1.1214
   45MOL   H44025168   2.752   2.586   6.212  0.1277  2.1150  0.7580
   45MOL   H44125169   2.591   2.715   6.094  0.4935  0.4309 -0.8221
   45MOL   H44225170   2.444   2.531   6.072  0.6223  0.2823 -1.1250
   45MOL   H44325171   2.618   2.507   5.869 -2.1787  0.5958 -0.6137
   45MOL   H44425172   2.427   2.623   5.758  0.5813 -1.0640 -0.3912
   45MOL   H44525173   2.384   2.569   5.904  0.6457 -0.8963 -1.0733
   45MOL   H44625174   2.661   2.804   5.859 -0.8163 -0.1518  0.3298
   45MOL   H44725175   2.711   2.692   5.730  1.1753  2.4040  0.5753
   45MOL   H44825176   2.917   2.763   5.837 -0.9991 -0.5926 -2.2629
   45MOL   H44925177   2.889   2.601   5.843 -0.0218  0.1633 -0.1915
   45MOL   O45025178   2.417   2.779   5.897  0.1657 -0.4786 -0.1415
   45MOL   C45125179   2.295   2.822   5.853  0.0518  0.7900 -0.2931
   45MOL   C45225180   2.262   2.951   5.929 -0.2649 -0.3696  0.1897
   45MOL   O45325181   2.122   2.981   5.924 -0.0882  0.0209 -0.3008
   45MOL   C45425182   2.294   2.953   6.086 -0.7662  0.1970 -0.7121
   45MOL   C45525183   2.187   3.042   6.166  0.5068 -0.2939 -0.6082
   45MOL   C45625184   2.232   3.069   6.312  0.3291 -0.1326  0.6111
   45MOL   O45725185   2.135   3.156   6.372  0.4151 -0.0293  0.0150
   45MOL   C45825186   2.368   3.123   6.329  0.1486  0.0496 -0.6891
   45MOL   C45925187   2.399   3.131   6.479  0.1730 -0.1673  0.0469
   45MOL   C46025188   2.463   3.018   6.269 -1.0823 -0.0718  0.5533
   45MOL   C46125189   2.434   2.995   6.119 -0.0238  0.0316 -0.2344
   45MOL   H46225190   2.228   2.747   5.894  0.8623  0.5057  0.5016
   45MOL   H46325191   2.282   2.831   5.745  0.8044 -0.2169 -0.4693
   45MOL   H46425192   2.322   3.030   5.884 -0.4523 -0.1899  0.2538
   45MOL   H46525193   2.074   2.900   5.929  0.1012 -0.0620  0.1450
   45MOL   H46625194   2.291   2.848   6.112 -0.9310  1.0702  3.0454
   45MOL   H46725195   2.165   3.130   6.107 -0.4017 -0.3013 -0.2852
   45MOL   H46825196   2.097   2.980   6.166  0.4226 -0.1697 -0.1884
   45MOL   H46925197   2.232   2.970   6.357 -0.3245 -2.0220 -3.2964
   45MOL   H47025198   2.092   3.102   6.436  0.1977  0.5788  0.3900
   45MOL   H47125199   2.376   3.227   6.296  1.0881 -0.1488 -1.0979
   45MOL   H47225200   2.338   3.209   6.524  0.5669  0.0209  0.2538
   45MOL   H47325201   2.366   3.044   6.536  0.4178 -1.9171 -2.4076
   45MOL   H47425202   2.447   2.921   6.316  1.6697 -2.0108 -2.3541
   45MOL   H47525203   2.567   3.042   6.291 -0.8695 -1.3771  1.0045
   45MOL   H47625204   2.509   2.940   6.063  0.1865  0.2103 -0.1232
   45MOL   H47725205   2.439   3.094   6.075 -0.2184  0.0880 -0.1279
   45MOL   O47825206   2.536   3.146   6.504 -0.3780 -0.0157  1.1959
   45MOL   C47925207   2.580   3.111   6.636  0.1912 -0.0985  0.7431
   45MOL   C48025208   2.734   3.115   6.625  0.5281  0.1942 -0.0112
   45MOL   O48125209   2.758   3.250   6.614  0.7034  0.1788 -0.7837
   45MOL   C48225210   2.810   3.036   6.729 -0.8462 -0.2413 -0.0814
   45MOL   C48325211   2.966   3.057   6.719 -0.1067 -0.1907  0.6876
   45MOL   C48425212   3.040   2.969   6.817  0.6026  0.3289  0.3156
   45MOL   O48525213   3.180   2.997   6.819  0.4154 -0.0984  0.1422
   45MOL   C48625214   3.012   2.820   6.799  0.5203  0.4024  0.1757
   45MOL   C48725215   3.083   2.729   6.910 -0.1575 -0.7298 -0.0087
   45MOL   C48825216   2.860   2.799   6.809 -0.3151  0.5638  0.8808
   45MOL   C48925217   2.776   2.886   6.708 -0.7401  0.6304  0.1987
   45MOL   H49025218   2.549   3.007   6.646  1.1049 -0.4199  0.3410
   45MOL   H49125219   2.539   3.180   6.710 -3.1564 -1.6129  0.3858
   45MOL   H49225220   2.756   3.070   6.528 -0.4381 -0.2733 -0.0100
   45MOL   H49325221   2.742   3.272   6.523 -0.2153 -2.0431 -1.1839
   45MOL   H49425222   2.782   3.070   6.829 -0.2562 -1.4295  0.4890
   45MOL   H49525223   3.004   3.039   6.618 -0.7673 -0.3798  0.4694
   45MOL   H49625224   2.992   3.157   6.753  2.9158 -1.3567  2.0094
   45MOL   H49725225   3.010   2.998   6.918  1.2780  1.1410  0.2885
   45MOL   H49825226   3.213   2.999   6.731  0.0430 -0.7604 -0.0117
   45MOL   H49925227   3.041   2.772   6.706 -0.3512 -1.4662  0.8390
   45MOL   H50025228   3.078   2.625   6.877  1.7052 -1.6526  2.3969
   45MOL   H50125229   3.187   2.760   6.914 -0.3036 -0.4121  1.5688
   45MOL   H50225230   2.815   2.819   6.906 -0.5590 -0.5548  1.0022
   45MOL   H50325231   2.849   2.691   6.798  3.0218  0.2186  0.2717
   45MOL   H50425232   2.674   2.855   6.734 -0.6290  1.6285  1.9388
   45MOL   H50525233   2.786   2.856   6.604 -0.7360  0.8573  0.1348
   45MOL   O50625234   3.018   2.747   7.036 -0.1106 -0.8119 -0.1359
   45MOL   C50725235   3.068   2.661   7.141  0.1705  0.0621 -0.3573
   45MOL   C50825236   3.028   2.712   7.279 -0.2725  0.6872 -0.7729
   45MOL   O50925237   2.887   2.696   7.288  0.5005  0.0857  0.7163
   45MOL   C51025238   3.091   2.633   7.398 -0.5695 -0.2085 -0.8901
   45MOL   C51125239   3.242   2.658   7.403 -0.4379  0.3529  0.1118
   45MOL   C51225240   3.307   2.588   7.525  0.1595 -0.4205 -0.2006
   45MOL   O51325241   3.447   2.615   7.532  0.8118  0.3649 -0.3209
   45MOL   C51425242   3.274   2.436   7.528 -0.2603  0.0619  0.4938
   45MOL   C51525243   3.342   2.357   0.019 -0.1282 -0.8645  0.6767
   45MOL   C51625244   3.123   2.413   7.515  0.2572  0.2614 -0.3741
   45MOL   C51725245   3.054   2.483   7.394 -0.6356 -0.0268  0.6060
   45MOL   H51825246   3.176   2.676   7.129  0.2048 -1.1508 -1.8291
   45MOL   H51925247   3.051   2.555   7.122  0.2231  0.0986 -0.6154
   45MOL   H52025248   3.051   2.817   7.299  2.6831 -0.3863  2.0180
   45MOL   H52125249   2.850   2.757   7.226  3.1457  1.5537  0.5056
   45MOL   H52225250   3.053   2.671   7.493  2.3800 -1.3398  0.7962
   45MOL   H52325251   3.296   2.620   7.316 -0.5282 -1.4364  0.8161
   45MOL   H52425252   3.267   2.762   7.421  0.2786  0.1962  0.0381
   45MOL   H52525253   3.260   2.634   7.611 -0.4218 -0.5705 -0.4387
   45MOL   H52625254   3.462   2.687   7.592  1.1919  1.6407 -1.8916
   45MOL   H52725255   3.311   2.387   7.438  0.5676 -0.1162  0.9263
   45MOL   H52825256   3.448   2.383   0.014 -0.6195  1.0311 -0.3353
   45MOL   H52925257   3.290   2.387   0.110  1.1615  0.0637  1.1334
   45MOL   H53025258   3.076   2.443   7.609  0.1490  1.1181 -0.7016
   45MOL   H53125259   3.109   2.305   7.505  1.9031 -0.0384  0.3659
   45MOL   H53225260   2.947   2.463   7.387 -0.3495 -1.0922 -1.0407
   45MOL   H53325261   3.093   2.443   7.300 -0.2743  0.8501  0.3777
   45MOL   O53425262   3.314   2.227   7.621  0.9220 -0.3390  0.1985
   45MOL   C53525263   3.373   2.146   0.092 -0.3109 -0.3502 -0.2178
   45MOL   C53625264   3.316   2.002   0.093  0.4731 -0.1925  0.0914
   45MOL   O53725265   3.235   1.977   0.203  0.4196 -0.6643 -0.8435
   45MOL   C53825266   3.247   1.961   7.590  0.3698 -0.3583  0.1257
   45MOL   C53925267   3.194   1.817   7.595  0.0573 -0.5048  0.1349
   45MOL   C54025268   3.124   1.771   7.467  0.2510  0.5592  0.1327
   45MOL   O54125269   3.085   1.640   7.471 -0.8977  0.0819  0.1971
   45MOL   C54225270   3.210   1.785   7.339 -0.2973 -0.2003  0.1922
   45MOL   C54325271   3.138   1.748   7.211 -1.0772 -0.3319  0.0863
   45MOL   C54425272   3.264   1.932   7.338 -0.2902  0.4408  0.3217
   45MOL   C54525273   3.341   1.974   7.463 -0.1745 -0.1252  0.0580
   45MOL   H54625274   3.366   2.176   0.196 -1.1978 -1.6086  0.0950
   45MOL   H54725275   3.477   2.151   0.059  0.2148 -2.3619  1.0660
   45MOL   H54825276   3.392   1.925   0.110  1.2006  0.4765 -0.1413
   45MOL   H54925277   3.159   2.031   0.189  1.7575  0.9964 -2.0927
   45MOL   H55025278   3.156   2.017   7.569  0.5028 -0.2846 -0.2594
   45MOL   H55125279   3.271   1.744   7.622  0.6522 -1.2188 -3.2711
   45MOL   H55225280   3.119   1.811   0.044 -0.9865  0.8341 -0.7422
   45MOL   H55325281   3.036   1.834   7.461 -0.4354 -0.2490  1.6234
   45MOL   H55425282   3.159   1.583   7.456  0.0109  1.3008 -0.0807
   45MOL   H55525283   3.287   1.708   7.329  1.1047  1.2171 -0.1617
   45MOL   H55625284   3.048   1.809   7.206  0.7001  2.3060 -0.8735
   45MOL   H55725285   3.203   1.752   7.124  1.2133 -3.0889  1.5925
   45MOL   H55825286   3.182   2.004   7.336  1.0893  2.0163 -0.6933
   45MOL   H55925287   3.326   1.960   7.253 -0.6048 -0.1512 -0.1087
   45MOL   H56025288   3.384   2.074   7.457  0.6218 -0.5042 -0.8387
   45MOL   H56125289   3.437   1.921   7.465  1.3778  2.4641 -2.2643
   45MOL   H56225290   3.112   1.642   7.212  2.2785 -1.2418  2.6891
   46MOL     O125291   1.246   0.872   3.777 -0.4262 -0.3563  0.0046
   46MOL     C225292   1.122   0.817   3.814  0.5935  0.5714  0.5767
   46MOL     C325293   1.133   0.808   3.969  0.4026 -0.9719  0.7893
   46MOL     O425294   1.260   0.775   3.997  0.1798 -0.5086 -0.0252
   46MOL     C525295   1.093   0.941   4.037 -0.4012  0.2289  0.0540
   46MOL     C625296   1.130   0.934   4.185  0.4539  0.6001  0.5833
   46MOL     C725297   1.074   1.046   4.271  0.2089  0.0960 -0.1137
   46MOL     O825298   1.094   1.010   4.404 -0.0022  0.5929  0.0179
   46MOL     C925299   0.925   1.066   4.253  0.0181 -0.0408  0.3437
   46MOL    C1025300   0.858   1.183   4.332 -0.7493 -0.4386  0.1705
   46MOL    C1125301   0.883   1.082   4.108 -0.6538 -0.1120  0.0128
   46MOL    C1225302   0.943   0.968   4.016 -0.2117 -0.4800 -0.0376
   46MOL    H1325303   1.134   0.723   3.760  1.1245  0.1794  1.3640
   46MOL    H1425304   1.029   0.857   3.774  1.1778  1.4706  0.1200
   46MOL    H1525305   1.067   0.729   4.005  0.0879 -0.9503  0.2658
   46MOL    H1625306   1.253   0.691   4.039 -1.7533 -0.3157  0.0729
   46MOL    H1725307   1.150   1.025   3.999  1.7214 -0.9789  0.5030
   46MOL    H1825308   1.094   0.842   4.230  1.6873  0.8019  1.9960
   46MOL    H1925309   1.238   0.938   4.192  0.3294  1.0514  2.4785
   46MOL    H2025310   1.123   1.139   4.242 -3.1938  1.7957 -0.6104
   46MOL    H2125311   1.043   1.077   4.447 -0.0494  0.0867  0.7504
   46MOL    H2225312   0.879   0.972   4.285  0.2264 -0.0363  0.6519
   46MOL    H2325313   0.872   1.276   4.277 -0.3860 -0.0538  0.9153
   46MOL    H2425314   0.750   1.175   4.327 -0.7651  1.1688 -5.3295
   46MOL    H2525315   0.917   1.177   4.066  2.7961 -1.1972  0.2024
   46MOL    H2625316   0.776   1.074   4.091 -0.6775  0.7751 -0.2802
   46MOL    H2725317   0.924   0.991   3.911 -2.1739 -1.2305  0.1462
   46MOL    H2825318   0.894   0.872   4.034  0.2217 -0.5228  0.9787
   46MOL    H2925319   1.310   0.850   3.842 -0.7339  2.4117  1.3498
   46MOL    O3025320   0.915   1.196   4.464 -0.1385  0.6462 -0.1730
   46MOL    C3125321   0.827   1.123   4.555  0.0369 -0.6762 -0.3072
   46MOL    C3225322   0.857   1.134   4.710  0.1828  0.1093  0.7783
   46MOL    O3325323   0.765   1.044   4.770 -0.5541 -0.6820  0.4567
   46MOL    C3425324   1.000   1.094   4.746 -0.6350 -0.5385  0.6533
   46MOL    C3525325   1.053   0.949   4.725  0.5607 -1.1510  0.6030
   46MOL    C3625326   1.205   0.941   4.727  0.3932 -0.2598 -0.0746
   46MOL    O3725327   1.249   0.805   4.697  0.1807 -0.7303  0.1512
   46MOL    C3825328   1.257   0.996   4.862  0.0027  0.2673 -0.5543
   46MOL    C3925329   1.410   1.008   4.880  0.0656  0.5921  0.4328
   46MOL    C4025330   1.191   1.133   4.897 -0.0953  0.5039 -0.4119
   46MOL    C4125331   1.041   1.132   4.886 -0.3235  0.7531  0.3391
   46MOL    H4225332   0.824   1.025   4.508 -0.3319 -0.0531 -1.6016
   46MOL    H4325333   0.724   1.157   4.555 -0.1051 -1.1031 -0.5110
   46MOL    H4425334   0.839   1.237   4.742  3.2004  1.3053 -1.0560
   46MOL    H4525335   0.737   1.077   4.854 -2.1212  2.5842 -1.2642
   46MOL    H4625336   1.068   1.155   4.687 -1.4700  0.8194  1.0712
   46MOL    H4725337   0.997   0.887   4.795 -1.3213  0.6057  0.7070
   46MOL    H4825338   1.024   0.920   4.624  0.0489  0.1634  0.3537
   46MOL    H4925339   1.241   1.013   4.653 -1.7314  1.3558  0.3998
   46MOL    H5025340   1.332   0.811   4.650  0.2602 -0.7032  0.2955
   46MOL    H5125341   1.234   0.928   4.943 -0.3624  1.1700  0.1066
   46MOL    H5225342   1.442   1.071   4.797 -0.8648  0.3130 -0.1482
   46MOL    H5325343   1.429   1.056   4.976  1.0544  0.6197  0.2369
   46MOL    H5425344   1.236   1.211   4.835  0.4339  1.9931  1.7926
   46MOL    H5525345   1.226   1.154   4.998 -0.1266 -0.0653 -0.2819
   46MOL    H5625346   1.008   1.229   4.922 -1.7903  0.6361 -0.6346
   46MOL    H5725347   0.994   1.065   4.958  2.1306 -1.9598 -0.4658
   46MOL    O5825348   1.474   0.880   4.868 -0.0179 -0.2679 -0.1433
   46MOL    C5925349   1.608   0.888   4.888  0.0650  0.8445 -0.1823
   46MOL    C6025350   1.660   0.745   4.865 -0.8297  0.0806 -0.3438
   46MOL    O6125351   1.644   0.665   4.976  0.3592 -0.1135  0.0996
   46MOL    C6225352   1.618   0.671   4.733  1.1511 -0.5119  0.2777
   46MOL    C6325353   1.716   0.556   4.703  0.3290 -0.2424  0.0626
   46MOL    C6425354   1.679   0.473   4.581  0.2032 -0.5174 -0.6594
   46MOL    O6525355   1.777   0.367   4.553  0.5085 -0.4050 -0.1409
   46MOL    C6625356   1.676   0.578   4.473 -0.4977  0.1256 -0.4252
   46MOL    C6725357   1.654   0.524   4.332  0.2364  0.2803  0.4724
   46MOL    C6825358   1.560   0.679   4.494 -0.5065  0.0548  0.6424
   46MOL    C6925359   1.599   0.765   4.610 -0.1458  0.4027  0.3827
   46MOL    H7025360   1.646   0.932   4.981  0.7353 -0.9885  0.4311
   46MOL    H7125361   1.652   0.953   4.813  2.0216 -0.5183 -0.2423
   46MOL    H7225362   1.767   0.762   4.854 -1.0735  1.3301 -0.9216
   46MOL    H7325363   1.554   0.642   4.995  0.3344  1.3338  1.8698
   46MOL    H7425364   1.522   0.622   4.751  1.0931 -0.8653 -0.9962
   46MOL    H7525365   1.814   0.600   4.684  0.5836 -1.4850 -1.5961
   46MOL    H7625366   1.728   0.495   4.793  0.6000 -0.2599  0.0161
   46MOL    H7725367   1.584   0.432   4.612  0.5564 -0.2253  0.8379
   46MOL    H7825368   1.725   0.300   4.594 -4.1703  2.4475 -0.8881
   46MOL    H7925369   1.772   0.627   4.457  0.4215 -1.0194  1.4585
   46MOL    H8025370   1.678   0.597   4.255  0.2078 -1.1704 -0.9442
   46MOL    H8125371   1.713   0.433   4.317 -0.9456 -0.6860  1.5771
   46MOL    H8225372   1.466   0.633   4.525 -0.8725 -0.0960 -0.6784
   46MOL    H8325373   1.535   0.740   4.407  1.4234 -0.6356 -0.4065
   46MOL    H8425374   1.516   0.833   4.627  0.8918  2.2353 -1.6526
   46MOL    H8525375   1.686   0.820   4.576 -1.2826  1.8987 -0.1372
   46MOL    O8625376   1.512   0.493   4.304  0.5631 -0.0157  0.5032
   46MOL    C8725377   1.500   0.469   4.165  0.0135  0.5416 -0.1329
   46MOL    C8825378   1.351   0.425   4.142  0.6385 -0.2330  0.0488
   46MOL    O8925379   1.287   0.551   4.175 -0.1162  0.4623  0.0779
   46MOL    C9025380   1.304   0.400   4.002 -0.1453 -0.6328  0.1923
   46MOL    C9125381   1.148   0.390   3.998 -0.0855 -0.2823 -0.2714
   46MOL    C9225382   1.102   0.355   3.855 -0.4820  0.7013  0.3674
   46MOL    O9325383   0.959   0.359   3.845  0.4225  0.4957 -0.3205
   46MOL    C9425384   1.167   0.230   3.797 -0.8521  0.9153  0.1447
   46MOL    C9525385   1.143   0.210   3.637 -0.4797 -0.2682 -1.1345
   46MOL    C9625386   1.317   0.226   3.815  0.2412 -0.3544 -0.2118
   46MOL    C9725387   1.369   0.265   3.955  0.2079  0.2908 -0.5963
   46MOL    H9825388   1.566   0.388   4.132  0.7308  0.1863  2.1243
   46MOL    H9925389   1.518   0.560   4.108  0.1439 -1.0675 -2.7700
   46MOL   H10025390   1.325   0.347   4.214  1.2358  0.2278  0.7818
   46MOL   H10125391   1.330   0.576   4.256 -0.0578 -0.9136  0.4931
   46MOL   H10225392   1.343   0.479   3.938 -1.0153  1.9381  2.7634
   46MOL   H10325393   1.124   0.308   4.067 -2.3486 -1.2799 -2.1987
   46MOL   H10425394   1.091   0.476   4.034 -1.4591 -1.1602 -0.2879
   46MOL   H10525395   1.135   0.434   3.787  2.9573 -1.1684 -0.2394
   46MOL   H10625396   0.926   0.294   3.905  1.0665 -0.0668 -0.5703
   46MOL   H10725397   1.121   0.147   3.850 -0.0682  0.4137  0.0455
   46MOL   H10825398   1.039   0.193   3.610 -0.5796 -1.7372  0.1551
   46MOL   H10925399   1.163   0.307   3.590  1.5332  0.0336  0.2978
   46MOL   H11025400   1.364   0.295   3.745  1.9937 -0.8436  0.4714
   46MOL   H11125401   1.352   0.127   3.788 -0.4443 -0.0028 -2.6102
   46MOL   H11225402   1.477   0.273   3.963  0.2694 -1.2627  0.4172
   46MOL   H11325403   1.345   0.190   4.031 -0.2866  0.7197 -0.3194
   46MOL   O11425404   1.205   0.092   3.590  0.3162 -0.4471  0.3769
   46MOL   C11525405   1.213   0.076   3.446  0.2849 -0.7035  0.6443
   46MOL   C11625406   1.290   7.578   3.405  0.1599 -0.6693 -0.6678
   46MOL   O11725407   1.422   7.613   3.459 -0.0566 -0.4989  0.0280
   46MOL   C11825408   1.259   7.441   3.463 -0.3593  0.1842 -0.1570
   46MOL   C11925409   1.354   7.328   3.419 -0.0950 -0.1669  0.1803
   46MOL   C12025410   1.299   7.195   3.469  1.1327  0.0510  0.1811
   46MOL   O12125411   1.387   7.095   3.427 -0.3105  0.6272 -0.7200
   46MOL   C12225412   1.154   7.159   3.420 -0.6423 -0.6191  0.7843
   46MOL   C12325413   1.103   7.017   3.472  0.9181  0.2093 -0.1590
   46MOL   C12425414   1.066   7.269   3.476 -0.8509 -0.4262 -0.3435
   46MOL   C12525415   1.113   7.411   3.436  0.1092 -0.3417 -0.0830
   46MOL   H12625416   1.269   0.167   3.426 -1.8457  0.2964 -1.0601
   46MOL   H12725417   1.109   0.081   3.414  0.7146  0.3557 -0.6326
   46MOL   H12825418   1.289   7.579   3.296  1.0776 -0.2880 -0.6736
   46MOL   H12925419   1.397   0.034   3.535 -1.3356  1.6764 -1.7865
   46MOL   H13025420   1.268   7.441   3.572  1.0846 -3.3991 -0.2216
   46MOL   H13125421   1.357   7.330   3.310 -2.0302 -0.6526  0.0988
   46MOL   H13225422   1.452   7.352   3.461  0.8540 -0.2803 -1.9244
   46MOL   H13325423   1.295   7.196   3.577 -0.0760 -3.1649  0.2151
   46MOL   H13425424   1.338   7.015   3.429 -0.9670  1.0475  0.3567
   46MOL   H13525425   1.161   7.153   3.311  2.1402 -0.4339  0.9232
   46MOL   H13625426   1.100   7.013   3.581  2.4592 -0.3286 -0.1346
   46MOL   H13725427   0.998   7.005   3.445  0.8140  0.6109  0.0687
   46MOL   H13825428   1.055   7.261   3.584  1.0855 -2.5860 -0.2537
   46MOL   H13925429   0.967   7.265   3.431 -0.7724 -2.5828 -0.3463
   46MOL   H14025430   1.051   7.488   3.482  0.0517  0.6744 -1.8398
   46MOL   H14125431   1.098   7.421   3.329  1.4725  2.1635 -0.0870
   46MOL   O14225432   1.172   6.908   3.410  0.4265  0.7350 -0.0232
   46MOL   C14325433   1.140   6.775   3.456  0.8311 -0.1873 -0.0404
   46MOL   C14425434   1.023   6.719   3.360 -0.7922 -0.1740 -0.2718
   46MOL   O14525435   1.094   6.671   3.246  0.1237 -0.1068  0.3983
   46MOL   C14625436   0.936   6.613   3.432 -0.5711  0.1710  0.4317
   46MOL   C14725437   0.853   6.541   3.331  0.5020 -0.2657  0.0028
   46MOL   C14825438   0.770   6.431   3.397  0.7493 -0.3271 -0.2460
   46MOL   O14925439   0.676   6.383   3.299 -0.4274 -0.0250  0.4719
   46MOL   C15025440   0.686   6.474   3.517  0.3204 -0.4456 -0.1145
   46MOL   C15125441   0.609   6.362   3.587 -0.6517  0.2818 -0.9723
   46MOL   C15225442   0.760   6.570   3.608 -0.4789  0.4630 -1.0275
   46MOL   C15325443   0.847   6.679   3.541 -0.6594  0.3053 -0.6379
   46MOL   H15425444   1.112   6.779   3.561 -1.0243  0.2534 -0.5311
   46MOL   H15525445   1.231   6.716   3.458  2.2266  1.7689 -2.7906
   46MOL   H15625446   0.957   6.799   3.328 -0.7784 -0.6687 -1.5501
   46MOL   H15725447   1.173   6.722   3.239  0.7037 -1.1894 -1.1703
   46MOL   H15825448   0.998   6.543   3.486 -0.0062  0.0870 -0.3132
   46MOL   H15925449   0.795   6.620   3.282  1.6729  0.3999 -0.3482
   46MOL   H16025450   0.903   6.490   3.249 -0.8765 -0.4208 -0.7583
   46MOL   H16125451   0.836   6.353   3.435 -0.4130 -1.5193 -0.6479
   46MOL   H16225452   0.626   6.459   3.274  0.5411  0.6668  0.5951
   46MOL   H16325453   0.609   6.542   3.481  0.8424  0.4525  0.4366
   46MOL   H16425454   0.558   6.403   3.674 -1.3953 -0.4464 -1.0592
   46MOL   H16525455   0.530   6.328   3.520 -0.9142 -0.5031 -0.2691
   46MOL   H16625456   0.831   6.503   3.656  1.6124  2.7559 -0.7885
   46MOL   H16725457   0.690   6.610   3.682  2.0828  0.6206  1.4085
   46MOL   H16825458   0.913   6.719   3.618  0.8144 -2.4360 -0.4165
   46MOL   H16925459   0.788   6.756   3.491 -0.6644 -0.5142 -1.9195
   46MOL   O17025460   0.692   6.255   3.614  0.0749 -0.0889  0.0266
   46MOL   C17125461   0.751   6.258   3.744  0.7816  0.4103 -0.2577
   46MOL   C17225462   0.826   6.126   3.766  1.0042 -0.0399 -0.4329
   46MOL   O17325463   0.917   6.129   3.656 -0.3414 -0.1436  0.4435
   46MOL   C17425464   0.905   6.126   3.905 -0.6706 -0.5625  0.7950
   46MOL   C17525465   0.983   5.991   3.926 -0.4966  0.2492  0.5548
   46MOL   C17625466   1.055   5.974   4.056 -0.2588  0.1133 -0.4757
   46MOL   O17725467   1.091   5.835   4.060  0.0955  0.4220 -0.3880
   46MOL   C17825468   0.963   5.995   4.171  1.0202  0.3054 -0.8345
   46MOL   C17925469   1.045   6.021   4.302  0.4397  0.1992 -0.1896
   46MOL   C18025470   0.879   6.129   4.151  0.1206  0.5523  0.6718
   46MOL   C18125471   0.803   6.135   4.016  0.5534  0.2044  0.2145
   46MOL   H18225472   0.669   6.277   3.813  0.6522  1.1637 -0.6085
   46MOL   H18325473   0.822   6.339   3.762  2.7251 -1.1897 -0.5203
   46MOL   H18425474   0.765   6.037   3.753 -0.2426  0.5740  1.0679
   46MOL   H18525475   0.872   6.102   3.578 -0.3356 -0.2058  0.4616
   46MOL   H18625476   0.970   6.213   3.908  2.4631 -2.8524  1.0657
   46MOL   H18725477   0.900   5.921   3.922  0.9597 -1.4752 -0.3102
   46MOL   H18825478   1.035   5.950   3.840 -0.3147  2.6195 -0.5143
   46MOL   H18925479   1.136   6.046   4.046  0.0492  0.0560  1.3627
   46MOL   H19025480   1.061   5.803   3.975 -0.5843  0.0329 -0.0108
   46MOL   H19125481   0.895   5.912   4.188  1.4104 -0.3832 -2.5858
   46MOL   H19225482   0.975   6.037   4.384  0.5415 -0.4344  0.0233
   46MOL   H19325483   1.110   5.944   4.343  1.8922  2.4032  1.7682
   46MOL   H19425484   0.941   6.219   4.155 -1.4055  1.6120  1.0613
   46MOL   H19525485   0.797   6.130   4.223  0.6385  0.6641  1.2620
   46MOL   H19625486   0.733   6.219   4.008  0.8175  0.5247  1.2389
   46MOL   H19725487   0.729   6.055   4.013 -0.2553  0.6981  4.0581
   46MOL   O19825488   1.138   6.133   4.290 -0.0518 -0.0277  0.6721
   46MOL   C19925489   1.192   6.167   4.413 -0.3208  0.3704  0.1448
   46MOL   C20025490   1.299   6.274   4.375 -0.4265  0.1174 -0.2603
   46MOL   O20125491   1.228   6.391   4.339  0.3114 -0.0851  0.0128
   46MOL   C20225492   1.416   6.312   4.474 -0.6089  0.9309 -0.4082
   46MOL   C20325493   1.368   6.384   4.596 -0.0020 -0.7104  0.0738
   46MOL   C20425494   1.489   6.410   4.691  0.1870  0.4462 -0.1793
   46MOL   O20525495   1.452   6.490   4.797  0.2059 -0.2227 -0.2069
   46MOL   C20625496   1.606   6.481   4.622  0.1050 -0.5247  0.0704
   46MOL   C20725497   1.727   6.498   4.718  0.3132  0.2568 -0.1337
   46MOL   C20825498   1.646   6.397   4.496  0.0689 -0.3944 -0.5079
   46MOL   C20925499   1.526   6.387   4.404  0.2587  0.1990 -0.2309
   46MOL   H21025500   1.254   6.080   4.436 -1.7365 -0.8479 -0.5597
   46MOL   H21125501   1.131   6.191   4.499  0.1690 -1.5507  1.0680
   46MOL   H21225502   1.347   6.236   4.285 -0.1746 -0.7607  0.2406
   46MOL   H21325503   1.184   6.363   4.260  0.4809 -0.1317 -0.0646
   46MOL   H21425504   1.459   6.213   4.488  2.2251  2.2504  0.5035
   46MOL   H21525505   1.335   6.481   4.558 -0.4255 -1.5943 -1.8687
   46MOL   H21625506   1.279   6.338   4.638 -0.2109  0.7957  1.3503
   46MOL   H21725507   1.513   6.318   4.744  1.3119  1.4465  1.0690
   46MOL   H21825508   1.528   6.538   4.827  1.2542 -1.4212 -0.8971
   46MOL   H21925509   1.572   6.580   4.593  1.7448  0.4780  1.4931
   46MOL   H22025510   1.783   6.405   4.735 -0.6106  0.0573  1.8665
   46MOL   H22125511   1.796   6.550   4.652 -0.9773  0.4502 -1.3590
   46MOL   H22225512   1.685   6.301   4.531  0.8256 -0.0020 -0.2707
   46MOL   H22325513   1.727   6.447   4.442 -1.5633 -0.4337 -3.0573
   46MOL   H22425514   1.551   6.335   4.312  1.6999 -0.5949  0.6089
   46MOL   H22525515   1.498   6.486   4.367  1.1123  0.5566  0.0567
   46MOL   O22625516   1.686   6.586   4.831 -0.2215  0.0145  1.0067
   46MOL   C22725517   1.792   6.657   4.890  0.0099 -0.4396  0.0165
   46MOL   C22825518   1.887   6.568   4.986 -0.2996 -0.0934 -0.0812
   46MOL   O22925519   2.017   6.626   4.993 -1.1345 -0.2409  0.2190
   46MOL   C23025520   1.837   6.532   5.133 -0.5402 -0.7385 -0.0026
   46MOL   C23125521   1.846   6.657   5.223 -0.2530  0.5310 -1.1180
   46MOL   C23225522   1.811   6.624   5.373 -0.2867  0.3487 -0.6672
   46MOL   O23325523   1.827   6.741   5.456  0.2037 -0.6168  0.3651
   46MOL   C23425524   1.902   6.513   5.431  0.0620  0.2590 -0.0855
   46MOL   C23525525   1.862   6.474   5.574  0.7204  0.6957  0.1183
   46MOL   C23625526   1.893   6.385   5.342  0.7274 -0.2029  0.2906
   46MOL   C23725527   1.929   6.418   5.192 -0.5217 -0.5768  0.1374
   46MOL   H23825528   1.749   6.734   4.954  0.9812  0.3347 -0.2527
   46MOL   H23925529   1.859   6.705   4.818 -0.8219 -1.7461 -1.6741
   46MOL   H24025530   1.906   6.471   4.940  1.7584  0.1099  0.3057
   46MOL   H24125531   2.081   6.584   4.938 -1.2879 -0.4615  0.2098
   46MOL   H24225532   1.738   6.493   5.109 -0.7301 -1.3404  1.7255
   46MOL   H24325533   1.945   6.702   5.222 -0.1401  0.2753 -3.3227
   46MOL   H24425534   1.764   6.718   5.185  1.4617  4.4771  1.2873
   46MOL   H24525535   1.706   6.600   5.388  0.4938 -2.5685  0.5888
   46MOL   H24625536   1.841   6.721   5.547  3.1079 -3.4827 -0.6601
   46MOL   H24725537   2.007   6.541   5.431 -0.6853  3.2106 -1.2371
   46MOL   H24825538   1.764   6.427   5.583  0.9608  0.2344  0.3799
   46MOL   H24925539   1.929   6.397   5.611  1.7310  1.1375 -0.7647
   46MOL   H25025540   1.787   6.356   5.341  0.2664  1.4742 -0.9018
   46MOL   H25125541   1.946   6.299   5.384 -0.8153 -1.6382 -0.6226
   46MOL   H25225542   1.910   6.328   5.133  0.4736 -1.1609  0.6810
   46MOL   H25325543   2.036   6.432   5.184 -0.5206  0.6346  1.8434
   46MOL   O25425544   1.866   6.591   5.660  0.7485 -0.3463  0.3041
   46MOL   C25525545   1.848   6.560   5.796  0.3534 -0.3099 -0.3114
   46MOL   C25625546   1.864   6.682   5.887 -0.3404 -0.0278  0.6379
   46MOL   O25725547   1.882   6.644   6.020 -0.1896  0.0811 -0.2245
   46MOL   C25825548   1.980   6.776   5.840 -0.3530 -0.1999 -1.2739
   46MOL   C25925549   2.107   6.700   5.855 -0.4399 -0.5797  0.0555
   46MOL   C26025550   2.223   6.791   5.816 -0.4985  0.0416  0.1202
   46MOL   O26125551   2.338   6.718   5.847  0.3814  0.9236  0.1659
   46MOL   C26225552   2.226   6.923   5.898  0.5363  0.1016 -0.4417
   46MOL   C26325553   2.347   7.014   5.874  0.7012  0.3580  0.4623
   46MOL   C26425554   2.096   7.005   5.884 -0.4818 -0.7614 -0.1627
   46MOL   C26525555   1.984   6.906   5.920 -0.0194 -0.9331 -0.1759
   46MOL   H26625556   1.931   6.495   5.823 -0.2209 -0.8673  0.1320
   46MOL   H26725557   1.752   6.515   5.822 -0.1056 -0.5854 -2.4304
   46MOL   H26825558   1.770   6.738   5.885 -0.6834 -0.5992  0.4593
   46MOL   H26925559   1.974   6.642   6.039  0.0144 -1.1413 -1.2523
   46MOL   H27025560   1.963   6.798   5.735 -0.4623 -0.0806 -1.2312
   46MOL   H27125561   2.129   6.660   5.954  0.5979  0.3359  0.1981
   46MOL   H27225562   2.104   6.612   5.791  2.3878 -1.2212  0.7280
   46MOL   H27325563   2.225   6.819   5.711  1.4369  0.2803  0.2199
   46MOL   H27425564   2.408   6.755   5.796  0.2288 -1.1008 -1.5618
   46MOL   H27525565   2.237   6.899   6.004  0.7179  0.7260 -0.3175
   46MOL   H27625566   2.331   7.105   5.932 -1.1445  1.0782 -1.1151
   46MOL   H27725567   2.439   6.965   5.905  0.9554 -0.1599 -1.0905
   46MOL   H27825568   2.094   7.043   5.782  1.1749 -1.4357 -0.4582
   46MOL   H27925569   2.091   7.084   5.959  1.3864 -0.4377 -0.3677
   46MOL   H28025570   1.898   6.971   5.904  1.2051  0.4396 -1.3335
   46MOL   H28125571   1.979   6.880   6.026  4.6888 -2.0130 -0.0987
   46MOL   O28225572   2.339   7.048   5.736 -0.3491  0.4979 -1.0823
   46MOL   C28325573   2.436   7.143   5.695 -0.3129  0.8064 -0.0191
   46MOL   C28425574   2.374   7.219   5.574  0.8779  0.5754 -0.3486
   46MOL   O28525575   2.484   7.270   5.496  0.3301 -0.7135  0.1219
   46MOL   C28625576   2.287   7.142   5.476 -0.4447 -0.3245 -0.3291
   46MOL   C28725577   2.364   7.035   5.392 -0.0878 -0.1711  0.2616
   46MOL   C28825578   2.281   6.957   5.298  0.7255 -0.0418  0.0320
   46MOL   O28925579   2.359   6.862   5.227 -0.1539 -0.7192  0.1407
   46MOL   C29025580   2.201   7.054   5.205  0.3825 -0.2789  0.0269
   46MOL   C29125581   2.103   6.967   5.126  0.7501  0.1560  0.7290
   46MOL   C29225582   2.126   7.166   5.281  0.1229  0.6500 -0.1124
   46MOL   C29325583   2.215   7.240   5.383 -0.0157 -0.0758 -0.0585
   46MOL   H29425584   2.519   7.076   5.671 -1.3040 -0.1740 -0.7363
   46MOL   H29525585   2.476   7.205   5.775  2.6319 -1.1679  0.1177
   46MOL   H29625586   2.308   7.295   5.617  1.1342  0.2891  0.5664
   46MOL   H29725587   2.450   7.343   5.447 -0.6867 -0.2645  1.4683
   46MOL   H29825588   2.207   7.094   5.532 -0.8786  1.9140  1.0548
   46MOL   H29925589   2.440   7.075   5.325 -1.2440 -2.8169 -2.7628
   46MOL   H30025590   2.411   6.956   5.451  0.6562 -0.8613 -1.2440
   46MOL   H30125591   2.209   6.904   5.360  0.5633  4.7449  4.3152
   46MOL   H30225592   2.392   6.811   5.299 -0.6030  0.1182  0.9559
   46MOL   H30325593   2.262   7.104   5.131  0.6840  0.2064  0.5956
   46MOL   H30425594   2.163   6.917   5.050 -0.0631  0.3656 -0.0596
   46MOL   H30525595   2.045   6.898   5.187  2.2289 -1.1090  0.7176
   46MOL   H30625596   2.036   7.127   5.328 -1.5833  2.3426 -1.8525
   46MOL   H30725597   2.093   7.230   5.199  0.3105 -0.8224 -1.3640
   46MOL   H30825598   2.155   7.306   5.446  0.2649 -0.5426  0.7062
   46MOL   H30925599   2.292   7.309   5.350 -0.4369  0.3211 -0.2298
   46MOL   O31025600   2.004   7.052   5.061 -0.0948 -0.6717 -0.1226
   46MOL   C31125601   1.895   6.973   4.999  0.3303 -0.2305 -0.6280
   46MOL   C31225602   1.807   7.075   4.931 -0.0990 -0.5281  0.4745
   46MOL   O31325603   1.772   7.153   5.038 -0.2488  0.0401  0.1894
   46MOL   C31425604   1.875   7.158   4.819  0.1618 -0.1920 -0.6045
   46MOL   C31525605   1.763   7.244   4.748  0.2768 -0.0976 -0.7755
   46MOL   C31625606   1.827   7.331   4.642  1.0589  0.8760  0.3879
   46MOL   O31725607   1.726   7.410   4.578  0.2821  0.4017 -0.1200
   46MOL   C31825608   1.907   7.249   4.537 -0.6482  0.0105  0.2347
   46MOL   C31925609   1.996   7.330   4.435  0.2546 -0.2626 -0.3537
   46MOL   C32025610   1.999   7.151   4.605  0.7496  0.3874  0.3693
   46MOL   C32125611   1.926   7.065   4.704  0.3215 -0.1869 -1.0114
   46MOL   H32225612   1.842   6.914   5.073  0.6441  2.5969  1.9426
   46MOL   H32325613   1.943   6.909   4.924 -1.0751 -2.7175  0.5421
   46MOL   H32425614   1.717   7.023   4.898 -0.0596  0.1170 -0.6411
   46MOL   H32525615   1.850   7.155   5.090  0.0357  1.3558 -0.2569
   46MOL   H32625616   1.962   7.212   4.856 -0.0234 -0.4820  0.2768
   46MOL   H32725617   1.676   7.185   4.719  0.0672 -0.9352  1.4813
   46MOL   H32825618   1.707   7.305   4.818  1.8015 -0.5607  0.8766
   46MOL   H32925619   1.899   7.399   4.687  3.2260 -1.9321  1.3196
   46MOL   H33025620   1.714   7.485   4.633  2.9783  1.0665 -0.3663
   46MOL   H33125621   1.834   7.190   4.481 -0.3558 -1.3947  1.2880
   46MOL   H33225622   2.071   7.271   4.383  1.1752 -0.4337  1.1547
   46MOL   H33325623   1.929   7.378   4.363 -0.0795 -0.3210 -0.0848
   46MOL   H33425624   2.086   7.198   4.651  0.8334 -1.2279  1.8898
   46MOL   H33525625   2.041   7.091   4.524  1.2326  1.4183 -0.1611
   46MOL   H33625626   1.999   6.985   4.720 -0.2805 -0.4029  0.7491
   46MOL   H33725627   1.839   7.017   4.658  0.3523 -2.3082  1.0253
   46MOL   O33825628   2.083   7.411   4.505 -0.0904  0.0922 -0.1168
   46MOL   C33925629   2.179   7.483   4.427  0.7061  0.5682  0.8987
   46MOL   C34025630   2.269   7.547   4.531 -0.0835  0.3670 -0.6167
   46MOL   O34125631   2.192   0.019   4.579  0.6458 -0.1948  0.2977
   46MOL   C34225632   2.319   7.455   4.639 -0.6090 -0.4570 -0.1603
   46MOL   C34325633   2.433   7.523   4.726 -0.2056 -0.1626 -0.0903
   46MOL   C34425634   2.488   7.435   4.839 -0.3451 -1.0647  0.1889
   46MOL   O34525635   2.605   7.496   4.891  0.0837 -0.1559 -0.2665
   46MOL   C34625636   2.515   7.288   4.809 -0.6931 -0.4638  0.0039
   46MOL   C34725637   2.515   7.196   4.930 -0.0736 -0.0250  0.6855
   46MOL   C34825638   2.404   7.232   4.707  0.3683 -0.5872  0.4061
   46MOL   C34925639   2.374   7.326   4.588 -0.0169  0.3227  0.4175
   46MOL   H35025640   2.135   7.556   4.359 -0.1671 -0.1439  0.6884
   46MOL   H35125641   2.244   7.424   4.363 -1.2124  0.5660 -1.1288
   46MOL   H35225642   2.358   7.589   4.485  0.7364 -0.9666 -0.2634
   46MOL   H35325643   2.104   7.617   4.569  0.0415  1.9118 -1.2308
   46MOL   H35425644   2.241   7.423   4.708  0.3565 -1.7137  0.3746
   46MOL   H35525645   2.521   7.543   4.666 -0.0920 -1.1993 -0.2855
   46MOL   H35625646   2.400   7.620   4.761 -0.5769 -0.4336  0.3168
   46MOL   H35725647   2.414   7.437   4.919 -1.9619 -0.5132 -1.2828
   46MOL   H35825648   2.637   7.435   4.956 -1.8680 -0.9028  0.0280
   46MOL   H35925649   2.608   7.277   4.754 -0.4600  1.3164  0.0276
   46MOL   H36025650   2.428   7.206   4.994  0.1808  0.5773  0.9357
   46MOL   H36125651   2.516   7.095   4.887  2.9074 -0.0547  0.7122
   46MOL   H36225652   2.315   7.206   4.762  1.0813 -3.3214  0.3401
   46MOL   H36325653   2.444   7.135   4.677  1.0294  0.0505 -0.8486
   46MOL   H36425654   2.311   7.265   4.523 -0.1857  0.0380  0.8439
   46MOL   H36525655   2.469   7.338   4.536 -0.2439  0.1905 -0.0308
   46MOL   O36625656   2.628   7.221   5.002  0.3960  0.8059 -0.5344
   46MOL   C36725657   2.633   7.153   5.128 -0.5326  0.2867  0.5538
   46MOL   C36825658   2.777   7.169   5.181 -0.3840  0.1060 -0.2217
   46MOL   O36925659   2.856   7.073   5.108  0.2126  0.1273 -0.2259
   46MOL   C37025660   2.826   7.311   5.180 -0.1785  0.3405  0.6251
   46MOL   C37125661   2.973   7.310   5.227  0.1955  0.5016  0.8046
   46MOL   C37225662   3.039   7.450   5.219  0.1341  0.0692  0.3334
   46MOL   O37325663   3.169   7.452   5.263 -0.4781  0.2936  0.2527
   46MOL   C37425664   2.946   7.554   5.298 -0.7939 -0.1995 -0.1297
   46MOL   C37525665   2.999   0.062   5.285 -0.8182  0.3063 -0.6165
   46MOL   C37625666   2.800   7.555   5.256 -0.7143  0.6104  0.4245
   46MOL   C37725667   2.743   7.415   5.271  0.1848  0.1705  0.4975
   46MOL   H37825668   2.602   7.049   5.126  0.8114 -0.1122 -0.4822
   46MOL   H37925669   2.563   7.198   5.198 -0.9714 -2.5264  1.9930
   46MOL   H38025670   2.770   7.136   5.285  0.4788  1.3870  0.2483
   46MOL   H38125671   2.799   7.014   5.060 -0.0531  0.2212 -0.0251
   46MOL   H38225672   2.824   7.350   5.078  1.9758  1.1566  0.8719
   46MOL   H38325673   2.961   7.288   5.333  1.8271  2.7821  1.5211
   46MOL   H38425674   3.035   7.233   5.180 -0.9706  0.8977 -1.4571
   46MOL   H38525675   3.056   7.479   5.115  0.2687  0.2096  0.3944
   46MOL   H38625676   3.217   7.525   5.229  0.5612 -0.6601 -0.3336
   46MOL   H38725677   2.954   7.527   5.404 -0.6166  1.2065  0.2317
   46MOL   H38825678   3.048   0.069   5.188  1.3286  0.4118  0.4445
   46MOL   H38925679   2.924   0.142   5.287  0.6756  1.6827  1.9079
   46MOL   H39025680   2.803   7.595   5.155  1.3276 -0.2142  0.1421
   46MOL   H39125681   2.742   7.628   5.312 -2.3905  0.6062 -1.2553
   46MOL   H39225682   2.635   7.405   5.256  0.2538 -0.0852  0.1643
   46MOL   H39325683   2.751   7.384   5.375 -3.6007  0.4503  0.9542
   46MOL   O39425684   3.104   0.091   5.374  0.2628 -0.4392 -0.1515
   46MOL   C39525685   3.135   0.229   5.395  1.1243 -0.0673  0.3223
   46MOL   C39625686   3.254   0.239   5.494 -0.0124 -0.6605  0.0044
   46MOL   O39725687   3.291   0.372   5.513 -0.7359 -0.5674 -0.0275
   46MOL   C39825688   3.226   0.177   5.635 -0.3109  0.0204  0.6154
   46MOL   C39925689   3.145   0.259   5.728  1.2422 -0.9637 -0.2531
   46MOL   C40025690   3.140   0.199   5.867  0.0938 -0.3351 -0.1728
   46MOL   O40125691   3.065   0.302   5.939  0.1823  0.2049 -0.1562
   46MOL   C40225692   3.281   0.175   5.929  0.6191  0.5939  0.3241
   46MOL   C40325693   3.273   0.104   6.072  0.1329 -0.1725 -0.1080
   46MOL   C40425694   3.360   0.088   5.839  0.3417  0.1578  0.3703
   46MOL   C40525695   3.366   0.155   5.700 -0.5843 -0.6580 -0.2682
   46MOL   H40625696   3.043   0.281   5.423  0.0444 -2.9301  2.2443
   46MOL   H40725697   3.174   0.272   5.302  2.2064  0.5169  1.0460
   46MOL   H40825698   3.344   0.194   5.452  1.5180  1.4136  0.9301
   46MOL   H40925699   3.367   0.368   5.569  0.2920 -0.1198 -1.3567
   46MOL   H41025700   3.179   0.080   5.617 -1.0158  0.3758  0.5390
   46MOL   H41125701   3.177   0.363   5.737  3.4581 -1.7630  1.6566
   46MOL   H41225702   3.047   0.272   5.682  1.3645  0.7269 -0.0786
   46MOL   H41325703   3.091   0.102   5.862  0.2368 -0.4467  0.4715
   46MOL   H41425704   2.978   0.294   5.903 -0.5043  1.6166  1.1416
   46MOL   H41525705   3.314   0.279   5.930 -1.0100  1.1419 -0.3578
   46MOL   H41625706   3.224   0.163   6.150 -0.4996 -1.2668  0.3386
   46MOL   H41725707   3.213   0.013   6.062 -0.4900  0.1938  0.2010
   46MOL   H41825708   3.309   7.621   5.828  0.4052  0.3123 -1.4840
   46MOL   H41925709   3.461   0.068   5.874  0.0434  0.0402  1.1837
   46MOL   H42025710   3.434   0.101   5.634  0.5353  0.0007  0.3255
   46MOL   H42125711   3.417   0.250   5.715  2.2037 -2.1908  0.4331
   46MOL   O42225712   3.403   0.087   6.131  0.2804  0.0837  0.4596
   46MOL   C42325713   3.467   0.207   6.173 -0.8147  0.1304  0.4155
   46MOL   C42425714   3.595   0.163   6.242  0.6056  0.2844 -0.3784
   46MOL   O42525715   3.542   0.142   6.367 -0.9008 -0.2767  0.0932
   46MOL   C42625716   3.672   0.047   6.189 -0.2309 -0.5245  0.3116
   46MOL   C42725717   3.782   7.629   6.287 -0.0902 -0.5317 -0.3112
   46MOL   C42825718   3.854   7.507   6.238  0.6954  0.0426  0.1731
   46MOL   O42925719   3.949   7.472   6.338  0.3843  0.5271  0.1069
   46MOL   C43025720   3.920   7.536   6.106  1.0736  0.1215  0.0792
   46MOL   C43125721   3.995   7.409   6.053 -0.5964 -0.0788  0.9174
   46MOL   C43225722   3.815   7.581   5.998 -0.1139 -0.3457  0.0212
   46MOL   C43325723   3.729   0.074   6.053  0.0779 -0.1399 -0.2870
   46MOL   H43425724   3.397   0.276   6.221 -0.1820  0.4280  0.9145
   46MOL   H43525725   3.505   0.250   6.081  1.9383 -1.3603  0.8114
   46MOL   H43625726   3.650   0.257   6.243  2.0849 -0.5554 -0.4923
   46MOL   H43725727   3.506   0.056   6.352 -0.2016 -1.1687  3.0870
   46MOL   H43825728   3.610   7.588   6.172  0.3306 -1.0986  1.2471
   46MOL   H43925729   3.854   0.080   6.300  0.5850 -1.3538  1.1571
   46MOL   H44025730   3.747   7.613   6.389  0.7695 -2.4123 -0.2937
   46MOL   H44125731   3.785   7.424   6.220 -0.0546  1.4324 -3.8643
   46MOL   H44225732   3.898   7.448   6.413  3.2807  0.8383  2.2589
   46MOL   H44325733   3.986   7.621   6.120  1.5234 -0.2348  0.1221
   46MOL   H44425734   4.067   7.380   6.129  0.6576 -0.6123 -0.4506
   46MOL   H44525735   3.920   7.330   6.045  1.7010 -2.1869 -0.5183
   46MOL   H44625736   3.740   7.504   5.978  0.0756 -0.1196 -1.6384
   46MOL   H44725737   3.864   7.610   5.905  1.2659 -3.3376 -0.2463
   46MOL   H44825738   3.650   0.102   5.983  0.8680  0.8348 -0.8035
   46MOL   H44925739   3.791   0.164   6.058  2.0990 -1.5747  1.2486
   46MOL   O45025740   4.047   7.435   5.920  0.1064 -0.5321 -0.4418
   46MOL   C45125741   4.102   7.318   5.859 -0.1914 -0.9326 -0.5352
   46MOL   C45225742   4.145   7.329   5.708 -0.6747 -0.6807  0.3400
   46MOL   O45325743   4.270   7.406   5.713  0.3048  0.0412  0.0238
   46MOL   C45425744   4.174   7.200   5.625  0.1204  1.0953  0.1668
   46MOL   C45525745   4.194   7.239   5.475  0.2878 -1.8121  0.1638
   46MOL   C45625746   4.219   7.115   5.388  1.2995 -0.5318 -0.2163
   46MOL   O45725747   4.214   7.161   5.256  0.3345 -0.1349  0.7336
   46MOL   C45825748   4.113   7.008   5.393 -0.2440 -0.1492 -0.2800
   46MOL   C45925749   4.143   6.887   5.306 -0.2580  0.2350 -0.8621
   46MOL   C46025750   4.082   6.975   5.538  0.0773 -0.2355  0.2684
   46MOL   C46125751   4.056   7.095   5.620  0.0057  0.0754  0.2830
   46MOL   H46225752   4.037   7.231   5.866 -1.9080  0.3095 -0.6805
   46MOL   H46325753   4.188   7.292   5.919 -1.1086 -0.0708  1.1968
   46MOL   H46425754   4.062   7.384   5.664  0.0711 -1.2968 -1.8659
   46MOL   H46525755   4.247   7.492   5.682  0.7127  1.1155  2.6445
   46MOL   H46625756   4.265   7.153   5.662  0.9267  1.8115 -0.8929
   46MOL   H46725757   4.114   7.297   5.429 -0.7374 -1.9662  1.7052
   46MOL   H46825758   4.280   7.305   5.476 -1.2258  0.2171 -1.0329
   46MOL   H46925759   4.318   7.077   5.412  2.0948  2.7284  1.9337
   46MOL   H47025760   4.279   7.228   5.239  0.0003  0.6047  2.3289
   46MOL   H47125761   4.024   7.052   5.348 -0.8597 -0.3929  0.6891
   46MOL   H47225762   4.061   6.816   5.314 -1.7978  2.0880  0.3241
   46MOL   H47325763   4.151   6.922   5.203  0.4170 -0.5354 -1.0725
   46MOL   H47425764   4.165   6.924   5.587  0.3700 -0.0074  0.0165
   46MOL   H47525765   3.992   6.914   5.537  1.0771 -1.8569  2.9998
   46MOL   H47625766   4.032   7.055   5.719  3.1432 -1.9557  0.3097
   46MOL   H47725767   3.966   7.150   5.595 -0.8824  0.3187  3.7597
   46MOL   O47825768   4.259   6.819   5.341  0.4173  0.5880 -0.5251
   46MOL   C47925769   4.311   6.717   5.259  0.0141 -0.0255 -0.2747
   46MOL   C48025770   4.437   6.647   5.340 -0.1500 -0.6498 -0.1122
   46MOL   O48125771   4.479   6.518   5.302  0.3084 -0.3168 -0.9363
   46MOL   C48225772   4.565   6.732   5.340  0.1335 -0.3652 -0.6524
   46MOL   C48325773   4.551   6.873   5.413 -0.0505  0.1331  0.7737
   46MOL   C48425774   4.687   6.944   5.423  0.3518 -0.2443  0.1743
   46MOL   O48525775   4.678   7.065   5.492  0.4950  0.2589  0.0521
   46MOL   C48625776   4.743   6.966   5.283  0.1879 -0.6309  0.4856
   46MOL   C48725777   4.867   7.056   5.271 -0.6874  0.2218  0.3412
   46MOL   C48825778   4.755   6.840   5.192  0.0913  0.1464  0.1745
   46MOL   C48925779   4.619   6.756   5.194 -0.3217  0.4854  0.2211
   46MOL   H49025780   4.348   6.774   5.174  2.1975  0.3049  0.8639
   46MOL   H49125781   4.234   6.652   5.215 -1.2610 -0.2187  2.1630
   46MOL   H49225782   4.408   6.617   5.441 -0.6097 -0.7326 -0.2677
   46MOL   H49325783   4.403   6.462   5.310 -0.1034  0.1078 -1.7838
   46MOL   H49425784   4.642   6.680   5.397  1.6532 -0.6790 -2.9226
   46MOL   H49525785   4.495   6.945   5.353 -1.2731 -0.7838  0.8085
   46MOL   H49625786   4.510   6.862   5.513 -3.0313  1.4662 -0.2603
   46MOL   H49725787   4.760   6.888   5.482  0.1580  0.2023  0.8453
   46MOL   H49825788   4.645   7.050   5.580  0.4439  0.9367  0.1473
   46MOL   H49925789   4.668   7.027   5.233  0.0380  1.1252  2.7725
   46MOL   H50025790   4.856   7.149   5.327  0.2068  0.1504  0.6427
   46MOL   H50125791   4.948   7.004   5.322 -1.8158 -0.4927  1.4512
   46MOL   H50225792   4.839   6.776   5.221  0.9014  0.5684 -1.2048
   46MOL   H50325793   4.767   6.873   5.089  1.9073 -2.0920 -0.3776
   46MOL   H50425794   4.629   6.661   5.141 -1.4361  0.7889 -0.5670
   46MOL   H50525795   4.550   6.811   5.129 -0.1976 -0.0400 -0.3621
   46MOL   O50625796   4.899   7.089   5.135 -0.3350  0.5480 -0.3909
   46MOL   C50725797   5.037   7.054   5.105 -0.5694 -0.6345  0.4447
   46MOL   C50825798   5.063   7.069   4.954 -0.4671 -0.5452 -0.5131
   46MOL   O50925799   4.982   6.966   4.913 -0.4196 -0.2687  0.1194
   46MOL   C51025800   5.026   7.200   4.880 -0.2147 -0.2747 -0.2934
   46MOL   C51125801   5.074   7.198   4.733 -0.4064  0.4470  0.2544
   46MOL   C51225802   5.045   7.328   4.656 -0.3000  0.2558  0.3944
   46MOL   O51325803   5.119   7.312   4.532  0.3372 -0.9384  0.2437
   46MOL   C51425804   5.098   7.450   4.727 -0.2112  0.4656 -0.0167
   46MOL   C51525805   5.066   7.574   4.646  0.0904  0.1854  0.2261
   46MOL   C51625806   5.043   7.462   4.875 -0.0215  0.2395  0.9033
   46MOL   C51725807   5.072   7.329   4.954 -0.4613 -0.9646  0.4545
   46MOL   H51825808   5.065   6.952   5.128  2.7892  0.3115  0.7755
   46MOL   H51925809   5.103   7.124   5.157 -0.8796 -0.6597  0.8804
   46MOL   H52025810   5.166   7.044   4.932  0.0818  0.4439  0.8628
   46MOL   H52125811   4.993   6.889   4.965  1.8629 -0.5926 -0.7716
   46MOL   H52225812   4.917   7.205   4.883 -0.1425  2.1217 -0.8286
   46MOL   H52325813   5.183   7.191   4.742 -0.5363  0.6494  2.0196
   46MOL   H52425814   5.037   7.106   4.687 -0.8429  0.3241  0.8575
   46MOL   H52525815   4.939   7.344   4.639 -0.0351  0.0315 -1.6473
   46MOL   H52625816   5.209   7.309   4.563 -0.8570 -0.3421  3.9369
   46MOL   H52725817   5.205   7.457   4.748 -0.8122  4.0242  2.4093
   46MOL   H52825818   5.074   7.551   4.540 -2.6677  0.3025 -0.0617
   46MOL   H52925819   4.960   7.600   4.655  0.2347  1.5922 -1.8155
   46MOL   H53025820   4.940   7.499   4.875 -0.6154 -1.3431  2.0923
   46MOL   H53125821   5.093   7.540   4.932  1.5836 -0.8066  0.9419
   46MOL   H53225822   5.021   7.329   5.051  1.0161 -2.2536  1.2602
   46MOL   H53325823   5.179   7.337   4.975 -0.6888  0.4360  1.1900
   46MOL   O53425824   5.147   0.048   4.686  0.6353 -1.1360  0.1526
   46MOL   C53525825   5.265   0.078   4.607 -0.5077 -0.7142  0.2753
   46MOL   C53625826   5.227   0.141   4.473  0.3675  0.0522  0.3463
   46MOL   O53725827   5.228   0.280   4.484  0.1999  0.3580 -0.2024
   46MOL   C53825828   5.330   0.105   4.357  0.3896  0.3860 -0.3338
   46MOL   C53925829   5.299   0.185   4.226  0.5381  0.2137 -0.1320
   46MOL   C54025830   5.388   0.149   4.107 -0.3322 -0.3856 -0.3097
   46MOL   O54125831   5.338   0.215   3.991  0.1658 -0.0632  0.0347
   46MOL   C54225832   5.380   7.625   4.082  0.0942  0.1256  0.1258
   46MOL   C54325833   5.490   7.582   3.977  0.2882 -0.2271  0.4266
   46MOL   C54425834   5.402   7.546   4.212  0.2657  0.3077  0.2519
   46MOL   C54525835   5.306   7.587   4.324 -0.3769 -0.5947 -0.5231
   46MOL   H54625836   5.328   7.619   4.593 -0.6859 -1.2229  2.4745
   46MOL   H54725837   5.345   0.134   4.657 -0.3743 -1.8005  1.3166
   46MOL   H54825838   5.126   0.116   4.441 -0.1638 -1.7082  3.2511
   46MOL   H54925839   5.153   0.314   4.531 -1.5032 -1.3946 -1.5419
   46MOL   H55025840   5.432   0.126   4.388  0.2238  3.6616 -1.7825
   46MOL   H55125841   5.193   0.177   4.203  0.7093 -0.0666 -0.8438
   46MOL   H55225842   5.306   0.291   4.248 -1.5507  0.5940 -1.1571
   46MOL   H55325843   5.490   0.180   4.132 -0.3970 -0.1048 -0.3845
   46MOL   H55425844   5.268   0.276   4.007 -0.2257 -1.0918  2.5183
   46MOL   H55525845   5.282   7.601   4.039 -0.4280  1.4090  0.5812
   46MOL   H55625846   5.503   7.475   3.961  0.0280 -0.1523 -0.3469
   46MOL   H55725847   5.471   0.003   3.882 -0.2425 -1.1031  0.0626
   46MOL   H55825848   5.507   7.559   4.239  0.8838 -1.6571 -1.0540
   46MOL   H55925849   5.378   7.441   4.192  0.9997 -0.1111  1.5185
   46MOL   H56025850   5.317   7.519   4.409 -2.6490 -0.0873  0.2140
   46MOL   H56125851   5.202   7.579   4.291 -0.3705  1.4950 -1.0977
   46MOL   H56225852   5.591   7.619   3.998 -0.3492  2.2392 -0.6529
   47MOL     O125853   4.997   4.319   6.310  0.3501 -0.0392 -0.1931
   47MOL     C225854   5.028   4.199   6.248  0.4951  0.4749  0.5658
   47MOL     C325855   5.130   4.224   6.135  0.3138  0.2810 -0.5660
   47MOL     O425856   5.235   4.306   6.193  0.0902  0.3539 -0.0281
   47MOL     C525857   5.196   4.096   6.076 -0.0230 -1.1255 -0.7435
   47MOL     C625858   5.324   4.132   6.005  0.0484  0.4043 -0.3415
   47MOL     C725859   5.393   4.003   5.961 -0.2794 -0.0486  0.8332
   47MOL     O825860   5.509   4.039   5.895  0.5157  0.5447  0.0136
   47MOL     C925861   5.307   3.920   5.872 -0.3487  0.3601  0.3195
   47MOL    C1025862   5.371   3.786   5.832  0.5575  0.1253 -0.1013
   47MOL    C1125863   5.170   3.890   5.937 -0.9155  0.5500 -0.1612
   47MOL    C1225864   5.104   4.017   5.982  0.1014 -0.1940  0.0691
   47MOL    H1325865   4.943   4.150   6.201  0.5442  1.1171 -0.2194
   47MOL    H1425866   5.074   4.136   6.323  0.4995 -0.2574 -0.0488
   47MOL    H1525867   5.082   4.271   6.050 -0.7639 -1.1916 -0.8024
   47MOL    H1625868   5.183   4.370   6.239 -2.9395 -0.7715 -1.7305
   47MOL    H1725869   5.214   4.028   6.159 -0.9239  0.3307  0.6738
   47MOL    H1825870   5.314   4.183   5.909 -1.0495 -1.3561 -1.1830
   47MOL    H1925871   5.385   4.188   6.076 -2.3207 -0.1030  2.1660
   47MOL    H2025872   5.420   3.942   6.047  0.6014  0.3890  0.8677
   47MOL    H2125873   5.479   4.113   5.845  1.0407 -0.1959 -1.4147
   47MOL    H2225874   5.292   3.975   5.779 -1.6310 -0.0469  0.2732
   47MOL    H2325875   5.464   3.807   5.779 -0.6371 -1.3588 -2.8832
   47MOL    H2425876   5.400   3.736   5.925  4.0468 -0.0496 -1.2319
   47MOL    H2525877   5.178   3.823   6.023 -2.2799 -1.2402 -1.3831
   47MOL    H2625878   5.106   3.835   5.868 -0.6243 -0.6876  0.5453
   47MOL    H2725879   5.009   3.980   6.022 -1.4941  1.5680 -1.9798
   47MOL    H2825880   5.082   4.067   5.888  2.9875 -0.5477 -0.8512
   47MOL    H2925881   5.060   4.341   6.377 -1.5958  4.2519  0.4181
   47MOL    O3025882   5.280   3.708   5.753  0.1358  0.2098  0.4919
   47MOL    C3125883   5.343   3.579   5.712 -0.8460  0.1141 -0.1998
   47MOL    C3225884   5.233   3.486   5.660  0.0691  0.1138  0.3515
   47MOL    O3325885   5.307   3.402   5.572  0.4855  0.4267 -0.7476
   47MOL    C3425886   5.172   3.417   5.776  0.2551  0.2676  0.2468
   47MOL    C3525887   5.078   3.307   5.727 -0.4319 -0.2808 -0.0418
   47MOL    C3625888   5.031   3.212   5.834 -0.0042  0.5087 -0.1514
   47MOL    O3725889   4.926   3.134   5.790 -0.6991 -0.6275 -0.4560
   47MOL    C3825890   4.972   3.289   5.951  0.3236 -0.0814 -0.1188
   47MOL    C3925891   4.941   3.204   6.079 -0.3809  0.3840 -0.0194
   47MOL    C4025892   5.067   3.399   5.990 -0.1214 -0.3112 -0.1448
   47MOL    C4125893   5.112   3.498   5.883 -0.0004 -0.2107  0.2468
   47MOL    H4225894   5.409   3.537   5.788 -0.7287 -2.4379 -1.6430
   47MOL    H4325895   5.407   3.602   5.627 -1.8805  2.0232 -0.4780
   47MOL    H4425896   5.165   3.547   5.601  0.4721 -1.2402 -1.5838
   47MOL    H4525897   5.385   3.366   5.612  1.5860  2.8718 -0.5865
   47MOL    H4625898   5.249   3.357   5.823  0.7607  0.4594 -0.3441
   47MOL    H4725899   4.997   3.358   5.676 -1.0083 -1.7877 -0.6754
   47MOL    H4825900   5.131   3.253   5.648 -0.1399  1.6322 -1.1919
   47MOL    H4925901   5.104   3.139   5.870  0.7729  1.2936 -0.1150
   47MOL    H5025902   4.879   3.095   5.863  1.1360 -0.6533  0.7390
   47MOL    H5125903   4.880   3.339   5.920  0.6533 -0.1747 -1.2435
   47MOL    H5225904   5.035   3.165   6.118 -0.9979 -1.7196 -0.5233
   47MOL    H5325905   4.892   3.261   6.158 -0.0582 -0.2411  0.6383
   47MOL    H5425906   5.153   3.357   6.042  1.2614  3.2624  0.5787
   47MOL    H5525907   5.019   3.452   6.073  1.5560  1.9944 -0.6105
   47MOL    H5625908   5.191   3.562   5.921 -0.2117 -0.5806  1.3106
   47MOL    H5725909   5.028   3.564   5.858 -0.7303 -0.9954  0.5987
   47MOL    O5825910   4.854   3.101   6.043  0.2119  0.3176  0.5504
   47MOL    C5925911   4.822   3.023   6.156  0.3592 -0.3868 -0.0195
   47MOL    C6025912   4.796   2.879   6.102 -0.4809 -0.5234  0.3108
   47MOL    O6125913   4.767   2.798   6.212 -0.1576 -0.2487  0.3210
   47MOL    C6225914   4.679   2.872   5.996 -0.1755 -0.3086  0.7879
   47MOL    C6325915   4.533   2.890   6.059 -0.3913 -0.1333 -0.7015
   47MOL    C6425916   4.428   2.891   5.953  0.3452  0.5751 -0.2685
   47MOL    O6525917   4.310   2.914   6.026 -0.6056  0.1609  0.4842
   47MOL    C6625918   4.422   2.754   5.877 -0.0091 -0.0190 -0.2857
   47MOL    C6725919   4.321   2.753   5.760  0.0123  0.1477  0.2573
   47MOL    C6825920   4.564   2.726   5.809  0.5253  0.3341 -0.1206
   47MOL    C6925921   4.674   2.737   5.915  0.2553 -0.4134  0.0660
   47MOL    H7025922   4.751   3.076   6.219 -2.0337 -2.8729 -0.5281
   47MOL    H7125923   4.911   3.006   6.216  2.1198  1.3732 -2.0592
   47MOL    H7225924   4.889   2.841   6.060 -0.6437  0.0801 -0.6182
   47MOL    H7325925   4.793   2.709   6.192 -1.3329 -0.4547 -0.3093
   47MOL    H7425926   4.688   2.950   5.921 -2.7840 -1.7681 -1.1328
   47MOL    H7525927   4.521   2.816   6.138  0.9814 -0.6702 -0.9705
   47MOL    H7625928   4.527   2.981   6.119  1.4240 -1.3287  1.4062
   47MOL    H7725929   4.449   2.968   5.879  0.1782 -0.0674 -0.9891
   47MOL    H7825930   4.303   3.006   6.045  0.0771  0.7112 -1.6996
   47MOL    H7925931   4.397   2.681   5.955 -0.1730 -0.5049 -0.7914
   47MOL    H8025932   4.367   2.801   5.674  3.0948 -1.9874  0.6651
   47MOL    H8125933   4.308   2.657   5.712  1.2039  0.0258  0.1689
   47MOL    H8225934   4.582   2.798   5.729  1.1780 -0.1330 -0.3925
   47MOL    H8325935   4.552   2.630   5.761  0.6175  0.7428 -0.9692
   47MOL    H8425936   4.767   2.704   5.869  0.4967  0.5047 -0.1190
   47MOL    H8525937   4.657   2.664   5.994 -0.0732 -0.2783  0.1220
   47MOL    O8625938   4.193   2.807   5.790 -0.2895  0.1731  0.9874
   47MOL    C8725939   4.148   2.896   5.694 -0.2189  0.3702 -0.0702
   47MOL    C8825940   4.007   2.938   5.741  0.0064  0.3861 -0.5614
   47MOL    O8925941   4.043   3.011   5.860 -0.0804 -0.2123 -0.4358
   47MOL    C9025942   3.938   3.039   5.653 -0.8136 -0.0836 -0.2534
   47MOL    C9125943   3.822   3.103   5.725  0.1148 -0.1567 -0.5811
   47MOL    C9225944   3.731   3.194   5.640  1.0668  0.2371  0.2350
   47MOL    O9325945   3.612   3.217   5.711  0.0331  0.3488  0.3718
   47MOL    C9425946   3.683   3.122   5.513  1.2989 -0.1876  0.2499
   47MOL    C9525947   3.608   3.222   5.422  0.5041 -0.2009 -0.0189
   47MOL    C9625948   3.804   3.057   5.443 -0.1561 -0.0965  0.1156
   47MOL    C9725949   3.885   2.962   5.525 -0.6675 -0.2406 -0.3762
   47MOL    H9825950   4.127   2.855   5.596  1.7314  0.4617 -0.5386
   47MOL    H9925951   4.218   2.979   5.687  1.1511 -0.8026 -0.3953
   47MOL   H10025952   3.943   2.853   5.763  1.4648 -0.7952 -0.7646
   47MOL   H10125953   4.108   2.957   5.901 -0.4030  0.3696  0.8668
   47MOL   H10225954   4.008   3.115   5.618  0.1854  0.4251  2.7367
   47MOL   H10325955   3.770   3.020   5.773  0.9136 -0.2691  0.0920
   47MOL   H10425956   3.858   3.158   5.812 -2.0914  1.1688 -0.4571
   47MOL   H10525957   3.773   3.291   5.617  0.7878  0.2149 -0.3649
   47MOL   H10625958   3.559   3.139   5.715 -0.1269  0.4950  1.0487
   47MOL   H10725959   3.616   3.039   5.535  0.8600  0.1654  0.2550
   47MOL   H10825960   3.553   3.300   5.476  1.4054 -0.3047  1.0830
   47MOL   H10925961   3.674   3.284   5.362 -1.1448  1.4532 -0.1600
   47MOL   H11025962   3.867   3.139   5.409  0.0856 -0.1800  0.3585
   47MOL   H11125963   3.777   3.015   5.346  0.1657 -0.9131  0.3785
   47MOL   H11225964   3.956   2.914   5.457 -0.8058  1.4288 -1.7133
   47MOL   H11325965   3.814   2.887   5.562  1.6735 -2.2696  0.1336
   47MOL   O11425966   3.530   3.157   5.322 -0.1108  0.5951  0.4523
   47MOL   C11525967   3.389   3.160   5.357 -0.4635  0.0813  0.1493
   47MOL   C11625968   3.326   3.082   5.236 -0.5568  0.2192  0.2112
   47MOL   O11725969   3.365   2.949   5.252  0.1715  0.2077  0.6108
   47MOL   C11825970   3.174   3.085   5.236  0.1537  0.0697 -0.2290
   47MOL   C11925971   3.117   2.989   5.125  0.2433 -0.0513 -0.3398
   47MOL   C12025972   2.961   2.979   5.131 -1.3263  0.1912  0.5508
   47MOL   O12125973   2.930   2.888   5.032 -0.6677  0.0774  0.3214
   47MOL   C12225974   2.900   3.115   5.112  0.1311  0.9488  0.5987
   47MOL   C12325975   2.745   3.111   5.136 -0.2428  0.4290 -0.3161
   47MOL   C12425976   2.961   3.215   5.213 -0.3405  0.6818  0.0643
   47MOL   C12525977   3.116   3.225   5.224  0.5915  0.1637  1.2536
   47MOL   H12625978   3.355   3.263   5.354  0.0896  0.2524 -0.3746
   47MOL   H12725979   3.368   3.107   5.450 -1.4251  0.1552 -0.0143
   47MOL   H12825980   3.375   3.137   5.156  0.3529 -0.3962  0.3478
   47MOL   H12925981   3.458   2.949   5.271  0.6405  2.6043 -1.4703
   47MOL   H13025982   3.146   3.046   5.334  0.0508 -1.3832 -0.8142
   47MOL   H13125983   3.160   3.010   5.027  1.4374  2.5130  0.6679
   47MOL   H13225984   3.156   2.891   5.152  1.8297  0.9669  1.2014
   47MOL   H13325985   2.914   2.941   5.222  0.2110  1.4539  1.8826
   47MOL   H13425986   2.909   2.936   4.953  1.0517  0.7741  0.2451
   47MOL   H13525987   2.911   3.149   5.009  0.3027 -2.5902 -0.6050
   47MOL   H13625988   2.713   3.051   5.221  1.4716  2.2570  1.6762
   47MOL   H13725989   2.720   3.214   5.161  0.0551  0.3927  0.1491
   47MOL   H13825990   2.931   3.183   5.313  0.2881 -1.6250 -0.4467
   47MOL   H13925991   2.918   3.315   5.205 -1.2472  0.2324 -0.8820
   47MOL   H14025992   3.145   3.284   5.311 -0.0977  0.7912  1.0549
   47MOL   H14125993   3.165   3.263   5.135 -0.6738 -1.9492 -0.3916
   47MOL   O14225994   2.678   3.049   5.026 -0.0236  0.5160 -0.2132
   47MOL   C14325995   2.536   3.024   5.025  0.2120  0.0349  0.1994
   47MOL   C14425996   2.505   2.894   4.941 -0.2028 -0.2806  0.1398
   47MOL   O14525997   2.527   2.792   5.033 -0.2072  0.3229 -0.0042
   47MOL   C14625998   2.357   2.893   4.899  0.0095 -0.0758 -0.1374
   47MOL   C14725999   2.318   2.754   4.835 -0.3274  0.2881  0.4868
   47MOL   C14826000   2.168   2.743   4.809 -1.1499 -0.3172 -0.1765
   47MOL   O14926001   2.145   2.614   4.747  0.3774  0.4314  0.3602
   47MOL   C15026002   2.124   2.858   4.718 -0.5160 -0.4071 -0.0044
   47MOL   C15126003   1.968   2.854   4.690  0.3208 -1.1320  0.2301
   47MOL   C15226004   2.156   2.995   4.785  0.6050 -0.3358 -0.0395
   47MOL   C15326005   2.308   3.009   4.814 -0.2329 -0.8040 -0.4635
   47MOL   H15426006   2.493   3.112   4.978  3.5570  0.5935 -2.0093
   47MOL   H15526007   2.489   3.029   5.123 -2.4307  0.4005 -1.0529
   47MOL   H15626008   2.570   2.884   4.854  1.3363 -2.9106  1.5401
   47MOL   H15726009   2.611   2.812   5.073  0.9115 -1.2497 -1.4645
   47MOL   H15826010   2.294   2.923   4.982  0.6403 -1.3259  0.8093
   47MOL   H15926011   2.379   2.724   4.750  1.6336 -0.8691  2.2421
   47MOL   H16026012   2.348   2.678   4.907 -0.9967  0.4820  0.9764
   47MOL   H16126013   2.112   2.739   4.902  2.1527  1.2026  2.0035
   47MOL   H16226014   2.203   2.551   4.786  0.6896  0.3090 -0.3013
   47MOL   H16326015   2.192   2.853   4.633  0.3867  4.5589  0.2799
   47MOL   H16426016   1.935   2.760   4.646  0.0528 -1.4432  1.0860
   47MOL   H16526017   1.925   2.863   4.790  1.0803  1.5696  0.3497
   47MOL   H16626018   2.104   3.002   4.881 -0.1426 -1.1658 -0.3780
   47MOL   H16726019   2.131   3.081   4.723 -2.1299 -0.0508  1.3559
   47MOL   H16826020   2.313   3.099   4.876 -1.3987 -1.9042  1.2448
   47MOL   H16926021   2.369   3.026   4.725  2.3731 -0.6729  1.2907
   47MOL   O17026022   1.910   2.958   4.608  0.1178  0.0964  0.4820
   47MOL   C17126023   1.965   2.955   4.474 -0.3444 -0.9187  0.1227
   47MOL   C17226024   1.886   3.044   4.374 -0.0334  0.6203 -0.6449
   47MOL   O17326025   1.764   2.973   4.372 -0.2656  0.8644  0.1365
   47MOL   C17426026   1.870   3.190   4.411  0.3893 -0.0172 -0.2008
   47MOL   C17526027   1.768   3.270   4.319  0.1364 -0.3020  0.0091
   47MOL   C17626028   1.755   3.419   4.352  0.6987  0.1231  0.5535
   47MOL   O17726029   1.656   3.482   4.273 -0.0812  0.0591 -0.2776
   47MOL   C17826030   1.891   3.493   4.343 -0.2992  0.2732 -0.4408
   47MOL   C17926031   1.890   3.640   4.393  0.0476 -0.5067 -0.4327
   47MOL   C18026032   1.990   3.413   4.428 -0.0348 -0.6252  0.1141
   47MOL   C18126033   2.006   3.261   4.410  0.0994  0.1522 -0.0749
   47MOL   H18226034   1.970   2.850   4.443 -0.7010 -0.6314 -0.9547
   47MOL   H18326035   2.068   2.989   4.484 -0.4427 -1.1953  2.1226
   47MOL   H18426036   1.945   3.035   4.282 -0.8975 -2.6185 -0.9327
   47MOL   H18526037   1.756   2.948   4.463 -1.8809 -1.8915 -0.7150
   47MOL   H18626038   1.830   3.195   4.513  2.1311 -0.1546  0.5071
   47MOL   H18726039   1.793   3.256   4.214  2.3665  0.1490  0.4651
   47MOL   H18826040   1.669   3.228   4.339  0.4171 -1.8106 -1.5932
   47MOL   H18926041   1.718   3.427   4.454 -0.2407  2.8551  0.0419
   47MOL   H19026042   1.587   3.418   4.273  0.6058 -0.7013 -1.2012
   47MOL   H19126043   1.920   3.478   4.239 -0.8235 -1.6953 -0.3120
   47MOL   H19226044   1.843   3.707   4.321 -2.9458  0.4687  2.3077
   47MOL   H19326045   1.830   3.645   4.484 -0.5673  0.0039 -0.8606
   47MOL   H19426046   1.977   3.443   4.532 -0.3910  1.0131 -0.3814
   47MOL   H19526047   2.089   3.453   4.404 -0.7748  1.9334  1.1091
   47MOL   H19626048   2.078   3.227   4.486  2.8003 -0.9696 -3.0103
   47MOL   H19726049   2.060   3.239   4.318  1.6393 -1.2199  1.1198
   47MOL   O19826050   2.021   3.692   4.412 -0.4681  0.1164 -0.1172
   47MOL   C19926051   2.026   3.824   4.476 -0.3499 -0.4485  0.7024
   47MOL   C20026052   2.138   3.826   4.582 -0.2497  0.0518  0.1259
   47MOL   O20126053   2.126   3.696   4.630  0.1193  0.8653  0.5859
   47MOL   C20226054   2.281   3.854   4.534 -0.1658 -0.1948 -0.3143
   47MOL   C20326055   2.383   3.841   4.649  0.3867  0.1167 -0.6515
   47MOL   C20426056   2.525   3.836   4.596 -0.3333 -0.0866 -0.0690
   47MOL   O20526057   2.626   3.833   4.700  0.5053  0.1264 -0.7052
   47MOL   C20626058   2.555   3.974   4.525 -0.1659 -0.4033 -0.1697
   47MOL   C20726059   2.700   3.980   4.460 -0.1854 -0.0060 -0.1773
   47MOL   C20826060   2.448   4.002   4.420 -0.6850  0.0762  0.4094
   47MOL   C20926061   2.307   3.994   4.470  0.3497 -0.1080  0.0174
   47MOL   H21026062   1.933   3.836   4.531 -0.4560  2.1799  0.0316
   47MOL   H21126063   2.026   3.912   4.412  0.7449 -0.1090  1.1672
   47MOL   H21226064   2.112   3.902   4.655 -1.3597  0.2492 -0.4639
   47MOL   H21326065   2.100   3.648   4.552  0.4663  2.1273 -0.3280
   47MOL   H21426066   2.307   3.783   4.455 -1.9429 -0.3108 -0.8283
   47MOL   H21526067   2.364   3.914   4.728 -1.9999  0.0812 -1.1435
   47MOL   H21626068   2.364   3.749   4.705 -2.1770  1.2206  0.3632
   47MOL   H21726069   2.542   3.752   4.528  1.1075  1.1834 -1.3052
   47MOL   H21826070   2.635   3.916   4.744  1.0980 -0.8060  0.9937
   47MOL   H21926071   2.548   4.055   4.597  3.4604 -0.0159 -0.1471
   47MOL   H22026072   2.702   4.080   4.416 -0.4713  0.4801  0.8945
   47MOL   H22126073   2.768   3.986   4.545 -0.4346  0.3580 -0.0026
   47MOL   H22226074   2.459   3.936   4.334  1.5037  0.6649  0.2238
   47MOL   H22326075   2.454   4.103   4.382  1.7040 -0.1529  0.1259
   47MOL   H22426076   2.243   4.022   4.385  2.3894  3.8889 -0.3042
   47MOL   H22526077   2.294   4.072   4.544  2.2314  1.5045 -1.2904
   47MOL   O22626078   2.723   3.881   4.365  0.1479  0.1966 -0.4257
   47MOL   C22726079   2.845   3.917   4.305  0.4325 -0.5629 -0.1230
   47MOL   C22826080   2.925   3.802   4.235 -0.7262 -0.6172  0.0241
   47MOL   O22926081   3.024   3.856   4.148  0.5014  0.2372  0.1716
   47MOL   C23026082   2.972   3.698   4.331 -0.4494 -0.7903 -0.3040
   47MOL   C23126083   2.862   3.615   4.410 -0.2739  0.1574  0.3125
   47MOL   C23226084   2.932   3.503   4.490  0.1582 -0.6937 -0.7080
   47MOL   O23326085   2.836   3.409   4.541 -0.2065 -0.2609 -0.3668
   47MOL   C23426086   3.038   3.550   4.589  0.2886 -0.6209  0.3378
   47MOL   C23526087   3.105   3.420   4.639 -0.0665 -0.8322 -0.8537
   47MOL   C23626088   3.138   3.637   4.514 -0.2123 -0.2583 -0.3258
   47MOL   C23726089   3.068   3.754   4.443  0.2361  0.1952  0.1947
   47MOL   H23826090   2.912   3.968   4.374 -0.2702 -0.9511  0.8479
   47MOL   H23926091   2.807   3.986   4.228 -0.0230 -1.1398 -0.4180
   47MOL   H24026092   2.852   3.752   4.171 -2.0388  1.2580  0.0273
   47MOL   H24126093   3.075   3.911   4.205 -1.2081 -1.3539  3.4063
   47MOL   H24226094   3.022   3.626   4.266 -0.0637  0.6758 -1.6620
   47MOL   H24326095   2.792   3.679   4.463 -1.6697 -0.3484 -0.8990
   47MOL   H24426096   2.809   3.569   4.327  1.8014 -0.2911 -0.7894
   47MOL   H24526097   2.989   3.441   4.421  2.0159 -2.2486  2.1653
   47MOL   H24626098   2.790   3.463   4.604 -1.7901 -0.7685 -1.0585
   47MOL   H24726099   2.994   3.597   4.677  0.3399 -1.2198  0.6845
   47MOL   H24826100   3.038   3.374   4.713  0.3873  0.1046  0.1591
   47MOL   H24926101   3.131   3.354   4.557  2.3330 -0.9205 -0.0405
   47MOL   H25026102   3.206   3.579   4.452  1.6132  1.2599  0.2193
   47MOL   H25126103   3.203   3.682   4.588 -0.6638  0.3986 -0.3252
   47MOL   H25226104   3.143   3.818   4.397  0.0972 -0.3266 -0.7776
   47MOL   H25326105   3.014   3.821   4.509  1.7333  0.4169  1.2212
   47MOL   O25426106   3.225   3.466   4.702  0.1262  0.0894 -0.1422
   47MOL   C25526107   3.299   3.361   4.766  0.0628 -0.7835  0.3978
   47MOL   C25626108   3.425   3.428   4.830  0.5278 -0.3043  0.0528
   47MOL   O25726109   3.372   3.493   4.938 -0.3822 -0.3037 -0.2452
   47MOL   C25826110   3.542   3.339   4.888  0.3917 -0.2028 -0.9134
   47MOL   C25926111   3.649   3.423   4.957  0.3729 -0.1113  0.6930
   47MOL   C26026112   3.749   3.323   5.027 -0.2209 -0.3637 -0.2656
   47MOL   O26126113   3.832   3.394   5.116  0.0259 -0.2024 -0.1436
   47MOL   C26226114   3.812   3.221   4.928  0.1131 -0.1484 -0.7894
   47MOL   C26326115   3.903   3.121   5.002 -0.2826  0.0709  0.4951
   47MOL   C26426116   3.706   3.145   4.846  0.1416  0.1690  0.5404
   47MOL   C26526117   3.605   3.243   4.788 -0.7178  0.3975 -0.2804
   47MOL   H26626118   3.328   3.294   4.686 -0.0924  2.5954 -2.6186
   47MOL   H26726119   3.255   3.303   4.847  0.5857 -0.8801  0.6143
   47MOL   H26826120   3.468   3.497   4.757 -1.2001  1.3635  0.5947
   47MOL   H26926121   3.302   3.549   4.910  0.3347  0.7155 -0.0437
   47MOL   H27026122   3.498   3.276   4.965 -1.1519  1.8615 -0.0379
   47MOL   H27126123   3.706   3.482   4.885 -0.2747  0.3375  0.5404
   47MOL   H27226124   3.595   3.482   5.032  0.6916 -1.4045  1.9577
   47MOL   H27326125   3.684   3.263   5.090 -0.0467 -1.2576 -0.9342
   47MOL   H27426126   3.822   3.377   5.208 -0.0163  1.6273  0.2011
   47MOL   H27526127   3.874   3.280   4.861 -2.0840  2.4765 -0.6214
   47MOL   H27626128   3.959   3.177   5.077 -0.3159  0.5568  0.1588
   47MOL   H27726129   3.849   3.039   5.049 -0.1913 -0.7302 -0.7616
   47MOL   H27826130   3.640   3.079   4.903  0.9431 -1.1080  0.0289
   47MOL   H27926131   3.747   3.079   4.769 -1.9317 -0.6692  0.1434
   47MOL   H28026132   3.521   3.191   4.742 -1.0891 -0.4939  1.3998
   47MOL   H28126133   3.643   3.287   4.696 -0.8882  2.0154  0.3957
   47MOL   O28226134   3.984   3.048   4.906 -0.2129  0.2604  0.8544
   47MOL   C28326135   4.122   3.087   4.913 -0.0546  0.2012 -0.4931
   47MOL   C28426136   4.188   2.983   4.823 -0.2365 -0.4822 -0.2884
   47MOL   O28526137   4.159   3.008   4.689 -0.2638  0.2289 -0.1932
   47MOL   C28626138   4.339   2.977   4.848  0.6443 -0.1929  0.0632
   47MOL   C28726139   4.423   3.105   4.816  0.3233 -0.1471  0.5532
   47MOL   C28826140   4.573   3.084   4.843 -0.4914 -0.1440 -0.4450
   47MOL   O28926141   4.640   3.209   4.814  0.0524  0.2773  0.1290
   47MOL   C29026142   4.624   2.964   4.754  0.1858 -0.2507 -0.4744
   47MOL   C29126143   4.772   2.942   4.770  0.2074  0.4976  0.4510
   47MOL   C29226144   4.551   2.843   4.787  0.1651  0.4693  0.0820
   47MOL   C29326145   4.397   2.851   4.783  0.0148  0.0293  0.3715
   47MOL   H29426146   4.153   3.096   5.017 -1.0326  0.4521 -0.2120
   47MOL   H29526147   4.139   3.184   4.867 -0.1252  0.7598  0.6680
   47MOL   H29626148   4.158   2.883   4.854  3.1039 -2.1272 -2.0822
   47MOL   H29726149   4.072   3.042   4.679 -1.1297 -1.4963  1.3438
   47MOL   H29826150   4.359   2.956   4.953  0.2840 -1.4014 -0.0981
   47MOL   H29926151   4.414   3.136   4.712  0.0231 -0.8050  0.3838
   47MOL   H30026152   4.397   3.191   4.878 -2.7735 -0.1995 -0.6246
   47MOL   H30126153   4.582   3.057   4.949 -0.0326  1.6673  0.0046
   47MOL   H30226154   4.733   3.197   4.824  0.0128  1.2527  1.7857
   47MOL   H30326155   4.611   2.989   4.648  2.4934  0.5812 -0.5832
   47MOL   H30426156   4.792   2.906   4.871 -2.4443 -0.3058  0.7454
   47MOL   H30526157   4.793   2.854   4.710 -1.6989  0.1380  0.2679
   47MOL   H30626158   4.578   2.809   4.887  2.0266 -1.0480 -0.9058
   47MOL   H30726159   4.584   2.775   4.708 -2.0378 -0.6769  0.1004
   47MOL   H30826160   4.358   2.762   4.833 -0.8145 -0.4879 -1.1518
   47MOL   H30926161   4.369   2.845   4.677 -0.7921 -0.0730  0.5834
   47MOL   O31026162   4.852   3.036   4.712 -0.0851 -0.3404 -0.3134
   47MOL   C31126163   4.990   3.004   4.707  0.3276  0.2448 -0.0322
   47MOL   C31226164   5.079   3.108   4.641 -0.4364  0.3211 -0.2927
   47MOL   O31326165   5.083   3.099   4.498 -0.5977  0.1797 -0.1043
   47MOL   C31426166   5.034   3.248   4.685 -0.3657 -0.4401 -0.2954
   47MOL   C31526167   4.916   3.304   4.596  0.7623 -0.7386  0.1131
   47MOL   C31626168   4.877   3.445   4.657  0.6092 -0.1892 -0.2155
   47MOL   O31726169   4.780   3.500   4.575  0.2171  0.1757  0.3802
   47MOL   C31826170   4.990   3.547   4.669 -0.2120  0.0290 -0.0024
   47MOL   C31926171   4.955   3.676   4.743  0.4790 -0.2699 -0.9058
   47MOL   C32026172   5.106   3.487   4.751  0.0100  0.7459  0.0528
   47MOL   C32126173   5.153   3.349   4.701 -0.5773 -0.3544  0.3417
   47MOL   H32226174   5.023   2.909   4.666  0.3255 -0.1487  0.8889
   47MOL   H32326175   5.035   2.986   4.804  0.5336 -3.4316 -0.7351
   47MOL   H32426176   5.181   3.084   4.672 -0.2220  1.0046 -0.4489
   47MOL   H32526177   5.003   3.099   4.447 -1.0941  0.1702  0.6711
   47MOL   H32626178   5.001   3.236   4.788 -0.7576  1.3442 -0.1904
   47MOL   H32726179   4.956   3.318   4.495  0.9555 -1.6890  0.0558
   47MOL   H32826180   4.827   3.244   4.583 -0.1310  0.5371  0.2878
   47MOL   H32926181   4.829   3.432   4.753 -0.4816 -0.3119 -0.7663
   47MOL   H33026182   4.723   3.428   4.551  0.0189  0.2418  0.6500
   47MOL   H33126183   5.032   3.576   4.572 -0.8190  2.6921  0.4682
   47MOL   H33226184   4.870   3.727   4.697  0.7387  2.3247  1.3448
   47MOL   H33326185   4.928   3.654   4.846  0.9249 -0.3473 -0.8029
   47MOL   H33426186   5.063   3.464   4.848 -1.2693 -0.4562 -0.7781
   47MOL   H33526187   5.189   3.557   4.761  1.4000 -0.2022 -3.7933
   47MOL   H33626188   5.229   3.316   4.772  0.2812  1.9966  0.5447
   47MOL   H33726189   5.196   3.362   4.601 -0.0319  0.5045  0.6819
   47MOL   O33826190   5.057   3.777   4.740  0.7460  0.4474  0.3813
   47MOL   C33926191   5.019   3.899   4.795  0.0719  0.0029  0.3405
   47MOL   C34026192   5.138   4.003   4.774 -0.5875 -0.3010 -0.5106
   47MOL   O34126193   5.154   3.991   4.632 -0.3673 -0.1353  0.3374
   47MOL   C34226194   5.114   4.156   4.809 -0.4140 -0.2148 -0.4208
   47MOL   C34326195   5.232   4.251   4.802  0.2973  0.1706 -0.2402
   47MOL   C34426196   5.191   4.398   4.818  0.5928  0.4735  0.1250
   47MOL   O34526197   5.293   4.497   4.807 -0.1080  0.1340 -0.3783
   47MOL   C34626198   5.130   4.432   4.955 -0.1803  1.0276  0.3700
   47MOL   C34726199   5.077   4.582   4.980  0.0036  0.2101 -0.1038
   47MOL   C34826200   5.008   4.339   4.966 -0.7687 -0.4344 -0.6760
   47MOL   C34926201   5.032   4.189   4.940 -0.9770  0.7583 -0.0234
   47MOL   H35026202   5.011   3.881   4.902  0.3707 -0.5894  0.2677
   47MOL   H35126203   4.925   3.946   4.764  1.1103  1.9878  0.1701
   47MOL   H35226204   5.222   3.968   4.833 -1.6262 -3.0704 -0.5883
   47MOL   H35326205   5.134   3.899   4.624 -1.1397  0.1391 -1.0269
   47MOL   H35426206   5.045   4.188   4.730 -0.2753  2.7361  0.6258
   47MOL   H35526207   5.298   4.223   4.884 -1.0445  1.5843  1.3410
   47MOL   H35626208   5.288   4.249   4.708  0.1705  0.4165 -0.3210
   47MOL   H35726209   5.124   4.416   4.734  1.1393 -0.5763 -0.5502
   47MOL   H35826210   5.247   4.577   4.828 -0.8660  0.3724 -2.8366
   47MOL   H35926211   5.203   4.412   5.033 -0.5684  0.1276  0.5153
   47MOL   H36026212   5.000   4.605   4.906 -1.2865  0.1511  1.2111
   47MOL   H36126213   5.047   4.584   5.084  1.5579 -0.2441  0.3719
   47MOL   H36226214   4.927   4.359   4.897 -1.0556 -2.8803 -1.0720
   47MOL   H36326215   4.961   4.357   5.063 -0.9581  0.0902 -0.8673
   47MOL   H36426216   4.939   4.132   4.938 -0.4403 -0.0848 -0.9576
   47MOL   H36526217   5.092   4.149   5.022 -0.8454 -0.3036 -0.6331
   47MOL   O36626218   5.181   4.674   4.959 -0.1863  0.4558  0.6231
   47MOL   C36726219   5.138   4.806   4.951 -0.3431  1.1515  0.6431
   47MOL   C36826220   5.272   4.889   4.933  0.5547  0.0557 -0.2954
   47MOL   O36926221   5.349   4.831   4.834 -0.0690 -0.1679  0.2586
   47MOL   C37026222   5.263   5.044   4.907  0.2873  0.2743 -0.5708
   47MOL   C37126223   5.202   5.066   4.772 -0.9264 -0.0929  0.1836
   47MOL   C37226224   5.182   5.212   4.746  0.5735  0.0382  0.1088
   47MOL   O37326225   5.132   5.223   4.613  0.1751 -0.0802 -0.4683
   47MOL   C37426226   5.314   5.292   4.764  0.0042  0.8489 -0.3358
   47MOL   C37526227   5.319   5.440   4.717  0.0250  0.6012  0.0600
   47MOL   C37626228   5.379   5.272   4.900  0.4965 -0.1055 -0.0304
   47MOL   C37726229   5.396   5.123   4.934 -0.1963  0.1933  0.4447
   47MOL   H37826230   5.071   4.828   5.034 -1.5009 -1.0372  0.3325
   47MOL   H37926231   5.074   4.821   4.864 -2.8342 -0.4308  2.1611
   47MOL   H38026232   5.336   4.878   5.020 -0.0861 -1.2061  0.0256
   47MOL   H38126233   5.401   4.764   4.876 -0.7768  0.7775  2.7623
   47MOL   H38226234   5.196   5.083   4.984  1.7449  2.3969 -0.3380
   47MOL   H38326235   5.258   5.017   4.692  3.2052 -0.7661  3.3149
   47MOL   H38426236   5.102   5.022   4.776 -0.4303 -1.1113  2.0939
   47MOL   H38526237   5.106   5.243   4.817 -0.7021  0.3284 -1.3725
   47MOL   H38626238   5.206   5.201   4.557  0.8079 -0.6684  0.5932
   47MOL   H38726239   5.368   5.249   4.680 -0.7185  0.3918 -0.5674
   47MOL   H38826240   5.409   5.498   4.738  2.0027 -0.8433 -3.7488
   47MOL   H38926241   5.315   5.444   4.608 -2.0603  2.2703  0.1796
   47MOL   H39026242   5.324   5.332   4.973  0.8149  0.6340 -0.3948
   47MOL   H39126243   5.478   5.317   4.895 -0.6290  2.1896 -2.7960
   47MOL   H39226244   5.426   5.114   5.038  0.4756 -1.9526  0.1048
   47MOL   H39326245   5.467   5.077   4.864 -0.7401  0.4177 -0.2577
   47MOL   O39426246   5.218   5.518   4.775 -0.1833  0.0960  0.5806
   47MOL   C39526247   5.185   5.640   4.709 -0.1533  0.1552  0.5270
   47MOL   C39626248   5.117   5.617   4.571  0.0512  0.0229  0.7888
   47MOL   O39726249   4.977   5.651   4.588 -0.5707  0.4574 -0.2152
   47MOL   C39826250   5.186   5.693   4.457 -0.3288 -0.4192 -0.0803
   47MOL   C39926251   5.095   5.658   4.334 -0.0051 -0.6525  0.0224
   47MOL   C40026252   5.142   5.721   4.205  0.4957 -0.4438  0.4237
   47MOL   O40126253   5.069   5.690   4.090  0.7640  0.6054 -0.4392
   47MOL   C40226254   5.291   5.683   4.175 -0.7332  1.0509 -0.0214
   47MOL   C40326255   5.350   5.746   4.041  0.0065 -0.3340 -0.1222
   47MOL   C40426256   5.380   5.717   4.291  0.1926 -0.2656  0.4799
   47MOL   C40526257   5.327   5.649   4.420  0.0122  0.7022 -0.0357
   47MOL   H40626258   5.261   5.717   4.710  0.7471 -0.7194  0.4617
   47MOL   H40726259   5.122   5.692   4.781  0.9681  0.9291  0.9493
   47MOL   H40826260   5.115   5.513   4.538 -1.3928  0.7382 -1.4618
   47MOL   H40926261   4.937   5.580   4.636  2.0999 -0.0457  1.3779
   47MOL   H41026262   5.196   5.801   4.465  1.7001 -0.3072 -3.1702
   47MOL   H41126263   5.086   5.553   4.304  0.8696  0.0450 -2.9084
   47MOL   H41226264   4.994   5.698   4.346  0.2860  0.1149 -0.0550
   47MOL   H41326265   5.139   5.827   4.230 -1.4449 -0.8442  2.0404
   47MOL   H41426266   5.056   5.766   4.036 -0.3986  0.0606 -0.9289
   47MOL   H41526267   5.300   5.575   4.170  2.3196  1.2342  0.4042
   47MOL   H41626268   5.293   5.696   3.963 -0.1642 -1.7578  0.9045
   47MOL   H41726269   5.343   5.854   4.034  0.7517 -0.3637 -1.4903
   47MOL   H41826270   5.382   5.825   4.301  0.3938 -0.1362 -0.8158
   47MOL   H41926271   5.483   5.689   4.266  0.1706 -1.6393  1.8777
   47MOL   H42026272   5.393   5.671   4.503  0.1664  1.6180 -0.3954
   47MOL   H42126273   5.328   5.542   4.400  0.2164  0.6638  0.1835
   47MOL   O42226274   5.486   5.715   4.023 -0.1591  0.9358 -0.4713
   47MOL   C42326275   5.526   5.707   3.881  0.1250 -0.6526 -0.2583
   47MOL   C42426276   5.523   5.843   3.802 -0.6267  0.4663  0.1322
   47MOL   O42526277   5.396   5.861   3.743 -0.3038 -0.3660 -0.4152
   47MOL   C42626278   5.573   5.968   3.885 -0.4275 -0.1878  0.5383
   47MOL   C42726279   5.582   6.101   3.801  0.5021  0.4563  0.3490
   47MOL   C42826280   5.635   6.221   3.877 -0.9093  0.0949 -0.3462
   47MOL   O42926281   5.630   6.326   3.783  0.1879 -0.4886  0.7360
   47MOL   C43026282   5.775   6.194   3.930  0.5361 -0.0761  0.0664
   47MOL   C43126283   5.851   6.304   4.008  0.1506  0.1592 -0.1043
   47MOL   C43226284   5.766   6.069   4.022  0.1649 -0.4291  0.1817
   47MOL   C43326285   5.711   5.945   3.950  0.2595 -1.1174  0.2695
   47MOL   H43426286   5.473   5.638   3.815  0.3055 -1.7046  0.6845
   47MOL   H43526287   5.626   5.664   3.884  1.2433  1.9159  1.0107
   47MOL   H43626288   5.593   5.834   3.719 -0.1092 -2.4193  0.8411
   47MOL   H43726289   5.330   5.826   3.800 -1.4074  3.5384  0.8442
   47MOL   H43826290   5.494   5.980   3.959 -2.1517  2.8219 -1.7283
   47MOL   H43926291   5.633   6.084   3.706 -1.7550 -0.8556 -0.6839
   47MOL   H44026292   5.483   6.139   3.775  0.1870  0.8743  2.1180
   47MOL   H44126293   5.572   6.254   3.960  2.4247  2.4206  1.4080
   47MOL   H44226294   5.683   6.299   3.710 -0.9787  1.0863 -0.7392
   47MOL   H44326295   5.834   6.166   3.843 -1.1185  1.0659 -1.4665
   47MOL   H44426296   5.865   6.386   3.938  1.1919  0.8626  0.9218
   47MOL   H44526297   5.808   6.337   4.103 -1.4230 -0.0512 -0.7227
   47MOL   H44626298   5.705   6.097   4.107  0.2208 -0.7296  0.3202
   47MOL   H44726299   5.866   6.040   4.055  0.8812  2.3508  0.5639
   47MOL   H44826300   5.697   5.869   4.027  0.5417 -1.5170 -0.0687
   47MOL   H44926301   5.782   5.901   3.881  0.2378  1.4564 -1.4598
   47MOL   O45026302   5.984   6.264   4.022 -0.2512 -0.0908  0.4043
   47MOL   C45126303   6.047   6.303   4.142  0.0267  0.0842  0.0052
   47MOL   C45226304   6.187   6.253   4.136 -0.4806  0.5423 -0.6077
   47MOL   O45326305   6.243   6.332   4.033 -0.1339  0.3369  0.9077
   47MOL   C45426306   6.262   6.257   4.269 -0.8919 -0.6653  0.7197
   47MOL   C45526307   6.263   6.399   4.342 -0.0073  0.4527  0.0137
   47MOL   C45626308   6.358   6.392   4.468  0.2863  0.5262 -0.5019
   47MOL   O45726309   6.372   6.527   4.511 -0.0784  0.0056  0.2480
   47MOL   C45826310   6.501   6.340   4.448 -0.3341  0.2598  0.5641
   47MOL   C45926311   6.591   6.335   4.568  0.4862 -0.0938  0.5211
   47MOL   C46026312   6.488   6.205   4.369  0.2576  0.4367 -0.3439
   47MOL   C46126313   6.403   6.201   4.240  0.2769 -0.2944 -0.3625
   47MOL   H46226314   5.986   6.263   4.223  2.5377 -1.5923  1.0937
   47MOL   H46326315   6.054   6.410   4.163  0.7078  0.9025 -4.0358
   47MOL   H46426316   6.187   6.149   4.105 -1.4507  0.1350  0.7050
   47MOL   H46526317   6.184   6.329   3.959 -0.5419  0.5757  1.2234
   47MOL   H46626318   6.214   6.178   4.327 -2.0811  1.1321  2.2301
   47MOL   H46726319   6.309   6.466   4.270 -2.1126 -0.1764 -1.9815
   47MOL   H46826320   6.162   6.424   4.377 -0.8757 -0.7290 -1.5603
   47MOL   H46926321   6.313   6.328   4.544  0.3465  0.8177 -0.2211
   47MOL   H47026322   6.374   6.589   4.440 -1.6745 -0.3390 -0.1266
   47MOL   H47126323   6.532   6.404   4.366 -0.6362 -2.4561 -1.7692
   47MOL   H47226324   6.606   6.417   4.639  1.1327  1.2514 -1.1438
   47MOL   H47326325   6.540   6.262   4.632 -0.8036  0.2390 -0.1262
   47MOL   H47426326   6.450   6.130   4.438 -0.8386  0.3851 -1.0087
   47MOL   H47526327   6.586   6.166   4.340  0.1967 -1.1277  1.4529
   47MOL   H47626328   6.402   6.099   4.201  2.5352 -0.9707  1.2135
   47MOL   H47726329   6.466   6.259   4.172  3.6097 -1.9842  1.1378
   47MOL   O47826330   6.713   6.281   4.508 -0.0518 -0.1585 -0.2576
   47MOL   C47926331   6.825   6.286   4.596  0.6016 -0.3671  0.0747
   47MOL   C48026332   6.921   6.173   4.562 -0.0066  0.7923  0.3088
   47MOL   O48126333   6.848   6.051   4.558  0.1715 -0.6060 -0.3791
   47MOL   C48226334   7.014   6.181   4.443 -0.5212 -0.3820 -0.6145
   47MOL   C48326335   6.959   6.238   4.308  0.4560  0.2392  0.2358
   47MOL   C48426336   7.064   6.244   4.199  0.1173  0.3557  0.4550
   47MOL   O48526337   6.999   6.280   4.072 -0.7689 -0.0110 -0.0840
   47MOL   C48626338   7.140   6.104   4.193  0.7280  1.1429 -0.1941
   47MOL   C48726339   7.246   6.117   4.086 -1.6082 -0.0661  0.2571
   47MOL   C48826340   7.204   6.072   4.324 -0.6119  0.5236 -0.0947
   47MOL   C48926341   7.093   6.056   4.426 -0.1962 -0.2601  0.6962
   47MOL   H49026342   6.786   6.259   4.694  1.5048 -0.0560  0.5225
   47MOL   H49126343   6.878   6.381   4.607  1.0292 -0.6880  0.8392
   47MOL   H49226344   6.986   6.161   4.649 -1.0411 -1.2481  0.8266
   47MOL   H49326345   6.812   6.037   4.472  1.5061 -0.0159 -1.0438
   47MOL   H49426346   7.082   6.261   4.474  0.4017 -0.7328 -1.7001
   47MOL   H49526347   6.884   6.166   4.274  1.9979 -1.2409 -0.1137
   47MOL   H49626348   6.905   6.333   4.311 -1.2648 -0.6891 -0.3162
   47MOL   H49726349   7.138   6.317   4.232  3.0958 -2.0189 -0.7283
   47MOL   H49826350   6.927   6.220   4.060 -2.4689  2.2266 -1.6369
   47MOL   H49926351   7.064   6.027   4.180  0.3726  0.9282  2.9069
   47MOL   H50026352   7.195   6.144   3.994 -0.3214  0.7153 -0.2355
   47MOL   H50126353   7.311   6.202   4.104 -0.4565 -1.1326  1.2860
   47MOL   H50226354   7.276   6.146   4.358  0.3051 -0.4165  0.0234
   47MOL   H50326355   7.259   5.979   4.319 -0.7976  0.4641 -1.0710
   47MOL   H50426356   7.155   6.042   4.514  0.1255 -2.1115  0.1994
   47MOL   H50526357   7.035   5.966   4.407 -1.3728  1.0104 -2.0990
   47MOL   O50626358   7.318   5.995   4.063 -0.1358  0.0090 -0.5104
   47MOL   C50726359   7.397   5.987   3.940 -0.0644  0.0686 -0.6730
   47MOL   C50826360   7.434   5.840   3.910  0.0942 -0.1794  0.0331
   47MOL   O50926361   7.316   5.786   3.856 -0.0462 -0.1708 -0.2765
   47MOL   C51026362   7.552   5.827   3.804  0.3605  0.3536  0.4395
   47MOL   C51126363   7.536   5.890   3.663 -0.0183 -0.2677  0.3958
   47MOL   C51226364   0.038   5.881   3.575  0.5533 -0.3623  0.1054
   47MOL   O51326365   0.006   5.917   3.447  0.0369 -0.0795  0.0104
   47MOL   C51426366   0.100   5.742   3.568 -0.3920  0.4062  0.2687
   47MOL   C51526367   0.242   5.740   3.497  0.4065  0.2114 -0.6877
   47MOL   C51626368   0.111   5.674   3.703 -0.2845 -0.1370 -0.6043
   47MOL   C51726369   7.604   5.687   3.781 -0.4878 -0.5986  0.2234
   47MOL   H51826370   7.483   6.054   3.940 -0.1681  0.2028 -0.3579
   47MOL   H51926371   7.341   6.029   3.857 -2.6499 -0.5409  0.6897
   47MOL   H52026372   7.458   5.778   3.997  0.2704 -0.3609 -0.1449
   47MOL   H52126373   7.259   5.851   3.819 -1.3666 -1.3211 -0.2960
   47MOL   H52226374   0.004   5.878   3.856  0.8314 -0.5114  0.5483
   47MOL   H52326375   7.452   5.845   3.612 -0.3868 -0.6809  1.3475
   47MOL   H52426376   7.502   5.992   3.683  3.1189  0.5611  1.8632
   47MOL   H52526377   0.106   5.960   3.606  1.0790 -0.1647 -1.5192
   47MOL   H52626378   0.007   6.011   3.449  0.6254 -0.0851  0.0589
   47MOL   H52726379   0.036   5.672   3.514  0.4027 -0.9400  1.0513
   47MOL   H52826380   0.230   5.809   3.413  3.3388 -0.2711 -1.5558
   47MOL   H52926381   0.306   5.793   3.568  1.3815 -1.9009  0.0380
   47MOL   H53026382   0.186   5.723   3.766  0.0403 -0.7974 -0.4633
   47MOL   H53126383   0.151   5.573   3.691  0.9216  0.4193 -1.3425
   47MOL   H53226384   7.596   5.629   3.873 -2.7259 -0.9632 -0.1749
   47MOL   H53326385   7.526   5.638   3.723 -0.3829 -0.0729 -0.3700
   47MOL   O53426386   0.288   5.604   3.463  0.5473 -0.1491  0.2600
   47MOL   C53526387   0.252   5.573   3.325  0.1235  0.1633  0.1654
   47MOL   C53626388   0.292   5.422   3.294  0.0759 -0.6564 -0.4138
   47MOL   O53726389   0.256   5.404   3.157 -0.0055 -0.2149 -0.9247
   47MOL   C53826390   0.444   5.392   3.317 -0.1995  0.1894 -0.6365
   47MOL   C53926391   0.542   5.498   3.286  0.3473 -0.4739  0.7617
   47MOL   C54026392   0.693   5.464   3.316 -0.0447 -0.6613 -0.6305
   47MOL   O54126393   0.764   5.565   3.239 -0.2489  0.3162  0.0847
   47MOL   C54226394   0.732   5.331   3.255 -0.6203  0.0507 -0.4276
   47MOL   C54326395   0.877   5.295   3.304  0.0620  0.5211  0.0186
   47MOL   C54426396   0.636   5.224   3.300  0.0819 -0.2503  0.0284
   47MOL   C54526397   0.495   5.260   3.255 -0.2814  0.8708 -0.2478
   47MOL   H54626398   0.310   5.643   3.265  1.3294 -0.1478  0.9368
   47MOL   H54726399   0.148   5.581   3.296  0.4405  0.8407 -0.8198
   47MOL   H54826400   0.230   5.354   3.353  0.1087  1.9473  2.7163
   47MOL   H54926401   0.322   5.417   3.090  2.7280 -1.9588  1.3441
   47MOL   H55026402   0.451   5.382   3.425 -1.4386  1.1715 -0.4526
   47MOL   H55126403   0.525   5.522   3.181 -2.6853 -0.7788  1.1471
   47MOL   H55226404   0.512   5.597   3.322  2.2143 -0.1462  1.5189
   47MOL   H55326405   0.718   5.469   3.422 -0.9122 -1.9116 -0.3476
   47MOL   H55426406   0.745   5.536   3.151  1.6314 -1.0734  0.1119
   47MOL   H55526407   0.723   5.332   3.146 -0.2732 -0.9390 -0.4735
   47MOL   H55626408   0.907   5.201   3.257  1.3946  0.3625  1.1849
   47MOL   H55726409   0.950   5.371   3.278 -0.4568 -0.0853 -3.4677
   47MOL   H55826410   0.628   5.213   3.409 -0.7180  3.2424  0.3797
   47MOL   H55926411   0.657   5.121   3.270 -2.5860 -2.2483  4.4700
   47MOL   H56026412   0.422   5.184   3.285  1.2919 -0.1861  0.9647
   47MOL   H56126413   0.499   5.277   3.148 -1.2965  0.1192 -0.4210
   47MOL   H56226414   0.870   5.280   3.411 -0.3144  0.6610  0.0153
   48MOL     O126415   6.206   1.974   1.639 -0.1411  0.2493 -0.1041
   48MOL     C226416   6.283   1.852   1.629  0.1327 -0.1060  0.3809
   48MOL     C326417   6.231   1.747   1.722  0.2299  0.9836  0.3177
   48MOL     O426418   6.090   1.779   1.725  0.4074  0.1037 -0.1386
   48MOL     C526419   6.261   1.600   1.666 -0.1882 -0.4367 -0.7300
   48MOL     C626420   6.179   1.493   1.745 -0.5628  0.1070  0.3731
   48MOL     C726421   6.185   1.357   1.673 -0.9156 -0.3183  0.4006
   48MOL     O826422   6.114   1.259   1.747 -0.1426  0.0848 -0.2556
   48MOL     C926423   6.333   1.308   1.665  0.7741 -0.0033  0.8807
   48MOL    C1026424   6.347   1.171   1.590 -0.2649  0.5017 -0.1841
   48MOL    C1126425   6.423   1.419   1.608 -0.6442  0.5109 -0.9271
   48MOL    C1226426   6.405   1.557   1.670 -0.7776 -0.0246  0.0851
   48MOL    H1326427   6.388   1.866   1.651 -0.0371  0.7900  0.6347
   48MOL    H1426428   6.269   1.816   1.527 -0.2837 -0.2960  0.5005
   48MOL    H1526429   6.275   1.757   1.821 -1.6689  1.4121  1.1218
   48MOL    H1626430   6.091   1.873   1.718 -0.6375  0.1644  0.4379
   48MOL    H1726431   6.220   1.579   1.568  0.0608  0.6475 -1.0700
   48MOL    H1826432   6.209   1.490   1.849  2.2545  1.3604 -0.3513
   48MOL    H1926433   6.077   1.531   1.746 -0.4200  0.4901  0.2754
   48MOL    H2026434   6.144   1.368   1.573  2.3218 -1.5802 -1.1608
   48MOL    H2126435   6.163   1.242   1.826  1.0727  0.7410 -0.8618
   48MOL    H2226436   6.355   1.286   1.769 -0.1510 -1.2294  0.8239
   48MOL    H2326437   6.256   1.111   1.591 -0.6922  1.1521  0.2115
   48MOL    H2426438   6.369   1.187   1.484 -2.2456  3.6101 -0.1996
   48MOL    H2526439   6.415   1.446   1.503 -3.3401 -0.3176 -0.9519
   48MOL    H2626440   6.527   1.390   1.624 -0.6837  0.2100 -1.2160
   48MOL    H2726441   6.470   1.627   1.618 -0.0755 -1.0445 -0.4314
   48MOL    H2826442   6.435   1.559   1.775 -0.3519 -0.4581 -0.0265
   48MOL    H2926443   6.240   2.034   1.703  1.4283 -1.7743  1.0110
   48MOL    O3026444   6.448   1.091   1.636  0.0053  0.2069 -0.6018
   48MOL    C3126445   6.410   0.989   1.724 -0.4033  0.2993 -0.2417
   48MOL    C3226446   6.528   0.937   1.809  0.0967  0.1202  0.0007
   48MOL    O3326447   6.593   0.833   1.743 -0.3619 -0.1719 -0.5535
   48MOL    C3426448   6.645   1.036   1.861  0.2908 -0.3794 -0.4244
   48MOL    C3526449   6.602   1.131   1.973 -0.0991  0.0121 -0.1038
   48MOL    C3626450   6.719   1.216   2.021  0.3290 -0.7304  0.2841
   48MOL    O3726451   6.668   1.306   2.123 -0.1149 -0.5524  0.2900
   48MOL    C3826452   6.800   1.294   1.907  0.3977  0.1534  0.0765
   48MOL    C3926453   6.917   1.375   1.968 -0.1278 -0.0870  0.3322
   48MOL    C4026454   6.829   1.192   1.796 -0.6727 -0.1715  0.2219
   48MOL    C4126455   6.711   1.118   1.741 -0.3382  0.3661 -0.2542
   48MOL    H4226456   6.356   0.905   1.680  0.0525 -0.3306  0.3794
   48MOL    H4326457   6.340   1.036   1.793  0.1981 -0.9702  1.2785
   48MOL    H4426458   6.483   0.897   1.900 -2.2601  2.0620 -0.2358
   48MOL    H4526459   6.603   0.861   1.654 -1.8718  0.6199 -0.4930
   48MOL    H4626460   6.722   0.975   1.907  1.5965  0.2027 -1.8053
   48MOL    H4726461   6.524   1.196   1.932  0.2551  0.9999  0.7670
   48MOL    H4826462   6.553   1.076   2.053  0.6342 -0.3806  0.0752
   48MOL    H4926463   6.779   1.156   2.089  2.3329  0.6136 -0.2447
   48MOL    H5026464   6.623   1.379   2.083  0.5320  0.4059  1.3248
   48MOL    H5126465   6.736   1.367   1.857  0.8068 -0.5259 -1.4590
   48MOL    H5226466   6.877   1.447   2.040 -2.6194 -1.3609  0.3009
   48MOL    H5326467   6.980   1.306   2.023 -0.4991 -0.1231  0.7146
   48MOL    H5426468   6.910   1.130   1.834 -0.4900 -0.2400 -0.2720
   48MOL    H5526469   6.872   1.248   1.713 -0.1649 -0.6111  0.1878
   48MOL    H5626470   6.724   1.045   1.661  1.2485  1.2097 -0.8066
   48MOL    H5726471   6.646   1.189   1.691  0.2393  0.8115 -0.3764
   48MOL    O5826472   6.985   1.424   1.851  0.9454  0.5233  0.1759
   48MOL    C5926473   7.114   1.481   1.882  1.3363 -0.5167 -0.1650
   48MOL    C6026474   7.193   1.490   1.745  0.5007  0.7667 -0.5489
   48MOL    O6126475   7.326   1.518   1.777  0.3505  0.0797  0.1690
   48MOL    C6226476   7.183   1.350   1.676  0.0976 -0.2764 -0.2624
   48MOL    C6326477   7.236   1.221   1.754  0.1164  0.9875 -0.3634
   48MOL    C6426478   7.221   1.079   1.675  0.7577 -0.0544 -0.1563
   48MOL    O6526479   7.300   0.984   1.745 -0.4950 -0.0591  0.1475
   48MOL    C6626480   7.278   1.096   1.527 -0.4975 -0.0984  0.0738
   48MOL    C6726481   7.261   0.967   1.454 -0.1289 -0.1187 -0.2052
   48MOL    C6826482   7.211   1.217   1.457  0.4080  0.2232 -0.3993
   48MOL    C6926483   7.244   1.352   1.530 -0.2828 -0.0216  0.5763
   48MOL    H7026484   7.172   1.419   1.950  0.9127  1.2781  1.8737
   48MOL    H7126485   7.103   1.575   1.935  2.0406  0.5931 -1.9139
   48MOL    H7226486   7.154   1.565   1.676  0.5407  0.5241 -0.8362
   48MOL    H7326487   7.374   1.486   1.702  0.8346 -0.8847  0.8802
   48MOL    H7426488   7.079   1.324   1.653 -0.9565  2.8615  0.6596
   48MOL    H7526489   7.343   1.241   1.765  0.5084 -0.1873 -1.9351
   48MOL    H7626490   7.190   1.209   1.852  1.6488 -0.0911  0.2304
   48MOL    H7726491   7.116   1.051   1.665 -0.1992  3.5774 -1.2915
   48MOL    H7826492   7.368   1.023   1.797  0.6494  2.3254 -2.9694
   48MOL    H7926493   7.383   1.123   1.535 -0.6727  0.1766  1.5269
   48MOL    H8026494   7.309   0.882   1.502  0.1357 -0.6982 -1.4763
   48MOL    H8126495   7.154   0.953   1.438 -0.5666  0.0957  2.3552
   48MOL    H8226496   7.103   1.211   1.451  0.5073 -1.5651 -0.8211
   48MOL    H8326497   7.248   1.222   1.354  1.6515 -4.0811 -0.2848
   48MOL    H8426498   7.225   1.440   1.468 -0.0447 -0.2943  0.1099
   48MOL    H8526499   7.352   1.366   1.541 -0.3749  0.9826  0.2910
   48MOL    O8626500   7.322   0.977   1.325 -0.0749  0.3306  0.1682
   48MOL    C8726501   7.287   0.874   1.233  0.2543  0.1288 -0.2976
   48MOL    C8826502   7.172   0.933   1.144 -0.0444  0.8047 -0.3321
   48MOL    O8926503   7.241   1.034   1.075  0.4013 -0.0184  0.0705
   48MOL    C9026504   7.098   0.839   1.042 -0.3263  0.0649 -0.7291
   48MOL    C9126505   6.980   0.916   0.977 -0.0028  0.7413  0.2652
   48MOL    C9226506   6.901   0.833   0.882 -0.2036 -0.1431  0.1975
   48MOL    O9326507   6.799   0.910   0.821  0.9539  0.0134  0.1791
   48MOL    C9426508   6.840   0.712   0.936  1.1695 -0.0246 -0.1975
   48MOL    C9526509   6.762   0.626   0.832 -0.0109 -0.0664 -0.0149
   48MOL    C9626510   6.954   0.630   1.011 -0.3979 -0.6125  0.8077
   48MOL    C9726511   7.035   0.712   1.108 -0.4150 -0.4421  0.8571
   48MOL    H9826512   7.248   0.790   1.290 -2.4346  2.0037  0.7309
   48MOL    H9926513   7.366   0.827   1.174  2.7623 -0.3237  3.2681
   48MOL   H10026514   7.092   0.970   1.207 -1.8379 -1.7710 -1.0335
   48MOL   H10126515   7.299   1.070   1.141 -0.3321 -0.0296  0.7282
   48MOL   H10226516   7.163   0.799   0.965  0.0544 -3.5971  1.3821
   48MOL   H10326517   6.920   0.961   1.056 -0.9088 -0.0325  0.0241
   48MOL   H10426518   7.019   1.000   0.920 -2.4974 -0.2081 -2.9821
   48MOL   H10526519   6.971   0.803   0.804 -0.5928  1.6132 -0.8589
   48MOL   H10626520   6.831   0.998   0.828  1.0069 -0.1057  1.5013
   48MOL   H10726521   6.768   0.741   1.013  0.2371  3.6308 -2.3055
   48MOL   H10826522   6.695   0.681   0.764  0.3708  0.6031  0.1484
   48MOL   H10926523   6.830   0.568   0.770  1.2426  1.5459 -0.1794
   48MOL   H11026524   7.024   0.597   0.935  0.7902  1.1846  1.0936
   48MOL   H11126525   6.897   0.553   1.063  0.4147 -0.8864  1.2951
   48MOL   H11226526   7.106   0.652   1.165  0.3605 -1.5621 -1.2480
   48MOL   H11326527   6.958   0.746   1.178  0.8873  2.3832  1.0202
   48MOL   O11426528   6.692   0.534   0.910  0.1636  0.6024 -0.3844
   48MOL   C11526529   6.600   0.456   0.827  0.4776 -0.1138 -0.3125
   48MOL   C11626530   6.525   0.363   0.917 -0.5527  0.0011  0.4302
   48MOL   O11726531   6.630   0.275   0.969  0.3448 -0.3157 -0.1052
   48MOL   C11826532   6.444   0.430   1.035  0.0959 -0.0982 -0.5247
   48MOL   C11926533   6.355   0.335   1.110  0.5489 -0.0809  0.2424
   48MOL   C12026534   6.265   0.401   1.218 -0.4044 -0.2229  0.2746
   48MOL   O12126535   6.175   0.305   1.275 -0.5433  0.0401  0.2816
   48MOL   C12226536   6.192   0.538   1.184 -0.0788 -0.1865 -0.0542
   48MOL   C12326537   6.146   0.604   1.317  0.3286 -0.3933 -0.8649
   48MOL   C12426538   6.295   0.628   1.105  0.2575  0.7329 -0.2746
   48MOL   C12526539   6.360   0.553   0.988  0.0428 -0.5242 -1.0969
   48MOL   H12626540   6.652   0.397   0.752 -0.5507 -0.0591 -1.0704
   48MOL   H12726541   6.540   0.518   0.760  0.7822 -0.1594 -0.6303
   48MOL   H12826542   6.456   0.304   0.856 -1.8951 -0.6647  2.5426
   48MOL   H12926543   6.704   0.333   0.965 -0.7099  1.0716 -0.0267
   48MOL   H13026544   6.513   0.474   1.108  1.5803 -0.0509 -1.9294
   48MOL   H13126545   6.285   0.287   1.041 -0.5372  2.8367 -0.7828
   48MOL   H13226546   6.421   0.253   1.139  1.5192 -0.6614 -3.3676
   48MOL   H13326547   6.342   0.424   1.291  1.3269 -2.0346 -0.9114
   48MOL   H13426548   6.140   0.339   1.356 -2.8938 -0.6117 -0.4078
   48MOL   H13526549   6.104   0.527   1.121 -0.2210 -3.5712  0.6598
   48MOL   H13626550   6.063   0.556   1.369 -0.4585  2.4387  0.6152
   48MOL   H13726551   6.229   0.605   1.387 -0.2753  0.2231 -0.1381
   48MOL   H13826552   6.372   0.672   1.169  0.5772  0.2506 -0.3219
   48MOL   H13926553   6.241   0.712   1.061  2.1680  2.1261 -0.0112
   48MOL   H14026554   6.416   0.619   0.921  1.8486 -0.4598  0.4332
   48MOL   H14126555   6.279   0.507   0.932 -1.2889  0.6385 -0.1667
   48MOL   O14226556   6.088   0.726   1.284 -0.2262 -0.2712 -0.1895
   48MOL   C14326557   6.048   0.800   1.398  0.0516  0.0917 -0.4658
   48MOL   C14426558   5.999   0.938   1.358 -0.8502 -0.3563 -0.1857
   48MOL   O14526559   6.110   0.975   1.272  0.2168  0.2599  0.2993
   48MOL   C14626560   5.865   0.944   1.274  0.0609  0.2923 -0.0817
   48MOL   C14726561   5.867   0.859   1.137  0.5179 -0.1885 -0.3086
   48MOL   C14826562   5.739   0.861   1.051  0.0095 -0.6238  0.0856
   48MOL   O14926563   5.769   0.803   0.924 -0.5008  0.7120  0.2330
   48MOL   C15026564   5.688   1.006   1.040  0.2644  0.0384 -0.4377
   48MOL   C15126565   5.560   1.013   0.959  0.0253  0.5045  0.4590
   48MOL   C15226566   5.680   1.079   1.173 -0.4966  0.6217 -0.4446
   48MOL   C15326567   5.819   1.085   1.229  1.1997 -0.1083  0.0242
   48MOL   H15426568   6.132   0.817   1.465  0.9946  1.7154 -2.0108
   48MOL   H15526569   5.977   0.751   1.465  0.0196 -0.1246 -0.6598
   48MOL   H15626570   5.981   1.003   1.444 -2.0329 -0.8906 -0.0206
   48MOL   H15726571   6.124   0.894   1.225  1.0814  0.5389  0.0765
   48MOL   H15826572   5.785   0.897   1.332 -1.2486  1.8407 -0.5751
   48MOL   H15926573   5.953   0.890   1.078 -0.6436  2.7151 -0.5565
   48MOL   H16026574   5.883   0.754   1.160  3.1242  0.4805  1.1884
   48MOL   H16126575   5.657   0.803   1.094  1.0675 -1.9206  0.3765
   48MOL   H16226576   5.756   0.709   0.930  1.9428  0.3402  0.4452
   48MOL   H16326577   5.755   1.068   0.980 -2.4040  2.1760 -1.3311
   48MOL   H16426578   5.567   0.989   0.853  1.9679 -1.9465  1.0909
   48MOL   H16526579   5.493   0.933   0.991  0.6460 -0.7954 -1.4120
   48MOL   H16626580   5.606   1.037   1.241 -1.5628  1.5983 -0.9695
   48MOL   H16726581   5.648   1.183   1.167  0.4248  1.0124  1.2612
   48MOL   H16826582   5.822   1.150   1.317  2.0062 -0.5266  0.3111
   48MOL   H16926583   5.892   1.125   1.158  1.1946  0.0433  0.1023
   48MOL   O17026584   5.505   1.141   0.980 -0.3590 -0.4198 -0.3983
   48MOL   C17126585   5.553   1.241   0.894  0.4392  0.0364 -0.7012
   48MOL   C17226586   5.482   1.245   0.761  1.1488  0.3675 -0.5605
   48MOL   O17326587   5.419   1.371   0.754  0.0703  0.1159  0.1349
   48MOL   C17426588   5.566   1.224   0.633 -0.0875 -0.6480  0.2371
   48MOL   C17526589   5.676   1.329   0.605  0.3998 -0.0428  0.1185
   48MOL   C17626590   5.752   1.295   0.476 -0.5004 -0.1014  0.0736
   48MOL   O17726591   5.835   1.406   0.452  0.0107 -0.2679  0.0606
   48MOL   C17826592   5.666   1.268   0.353 -0.3548 -0.6168  0.0023
   48MOL   C17926593   5.754   1.225   0.227 -0.5392  0.3330 -0.1254
   48MOL   C18026594   5.558   1.170   0.386  0.2793  0.7987  0.0310
   48MOL   C18126595   5.478   1.207   0.507 -0.1467 -0.0027  0.5096
   48MOL   H18226596   5.660   1.232   0.877  0.6286  0.1851  0.3919
   48MOL   H18326597   5.544   1.342   0.935 -1.0542 -0.4158  0.1065
   48MOL   H18426598   5.401   1.172   0.761  1.3946  0.0565 -2.0742
   48MOL   H18526599   5.477   1.442   0.776 -0.0411  0.5956 -1.0517
   48MOL   H18626600   5.621   1.134   0.658 -1.2358 -0.7628  2.4894
   48MOL   H18726601   5.630   1.427   0.594  1.6507  0.4845 -0.5862
   48MOL   H18826602   5.740   1.337   0.693 -2.2562 -0.9872  2.1902
   48MOL   H18926603   5.826   1.217   0.493  1.3505  1.7962  0.9895
   48MOL   H19026604   5.773   1.477   0.445 -0.4242 -0.2271  3.5376
   48MOL   H19126605   5.611   1.359   0.329  0.9529 -0.3135 -1.9504
   48MOL   H19226606   5.820   1.307   0.199 -1.0395  0.5890 -0.5654
   48MOL   H19326607   5.812   1.142   0.268 -1.3625 -0.4302 -0.4929
   48MOL   H19426608   5.611   1.076   0.404  0.9716  1.4406  1.3498
   48MOL   H19526609   5.484   1.155   0.307  1.2251 -0.4381 -0.6546
   48MOL   H19626610   5.404   1.130   0.530 -0.2561 -0.0754 -0.0674
   48MOL   H19726611   5.421   1.298   0.487  0.3704  0.2895  0.3594
   48MOL   O19826612   5.662   1.202   0.120  0.0615  0.2047  0.6487
   48MOL   C19926613   5.726   1.169   0.001 -0.1544  0.2338  0.1602
   48MOL   C20026614   5.716   1.014   7.608  0.0447  0.4099  0.1833
   48MOL   O20126615   5.773   0.953   0.089 -0.5247  0.7881 -0.3751
   48MOL   C20226616   5.566   0.970   7.591 -0.0157  0.3486  0.6092
   48MOL   C20326617   5.538   0.826   7.614 -0.2349 -0.2149  0.2560
   48MOL   C20426618   5.392   0.782   7.583  0.1384  0.7606  0.2688
   48MOL   O20526619   5.399   0.646   7.603  0.1602 -0.1280  0.1940
   48MOL   C20626620   5.341   0.814   7.437  0.1371 -0.5911  0.2455
   48MOL   C20726621   5.194   0.787   7.419  0.0904  0.0964  0.2796
   48MOL   C20826622   5.377   0.966   7.425  0.0870 -0.3097 -0.2798
   48MOL   C20926623   5.521   1.001   7.452 -0.9836  0.2171  0.1794
   48MOL   H21026624   5.828   1.201   7.610  0.4162 -1.9309 -0.4223
   48MOL   H21126625   5.666   1.229   7.561 -0.3566  0.7741  0.7851
   48MOL   H21226626   5.783   0.983   7.527  1.2217  1.0343  0.9048
   48MOL   H21326627   5.706   0.967   0.154  0.5078  1.2376  0.6153
   48MOL   H21426628   5.503   1.029   0.028 -1.0956  0.1725 -0.2467
   48MOL   H21526629   5.597   0.754   7.557 -4.0542 -2.3329 -1.1941
   48MOL   H21626630   5.562   0.796   0.087 -2.6629  0.2139  0.9998
   48MOL   H21726631   5.318   0.818   0.025 -0.2501 -1.0642  0.8292
   48MOL   H21826632   5.385   0.625   0.064  1.3716 -3.9189 -0.4063
   48MOL   H21926633   5.400   0.764   7.360 -1.1811  0.3094 -1.3605
   48MOL   H22026634   5.164   0.689   7.456 -3.0225  0.8855  0.0111
   48MOL   H22126635   5.137   0.847   7.490 -0.5256  0.8934 -0.8733
   48MOL   H22226636   5.311   1.020   7.494  0.5438 -0.1557  0.0371
   48MOL   H22326637   5.353   1.008   7.327 -0.3247 -1.7317 -0.7936
   48MOL   H22426638   5.538   1.106   7.428  0.1808  0.2354  1.0612
   48MOL   H22526639   5.590   0.944   7.390  0.2478 -0.6476  2.2983
   48MOL   O22626640   5.145   0.813   7.286 -0.1807  0.4367 -0.0529
   48MOL   C22726641   5.194   0.729   7.176  0.1459  0.3533  0.3037
   48MOL   C22826642   5.075   0.710   7.070  0.3619 -0.8882 -0.4599
   48MOL   O22926643   5.109   0.634   6.957  0.6060  0.1258 -0.4883
   48MOL   C23026644   4.942   0.662   7.133  0.7966  0.0784  0.3180
   48MOL   C23126645   4.948   0.534   7.220 -0.6175 -0.1596  0.2167
   48MOL   C23226646   4.951   0.398   7.146  0.2711  0.9221  0.4724
   48MOL   O23326647   5.073   0.372   7.081  0.8688  0.4741 -0.7561
   48MOL   C23426648   4.837   0.383   7.034  0.2263  0.5960 -0.0567
   48MOL   C23526649   4.703   0.327   7.090 -0.4024  0.2141 -0.1865
   48MOL   C23626650   4.815   0.515   6.955  0.1571 -0.1471  0.2350
   48MOL   C23726651   4.822   0.645   7.029 -0.0340 -0.7486  0.1585
   48MOL   H23826652   5.222   0.629   7.211 -0.1116 -0.2017 -1.0360
   48MOL   H23926653   5.285   0.773   7.136  0.4286  1.0453  1.6733
   48MOL   H24026654   5.053   0.813   7.041 -1.5006 -1.0029  0.4431
   48MOL   H24126655   5.120   0.547   6.992  0.4777  0.2348 -0.1776
   48MOL   H24226656   4.900   0.737   7.200 -0.8380 -1.4875  1.0654
   48MOL   H24326657   5.037   0.543   7.282 -0.3343 -1.7648  0.0520
   48MOL   H24426658   4.866   0.543   7.291  0.9947  1.2451  1.9817
   48MOL   H24526659   4.932   0.316   7.216  0.0546 -0.9153 -1.7063
   48MOL   H24626660   5.138   0.361   7.149 -0.3669  1.0369  0.5270
   48MOL   H24726661   4.876   0.301   6.975  2.7698 -1.5158  4.3644
   48MOL   H24826662   4.636   0.287   7.014 -2.0034  2.3056  0.0683
   48MOL   H24926663   4.718   0.254   7.170 -0.5805 -0.4981 -0.7978
   48MOL   H25026664   4.720   0.514   6.901  0.3566 -0.7494 -0.1057
   48MOL   H25126665   4.884   0.507   6.871 -1.0554 -1.7037 -0.6339
   48MOL   H25226666   4.723   0.654   7.074  0.4426  2.6790  0.6510
   48MOL   H25326667   4.827   0.719   6.949 -1.6497 -1.9148 -1.0478
   48MOL   O25426668   4.645   0.435   7.157  0.2898 -0.2097 -0.2032
   48MOL   C25526669   4.524   0.393   7.217 -0.3000 -0.3429  0.1894
   48MOL   C25626670   4.413   0.401   7.113  0.0731  0.1777  0.6888
   48MOL   O25726671   4.294   0.333   7.158  0.3814  0.4557  0.0315
   48MOL   C25826672   4.381   0.546   7.077  0.0765  0.0532 -0.1322
   48MOL   C25926673   4.309   0.632   7.180  0.1198  0.5380  0.3514
   48MOL   C26026674   4.295   0.775   7.123 -0.6379 -0.2283  0.6226
   48MOL   O26126675   4.236   0.859   7.219  0.0811 -0.2501  0.1446
   48MOL   C26226676   4.206   0.777   6.991 -0.1718 -0.3817  0.0082
   48MOL   C26326677   4.197   0.912   6.924 -0.0711  0.1289 -1.4276
   48MOL   C26426678   4.274   0.683   6.889  0.1089 -0.1495 -0.8999
   48MOL   C26526679   4.305   0.542   6.939 -0.3604  0.3396  0.4004
   48MOL   H26626680   4.505   0.462   7.299 -0.7190  1.3977 -1.3333
   48MOL   H26726681   4.533   0.296   7.265 -2.9416 -0.3405  0.7923
   48MOL   H26826682   4.445   0.337   7.030 -0.3400  0.1164  0.5767
   48MOL   H26926683   4.235   0.328   7.085  0.1230 -2.3066  0.3425
   48MOL   H27026684   4.474   0.600   7.056 -0.4055  0.7138 -0.5771
   48MOL   H27126685   4.209   0.589   7.188 -0.1093  0.6959 -1.6127
   48MOL   H27226686   4.356   0.643   7.278  1.2072 -1.2800  0.0651
   48MOL   H27326687   4.392   0.820   7.100 -1.1065  0.6237  0.3056
   48MOL   H27426688   4.303   0.924   7.236  1.8028 -1.6080 -1.2458
   48MOL   H27526689   4.109   0.740   7.025 -0.0583  1.8845  2.9463
   48MOL   H27626690   4.161   0.996   6.983  0.7779  0.0804 -0.8269
   48MOL   H27726691   4.301   0.940   6.907  0.4372  1.0072  2.6756
   48MOL   H27826692   4.370   0.727   6.866 -0.0567 -0.4788 -2.2421
   48MOL   H27926693   4.224   0.668   6.793  0.4679 -0.0547 -1.0995
   48MOL   H28026694   4.369   0.508   6.857  1.0622  4.6915 -0.4097
   48MOL   H28126695   4.218   0.476   6.937 -0.3577  0.3474 -0.4602
   48MOL   O28226696   4.132   0.926   6.800 -0.8625  0.2201  0.2047
   48MOL   C28326697   4.175   1.038   6.729  0.0528  0.0004 -0.0021
   48MOL   C28426698   4.107   1.041   6.599 -0.2850 -0.4166 -0.3518
   48MOL   O28526699   3.966   1.024   6.631 -0.0130  0.4866  0.0378
   48MOL   C28626700   4.145   1.167   6.517  0.3728 -0.3645  0.0212
   48MOL   C28726701   4.105   1.307   6.575  0.6249  0.3965 -0.0393
   48MOL   C28826702   4.164   1.419   6.486  0.2667  0.6031 -0.3810
   48MOL   O28926703   4.108   1.540   6.534  0.1442  0.0232 -0.1900
   48MOL   C29026704   4.122   1.408   6.340  0.2224  0.1828 -0.0981
   48MOL   C29126705   4.192   1.515   6.246  0.4339  0.1068 -0.5072
   48MOL   C29226706   4.155   1.265   6.290  0.2256 -0.1317  0.0280
   48MOL   C29326707   4.093   1.153   6.372 -0.6204 -0.0387  0.1574
   48MOL   H29426708   4.283   1.035   6.712 -0.0433 -1.8092 -0.3801
   48MOL   H29526709   4.146   1.127   6.786  1.7249  0.6085 -0.0667
   48MOL   H29626710   4.131   0.952   6.540 -1.5392  0.1273 -1.7089
   48MOL   H29726711   3.962   0.956   6.697 -0.5365 -0.3814 -0.8820
   48MOL   H29826712   4.254   1.167   6.521  0.3612 -1.2397  0.6104
   48MOL   H29926713   3.996   1.306   6.566  0.7361  1.7358 -1.7894
   48MOL   H30026714   4.131   1.317   6.680  1.9597  1.0652 -0.4258
   48MOL   H30126715   4.272   1.411   6.500 -0.2014 -0.5906  3.2443
   48MOL   H30226716   4.074   1.600   6.469  1.2962  0.3006 -0.5353
   48MOL   H30326717   4.014   1.419   6.332  0.1731 -0.5537 -0.4241
   48MOL   H30426718   4.203   1.616   6.286  1.4737  0.5902 -1.9564
   48MOL   H30526719   4.294   1.481   6.226  0.2753 -0.3518 -0.5418
   48MOL   H30626720   4.262   1.246   6.283  0.4095  1.2595 -1.1511
   48MOL   H30726721   4.118   1.247   6.189  0.2676  0.0774 -0.0255
   48MOL   H30826722   4.131   1.054   6.349  2.2176  0.7218  1.3454
   48MOL   H30926723   3.984   1.155   6.376 -0.7478 -0.0940 -2.4708
   48MOL   O31026724   4.120   1.513   6.121  0.1496  0.5763 -0.0144
   48MOL   C31126725   4.164   1.602   6.024  0.0025 -0.6213  0.5618
   48MOL   C31226726   4.054   1.606   5.915 -1.4502 -0.4682  0.3318
   48MOL   O31326727   3.939   1.665   5.978  0.4586  0.4798 -0.2209
   48MOL   C31426728   4.100   1.698   5.796  0.5800 -0.0747  0.5901
   48MOL   C31526729   4.196   1.637   5.697  0.2087  0.0675 -0.6008
   48MOL   C31626730   4.216   1.733   5.574 -0.0790  0.3993  0.7183
   48MOL   O31726731   4.318   1.675   5.499  0.4382  0.0911  0.2797
   48MOL   C31826732   4.275   1.871   5.621  0.1151 -0.2585  0.2751
   48MOL   C31926733   4.284   1.965   5.498 -0.3040 -0.1017 -0.3061
   48MOL   C32026734   4.184   1.919   5.733  0.5918  0.5298 -0.4117
   48MOL   C32126735   4.154   1.829   5.847  0.7148 -0.0216 -0.2464
   48MOL   H32226736   4.261   1.562   5.996  0.3161 -0.1096  0.8947
   48MOL   H32326737   4.173   1.704   6.062 -1.0745 -1.4293  3.1322
   48MOL   H32426738   4.030   1.507   5.877  1.5630 -0.9133 -0.5011
   48MOL   H32526739   3.923   1.602   6.047 -3.1654 -0.3180 -1.6731
   48MOL   H32626740   4.011   1.712   5.735  0.3342  2.4321  1.4672
   48MOL   H32726741   4.284   1.613   5.756 -1.0361  0.6844  1.5916
   48MOL   H32826742   4.140   1.550   5.664 -0.8898  1.5886 -2.8628
   48MOL   H32926743   4.129   1.759   5.513 -0.7004 -1.1000  0.9359
   48MOL   H33026744   4.320   1.584   5.522  1.3152  0.2489  0.8642
   48MOL   H33126745   4.372   1.870   5.671  0.1346 -1.5392  0.2330
   48MOL   H33226746   4.357   1.919   5.431 -0.2846 -0.0761 -0.3015
   48MOL   H33326747   4.191   1.970   5.442 -2.0766 -0.0233  2.5500
   48MOL   H33426748   4.093   1.956   5.685 -0.8115  0.0373  1.7434
   48MOL   H33526749   4.222   2.014   5.770 -0.6470  1.6798 -2.0227
   48MOL   H33626750   4.076   1.881   5.902  0.1568 -1.9803  0.8544
   48MOL   H33726751   4.241   1.835   5.913 -0.4031  0.5557  1.2191
   48MOL   O33826752   4.322   2.092   5.548 -0.2920 -0.5733 -0.8233
   48MOL   C33926753   4.301   2.193   5.446  0.3985 -0.3437  0.2670
   48MOL   C34026754   4.368   2.325   5.490  0.7786 -0.1086  0.1793
   48MOL   O34126755   4.326   2.349   5.619  0.7839  0.1673  0.1187
   48MOL   C34226756   4.526   2.315   5.489 -0.0951  0.1548  0.4670
   48MOL   C34326757   4.594   2.430   5.561 -0.1994  0.1153 -0.1124
   48MOL   C34426758   4.748   2.410   5.548 -0.2085 -0.1276 -0.0233
   48MOL   O34526759   4.800   2.511   5.636  0.2232  0.3062  0.1156
   48MOL   C34626760   4.806   2.417   5.404 -1.3626 -0.5179 -0.3423
   48MOL   C34726761   4.961   2.413   5.392  0.4565 -0.4998  0.1731
   48MOL   C34826762   4.732   2.298   5.334 -0.0846  0.0248  0.1607
   48MOL   C34926763   4.581   2.305   5.342  0.3382 -0.0359  0.4540
   48MOL   H35026764   4.197   2.219   5.426  0.6578  0.6396  0.1619
   48MOL   H35126765   4.358   2.161   5.360  1.2184  2.3611 -0.2518
   48MOL   H35226766   4.330   2.407   5.429  2.3758 -0.7858 -1.7868
   48MOL   H35326767   4.317   2.260   5.651 -1.8465  0.2448 -0.3145
   48MOL   H35426768   4.555   2.222   5.540  1.5019  1.9217  2.8888
   48MOL   H35526769   4.574   2.522   5.506 -0.0907 -0.0903 -0.5007
   48MOL   H35626770   4.560   2.445   5.663 -2.0681  1.1238 -0.8548
   48MOL   H35726771   4.780   2.313   5.587 -0.1036  0.2399  0.8203
   48MOL   H35826772   4.772   2.489   5.723  0.8545  1.5014  0.6403
   48MOL   H35926773   4.779   2.508   5.350  1.7278  0.1766 -0.8026
   48MOL   H36026774   5.004   2.503   5.437  0.5054  0.1858 -1.2409
   48MOL   H36126775   4.998   2.329   5.452 -0.5161 -0.6924  0.5175
   48MOL   H36226776   4.759   2.205   5.384  2.4340  2.3254  3.3301
   48MOL   H36326777   4.773   2.299   5.233  1.8096  0.1452  0.9029
   48MOL   H36426778   4.542   2.216   5.293  1.2028  1.1472 -2.5303
   48MOL   H36526779   4.556   2.394   5.284 -1.4151 -0.6827  0.2060
   48MOL   O36626780   5.005   2.392   5.264  0.2224  0.4429  0.3416
   48MOL   C36726781   4.976   2.490   5.163  0.5800 -0.3644  0.5152
   48MOL   C36826782   5.077   2.461   5.051  0.1311  0.6264 -0.5752
   48MOL   O36926783   5.199   2.472   5.118 -0.1687  0.1529  0.1452
   48MOL   C37026784   5.068   2.325   4.984 -1.2234 -0.2881  0.5264
   48MOL   C37126785   5.166   2.313   4.861 -0.2106 -0.4936  0.1232
   48MOL   C37226786   5.166   2.175   4.791 -0.0734  0.2123  0.0627
   48MOL   O37326787   5.246   2.193   4.680 -0.1110  0.3479 -0.2409
   48MOL   C37426788   5.026   2.121   4.751 -0.6488 -0.0621 -0.6110
   48MOL   C37526789   5.026   1.978   4.702  0.6401  0.5958 -0.1519
   48MOL   C37626790   4.926   2.138   4.874 -0.9088  0.0788  0.5285
   48MOL   C37726791   4.926   2.279   4.942 -0.5016  0.4066 -0.4162
   48MOL   H37826792   4.996   2.590   5.200  1.6921  0.0406 -1.1239
   48MOL   H37926793   4.874   2.483   5.124 -0.1459  1.7152  2.0000
   48MOL   H38026794   5.064   2.532   4.970  0.3717 -0.7407 -1.8341
   48MOL   H38126795   5.183   2.494   5.208 -0.3149 -1.4221  0.5323
   48MOL   H38226796   5.112   2.251   5.051  0.9685 -1.5731 -2.2671
   48MOL   H38326797   5.125   2.395   4.801 -0.4235 -0.5431  0.2026
   48MOL   H38426798   5.269   2.345   4.879 -0.1225 -0.5813 -0.2242
   48MOL   H38526799   5.222   2.105   4.853  0.6428 -0.2109 -1.0482
   48MOL   H38626800   5.271   2.107   4.650  2.0565  0.6899  0.4897
   48MOL   H38726801   4.997   2.187   4.670 -0.1386  1.3954  0.3784
   48MOL   H38826802   5.089   1.964   4.613  0.7689 -1.7492  0.2762
   48MOL   H38926803   5.061   1.909   4.778 -1.7717  0.0677  0.5326
   48MOL   H39026804   4.938   2.063   4.952 -0.1794  1.8610  2.1503
   48MOL   H39126805   4.830   2.110   4.831 -0.3845 -0.0439 -0.6062
   48MOL   H39226806   4.882   2.267   5.041 -0.3407  1.3610 -0.2182
   48MOL   H39326807   4.874   2.360   4.890  1.7505  3.4929  1.9493
   48MOL   O39426808   4.901   1.930   4.661  0.3610 -0.2490  0.2099
   48MOL   C39526809   4.862   1.980   4.528  0.0221 -0.7594 -0.5257
   48MOL   C39626810   4.713   2.024   4.538 -0.5626 -0.2804 -0.5571
   48MOL   O39726811   4.682   2.100   4.421 -0.6127 -0.4670 -0.5956
   48MOL   C39826812   4.607   1.912   4.559 -0.0173 -0.5028 -0.1410
   48MOL   C39926813   4.604   1.847   4.696  0.4550  0.1857  0.1739
   48MOL   C40026814   4.475   1.760   4.710  0.0340  0.7742  0.0833
   48MOL   O40126815   4.479   1.707   4.842 -0.1481  0.1200 -0.0922
   48MOL   C40226816   4.480   1.641   4.609 -0.1177 -0.3601 -0.1122
   48MOL   C40326817   4.375   1.529   4.621  0.9008  0.4120  0.5388
   48MOL   C40426818   4.496   1.710   4.461  0.2099 -0.1990  0.0988
   48MOL   C40526819   4.622   1.801   4.451 -0.7653  0.2054 -0.4787
   48MOL   H40626820   4.876   1.913   4.443 -4.0557 -1.5379 -0.7141
   48MOL   H40726821   4.903   2.079   4.514 -1.5747  0.3170  1.9750
   48MOL   H40826822   4.699   2.087   4.626 -0.3947 -0.5781 -0.3167
   48MOL   H40926823   4.661   2.041   4.350 -2.0313 -2.2694  1.2744
   48MOL   H41026824   4.507   1.956   4.551  0.2010 -0.3781 -2.5619
   48MOL   H41126825   4.693   1.787   4.716  0.2605 -0.5624 -1.1492
   48MOL   H41226826   4.591   1.922   4.774  0.4226 -0.2920  0.6335
   48MOL   H41326827   4.385   1.820   4.701 -0.5047 -0.2849 -1.7803
   48MOL   H41426828   4.412   1.640   4.832 -0.8034  0.9825 -1.7757
   48MOL   H41526829   4.573   1.585   4.617  0.4707  0.6734  0.3904
   48MOL   H41626830   4.374   1.463   4.535 -0.6902 -1.3741  1.8750
   48MOL   H41726831   4.416   1.469   4.702 -0.8822 -1.5956 -0.0075
   48MOL   H41826832   4.413   1.777   4.440 -0.6394 -1.5317 -0.9001
   48MOL   H41926833   4.501   1.639   4.379  0.8308 -0.1874  0.1239
   48MOL   H42026834   4.622   1.841   4.349  2.6069  0.7593 -0.3252
   48MOL   H42126835   4.708   1.738   4.474 -0.8734 -0.2426 -1.2590
   48MOL   O42226836   4.241   1.566   4.650 -0.0931  0.2938 -0.4118
   48MOL   C42326837   4.172   1.619   4.539  0.3732 -0.6802  0.0385
   48MOL   C42426838   4.018   1.610   4.567 -0.7676  0.1358 -1.5574
   48MOL   O42526839   3.984   1.699   4.668  0.3598 -0.1332 -0.2076
   48MOL   C42626840   3.935   1.652   4.440 -0.6019 -0.6466 -0.4414
   48MOL   C42726841   3.947   1.799   4.388 -0.7207 -0.3100  0.4176
   48MOL   C42826842   3.880   1.825   4.255 -1.1228 -0.0526  0.5687
   48MOL   O42926843   3.887   1.958   4.212  0.0213  0.1779  0.3190
   48MOL   C43026844   3.723   1.785   4.270  0.4351 -0.4731  0.1817
   48MOL   C43126845   3.660   1.794   4.124  0.5115  0.4719 -0.7289
   48MOL   C43226846   3.719   1.643   4.322  0.7608  0.8893  0.1707
   48MOL   C43326847   3.779   1.624   4.459  0.2408  0.4572 -0.3261
   48MOL   H43426848   4.203   1.576   4.444 -0.6832  1.5542 -1.3545
   48MOL   H43526849   4.197   1.724   4.525 -0.0450 -0.6335 -0.3617
   48MOL   H43626850   3.993   1.510   4.604  0.9617 -0.4324 -1.9097
   48MOL   H43726851   3.998   1.659   4.752 -0.6981  1.3981  0.7337
   48MOL   H43826852   3.981   1.581   4.371  0.7173 -0.0017 -0.2452
   48MOL   H43926853   3.894   1.860   4.460 -0.4846  0.2999  0.0795
   48MOL   H44026854   4.050   1.835   4.377 -1.5226  1.9677  0.1048
   48MOL   H44126855   3.926   1.762   4.179  0.8342  0.7108  1.0688
   48MOL   H44226856   3.815   1.983   4.156 -0.5002  1.6630  1.6218
   48MOL   H44326857   3.682   1.855   4.343  0.3045 -0.8546  0.4762
   48MOL   H44426858   3.711   1.728   4.053  1.8999  1.8411 -1.0054
   48MOL   H44526859   3.556   1.759   4.122  0.4567  0.5496  0.5610
   48MOL   H44626860   3.765   1.567   4.259 -0.3278  0.4320 -0.0902
   48MOL   H44726861   3.613   1.616   4.323  0.7340  0.9949  0.2341
   48MOL   H44826862   3.765   1.522   4.494 -0.1342  1.7679  3.5819
   48MOL   H44926863   3.728   1.694   4.526 -0.0704 -0.0650 -0.0188
   48MOL   O45026864   3.649   1.931   4.089 -0.3951  0.1061 -0.1834
   48MOL   C45126865   3.580   1.947   3.967 -0.1400  0.7482  0.3681
   48MOL   C45226866   3.597   2.099   3.934 -0.2713 -0.0697  0.3919
   48MOL   O45326867   3.521   2.172   4.021  0.2749 -0.2090  0.2261
   48MOL   C45426868   3.748   2.135   3.925 -1.1429 -0.4393  0.4940
   48MOL   C45526869   3.765   2.283   3.873 -0.5907  0.0556  0.2048
   48MOL   C45626870   3.912   2.328   3.879  0.8473  0.8656 -0.0464
   48MOL   O45726871   3.924   2.461   3.845 -0.3594 -0.6021  0.2151
   48MOL   C45826872   3.994   2.240   3.784  0.6165 -0.3578  0.3621
   48MOL   C45926873   4.141   2.276   3.786  0.7381 -0.1336 -0.1529
   48MOL   C46026874   3.986   2.095   3.822  0.3956  0.7093 -0.2244
   48MOL   C46126875   3.836   2.037   3.841 -0.3186 -0.0255  0.3419
   48MOL   H46226876   3.473   1.931   3.984 -0.1194  2.0449  1.8081
   48MOL   H46326877   3.624   1.883   3.891  0.0698 -0.0864  1.1905
   48MOL   H46426878   3.563   2.122   3.833  1.1346  0.0168 -0.0799
   48MOL   H46526879   3.510   2.115   4.095 -1.7354 -0.8222 -0.4981
   48MOL   H46626880   3.778   2.132   4.030 -1.8252  1.9426  0.7965
   48MOL   H46726881   3.729   2.294   3.771 -2.0978 -3.3776  0.3020
   48MOL   H46826882   3.705   2.346   3.938  1.3368  2.4659 -0.2618
   48MOL   H46926883   3.945   2.319   3.982 -1.5177  1.9845  0.8544
   48MOL   H47026884   4.004   2.490   3.886 -0.7316 -0.7751  1.0628
   48MOL   H47126885   3.962   2.248   3.680  0.6207  0.0475  0.3897
   48MOL   H47226886   4.149   2.380   3.755 -1.3530 -0.0940 -0.6319
   48MOL   H47326887   4.183   2.255   3.885  0.6880  0.5891  0.0241
   48MOL   H47426888   4.052   2.072   3.905 -0.5322  1.0945  0.6335
   48MOL   H47526889   4.030   2.024   3.752 -0.4958 -1.0138  0.9203
   48MOL   H47626890   3.846   1.948   3.904  0.2014  0.4117  0.8793
   48MOL   H47726891   3.789   2.008   3.747 -0.3120  1.6486 -0.1976
   48MOL   O47826892   4.215   2.196   3.686 -0.0625 -0.0295 -0.3318
   48MOL   C47926893   4.358   2.236   3.672  0.0591  0.4976 -0.9111
   48MOL   C48026894   4.409   2.198   3.528  1.3988 -0.1199  0.1869
   48MOL   O48126895   4.397   2.312   3.448 -0.2719  0.5324  0.1760
   48MOL   C48226896   4.554   2.150   3.532  0.5347 -0.0923  0.3230
   48MOL   C48326897   4.608   2.118   3.392  0.2137 -0.5681 -0.2829
   48MOL   C48426898   4.747   2.049   3.394 -0.3666 -0.9496  0.2386
   48MOL   O48526899   4.768   1.997   3.263 -0.3011 -0.1281 -0.3170
   48MOL   C48626900   4.767   1.932   3.496 -0.3159 -0.5032 -0.4842
   48MOL   C48726901   4.909   1.877   3.510 -0.3441 -0.8069 -0.1216
   48MOL   C48826902   4.709   1.989   3.630  0.2711 -0.0667 -0.6557
   48MOL   C48926903   4.556   2.022   3.617  0.1566 -0.5143 -0.3071
   48MOL   H49026904   4.396   2.175   3.754  1.0678  0.4129 -1.4358
   48MOL   H49126905   4.390   2.337   3.698 -1.6954  0.2560  2.5616
   48MOL   H49226906   4.351   2.119   3.480 -1.0538  2.0702 -0.5028
   48MOL   H49326907   4.459   2.376   3.480  0.7751  0.5179 -1.7289
   48MOL   H49426908   4.618   2.217   3.590  0.7308  0.5456 -0.6091
   48MOL   H49526909   4.542   2.045   3.346 -2.1958  1.4395 -0.1124
   48MOL   H49626910   4.601   2.208   3.331 -2.8972 -1.0402 -0.7033
   48MOL   H49726911   4.823   2.121   3.422  0.4050 -1.4822 -0.4621
   48MOL   H49826912   4.736   1.908   3.262  0.0126 -0.2277 -1.7889
   48MOL   H49926913   4.706   1.849   3.459  0.6185 -1.2329 -0.4257
   48MOL   H50026914   4.952   1.854   3.413  2.3458 -1.0161  1.0628
   48MOL   H50126915   4.971   1.954   3.557 -0.8221 -0.8775  0.6422
   48MOL   H50226916   4.766   2.077   3.659 -0.0772  0.5039 -1.6880
   48MOL   H50326917   4.724   1.926   3.717 -2.3106  0.3673  0.1467
   48MOL   H50426918   4.543   2.041   3.724  0.5305  0.8034 -0.4932
   48MOL   H50526919   4.492   1.939   3.587  0.3793 -0.0275 -2.1760
   48MOL   O50626920   4.921   1.763   3.599 -0.5263 -0.6747  0.3757
   48MOL   C50726921   4.861   1.648   3.549 -0.6332 -0.1482 -0.0321
   48MOL   C50826922   4.778   1.580   3.655 -0.2573  0.0058 -0.1673
   48MOL   O50926923   4.644   1.638   3.653 -0.2476  0.3559  0.2182
   48MOL   C51026924   4.762   1.432   3.646 -0.6125  0.0641 -0.0933
   48MOL   C51126925   4.683   1.371   3.765  0.2011  0.0366  0.0351
   48MOL   C51226926   4.679   1.212   3.779 -0.3328  0.7175  0.0078
   48MOL   O51326927   4.622   1.187   3.900  0.3466  0.1855  0.4791
   48MOL   C51426928   4.813   1.140   3.765  0.2377  0.1326 -0.2904
   48MOL   C51526929   4.804   0.989   3.752 -1.0789  0.8388  0.0760
   48MOL   C51626930   4.889   1.200   3.642  0.5381  0.1860 -0.1637
   48MOL   C51726931   4.897   1.350   3.648 -0.7710  0.3788 -0.3446
   48MOL   H51826932   4.944   1.581   3.525 -0.1310  0.4309  0.0885
   48MOL   H51926933   4.808   1.661   3.454 -2.9563  0.8290  1.3542
   48MOL   H52026934   4.819   1.603   3.753  0.2347 -2.7742  0.3343
   48MOL   H52126935   4.602   1.607   3.574  1.6811  1.4790 -1.3311
   48MOL   H52226936   4.702   1.408   3.559  0.3498 -2.1660 -0.1637
   48MOL   H52326937   4.718   1.418   3.857  3.9385 -0.4806 -1.0471
   48MOL   H52426938   4.577   1.390   3.752  0.1118 -1.2328 -1.2432
   48MOL   H52526939   4.610   1.167   3.707  1.0795 -1.2757 -0.1254
   48MOL   H52626940   4.610   1.093   3.902  0.5522  0.1347 -0.3826
   48MOL   H52726941   4.864   1.158   3.859 -0.9041  1.3157  0.1173
   48MOL   H52826942   4.728   0.950   3.684  0.0342 -3.3749  1.0868
   48MOL   H52926943   4.896   0.946   3.713 -0.9602  0.4194  0.8092
   48MOL   H53026944   4.829   1.171   3.556 -0.1522 -1.2260  0.7855
   48MOL   H53126945   4.992   1.166   3.639  0.3995 -0.2144 -0.3593
   48MOL   H53226946   4.955   1.375   3.559 -2.0279  2.4712 -0.6274
   48MOL   H53326947   4.961   1.385   3.730  0.5632 -0.4404 -1.0221
   48MOL   O53426948   4.785   0.939   3.881 -0.6496 -0.6518  0.3746
   48MOL   C53526949   4.800   0.802   3.891 -0.2339 -0.0870  0.4445
   48MOL   C53626950   4.786   0.762   4.037  0.1826 -0.0187 -0.7800
   48MOL   O53726951   4.648   0.798   4.073 -0.0547  0.0511 -0.0644
   48MOL   C53826952   4.810   0.613   4.074  0.0361  0.2240 -0.4829
   48MOL   C53926953   4.963   0.584   4.062  0.4704 -0.1873  0.3179
   48MOL   C54026954   4.997   0.443   4.086  0.1253  0.4445 -0.1017
   48MOL   O54126955   5.135   0.426   4.055 -0.5454  0.3941 -0.2258
   48MOL   C54226956   4.914   0.345   3.996 -0.2953  0.3162  0.6070
   48MOL   C54326957   4.956   0.195   4.031 -0.2175  0.8332  0.1902
   48MOL   C54426958   4.763   0.369   4.017  0.0816 -0.1260  0.4342
   48MOL   C54526959   4.721   0.513   3.990  0.1107 -0.1496  0.3818
   48MOL   H54626960   4.895   0.766   3.852 -0.4888  0.1111 -0.3672
   48MOL   H54726961   4.713   0.762   3.838  0.6426 -0.7644 -0.5227
   48MOL   H54826962   4.855   0.822   4.097  1.2086 -1.3198 -0.6269
   48MOL   H54926963   4.629   0.875   4.022 -0.2832  1.1545  1.6650
   48MOL   H55026964   4.783   0.610   4.180 -0.7667 -1.3917 -0.7244
   48MOL   H55126965   4.986   0.614   3.960  0.8524  1.8624  0.9740
   48MOL   H55226966   5.019   0.642   4.136 -2.3825 -1.0774  3.3016
   48MOL   H55326967   4.982   0.421   4.191 -0.6775 -0.1460 -0.3356
   48MOL   H55426968   5.187   0.474   4.118 -0.3267 -0.0914 -0.0286
   48MOL   H55526969   4.943   0.351   3.891  0.2750  1.5770  0.8309
   48MOL   H55626970   4.895   0.138   3.960  0.2230 -1.0603  1.2901
   48MOL   H55726971   5.056   0.159   4.008 -0.4273 -0.7136  1.5779
   48MOL   H55826972   4.732   0.325   4.112  1.6715 -1.4883  0.3551
   48MOL   H55926973   4.710   0.299   3.951  0.1238  0.1971  0.0594
   48MOL   H56026974   4.613   0.523   3.999  0.0975 -1.2011  1.5471
   48MOL   H56126975   4.743   0.546   3.889 -2.4354  2.5215  0.6398
   48MOL   H56226976   4.936   0.172   4.136  0.8781  1.3702  0.5225
   49MOL     O126977   6.137   1.837   4.742 -0.2472 -0.4741 -0.0743
   49MOL     C226978   6.079   1.721   4.796 -0.2704  0.2596  0.4624
   49MOL     C326979   6.018   1.633   4.688  0.0803  0.3032  0.1681
   49MOL     O426980   6.102   1.638   4.569 -0.5056 -0.3523 -0.5911
   49MOL     C526981   6.000   1.493   4.744 -0.1931 -0.3456 -0.5185
   49MOL     C626982   6.135   1.419   4.766 -0.4320  0.7857 -0.5796
   49MOL     C726983   6.118   1.278   4.827 -0.0554 -0.2224  0.2665
   49MOL     O826984   6.246   1.221   4.838 -0.4800 -0.0732  0.0232
   49MOL     C926985   6.012   1.198   4.751  0.1527 -0.9266 -0.3286
   49MOL    C1026986   5.985   1.058   4.807  0.1893 -1.0477 -0.5810
   49MOL    C1126987   5.881   1.281   4.725  0.8855  0.0402  0.7930
   49MOL    C1226988   5.910   1.414   4.654 -0.0401  0.1498  0.4420
   49MOL    H1326989   5.991   1.759   4.849 -0.1677 -1.3513  1.8558
   49MOL    H1426990   6.154   1.681   4.864 -1.1039 -1.0001  0.6497
   49MOL    H1526991   5.922   1.674   4.657  1.0637  0.6745 -2.4909
   49MOL    H1626992   6.043   1.623   4.496 -0.4571 -0.0438 -0.6918
   49MOL    H1726993   5.956   1.506   4.843  0.6986 -0.0844 -0.1549
   49MOL    H1826994   6.173   1.408   4.664  2.5845  1.7173  0.3806
   49MOL    H1926995   6.205   1.477   4.826  1.6643 -2.3164  0.1344
   49MOL    H2026996   6.081   1.286   4.929 -1.2636  1.6884 -0.2834
   49MOL    H2126997   6.296   1.288   4.881  0.5300 -2.0076  1.9216
   49MOL    H2226998   6.056   1.179   4.653 -0.4431 -0.8977 -0.6011
   49MOL    H2326999   6.068   0.989   4.796  0.9802 -0.4510  1.5110
   49MOL    H2427000   5.964   1.056   4.914 -1.6989  2.6040 -0.8098
   49MOL    H2527001   5.817   1.294   4.813  0.1269  2.7784 -0.1099
   49MOL    H2627002   5.829   1.218   4.653  4.7649 -0.2717 -1.8618
   49MOL    H2727003   5.822   1.473   4.628  2.1812  2.7376 -1.4592
   49MOL    H2827004   5.970   1.401   4.565  0.6716 -1.5744  1.1442
   49MOL    H2927005   6.176   1.817   4.658  0.4932 -2.4668  0.7193
   49MOL    O3027006   5.882   0.986   4.746 -0.3235 -0.2360 -0.2691
   49MOL    C3127007   5.903   0.969   4.604 -0.3015  0.0882 -0.0913
   49MOL    C3227008   5.875   0.812   4.582  0.0101 -0.3890 -0.3014
   49MOL    O3327009   5.843   0.781   4.449 -0.2413 -0.1532 -0.3138
   49MOL    C3427010   5.999   0.725   4.622 -0.0340  0.1731 -0.1785
   49MOL    C3527011   6.107   0.700   4.511 -0.1324 -0.7525 -0.5051
   49MOL    C3627012   6.237   0.633   4.557  0.1758  0.4537  0.4961
   49MOL    O3727013   6.311   0.598   4.446 -0.4600 -0.5501 -0.0370
   49MOL    C3827014   6.201   0.514   4.640  0.4189  0.5784  0.0179
   49MOL    C3927015   6.325   0.454   4.714  0.2371  0.8896 -0.1165
   49MOL    C4027016   6.092   0.539   4.749  0.3370 -0.0431 -0.0740
   49MOL    C4127017   5.960   0.596   4.696  0.1371 -0.3760  0.1656
   49MOL    H4227018   6.000   0.993   4.560  0.6242  0.3395  2.0127
   49MOL    H4327019   5.842   1.045   4.556 -0.3080  1.8104  2.5201
   49MOL    H4427020   5.794   0.765   4.637  1.0086 -0.3047  1.2650
   49MOL    H4527021   5.843   0.688   4.433 -2.7156 -0.2154 -0.1373
   49MOL    H4627022   6.053   0.789   4.692  1.1660 -0.1924 -0.7555
   49MOL    H4727023   6.056   0.653   4.427 -1.7342  1.1517 -0.6384
   49MOL    H4827024   6.121   0.803   4.479 -0.1454 -0.2751  0.9657
   49MOL    H4927025   6.297   0.699   4.620  0.2293  0.4971  0.3993
   49MOL    H5027026   6.323   0.671   4.386  0.0219 -0.9914 -0.4789
   49MOL    H5127027   6.159   0.439   4.573 -1.3291  2.8539 -1.4789
   49MOL    H5227028   6.413   0.438   4.651 -0.4573 -1.0705 -0.6413
   49MOL    H5327029   6.353   0.523   4.794 -0.2570  1.3332 -0.3260
   49MOL    H5427030   6.137   0.608   4.819  0.0411  1.0144 -0.9129
   49MOL    H5527031   6.075   0.452   4.812  0.4071  0.1361  0.1911
   49MOL    H5627032   5.895   0.618   4.781  2.0696  2.0941  1.0822
   49MOL    H5727033   5.915   0.518   4.635 -1.8540  1.5959 -0.9598
   49MOL    O5827034   6.290   0.332   4.779  0.8800  0.0580  0.1386
   49MOL    C5927035   6.363   0.310   4.894 -0.0067 -0.1624 -1.1386
   49MOL    C6027036   6.516   0.309   4.860  0.1130 -0.0315 -0.1115
   49MOL    O6127037   6.569   0.428   4.922 -0.3486  0.3825 -0.4840
   49MOL    C6227038   6.588   0.188   4.920 -0.2722  1.3484  0.0371
   49MOL    C6327039   6.746   0.197   4.915  0.5558  0.0056 -1.0771
   49MOL    C6427040   6.822   0.074   4.988  0.2704  0.2896 -0.6656
   49MOL    O6527041   6.965   0.096   4.979 -0.0099 -0.0971 -0.2650
   49MOL    C6627042   6.773   7.569   4.934 -0.4080  0.0545 -0.0028
   49MOL    C6727043   6.836   7.454   5.021 -0.1238 -0.4625 -0.4074
   49MOL    C6827044   6.620   7.567   4.931 -0.4362  0.9192 -0.3381
   49MOL    C6927045   6.560   0.054   4.859 -0.3150 -0.2021  0.7483
   49MOL    H7027046   6.340   0.211   4.933 -2.9909  1.5061  1.6706
   49MOL    H7127047   6.329   0.379   4.971  1.4025 -1.1455  0.3936
   49MOL    H7227048   6.537   0.301   4.753 -1.3132 -2.1966 -0.2705
   49MOL    H7327049   6.547   0.434   5.014 -0.7875  0.1125 -0.5671
   49MOL    H7427050   6.576   0.182   5.029  1.1297  1.4519  0.2039
   49MOL    H7527051   6.782   0.193   4.812  1.4100 -2.9474 -0.7050
   49MOL    H7627052   6.776   0.295   4.951 -1.7585  0.6823 -0.8650
   49MOL    H7727053   6.792   0.076   5.092  0.8328 -1.2770 -0.4599
   49MOL    H7827054   7.012   0.041   5.039  0.3652  0.2066 -0.2796
   49MOL    H7927055   6.815   7.573   4.833 -0.0002 -0.6984  0.1329
   49MOL    H8027056   6.942   7.460   4.998  0.3650  1.9029  2.1798
   49MOL    H8127057   6.830   7.475   5.128  0.5924 -1.0342 -0.2514
   49MOL    H8227058   6.589   7.569   5.036  3.2722  1.2692  0.8028
   49MOL    H8327059   6.575   7.476   4.892  1.8305  0.2277 -1.4154
   49MOL    H8427060   6.451   0.040   4.855 -0.4068  0.4178  1.0420
   49MOL    H8527061   6.591   0.056   4.755 -0.8910  1.1806  0.6014
   49MOL    O8627062   6.784   7.335   4.969 -0.2528  0.0126  0.5485
   49MOL    C8727063   6.752   7.245   5.069  0.5148 -0.4369  0.5857
   49MOL    C8827064   6.677   7.124   5.012  0.3771 -0.6120 -0.3954
   49MOL    O8927065   6.669   7.039   5.120  0.0752  0.4067  0.7808
   49MOL    C9027066   6.533   7.147   4.947  0.4039  0.8292 -0.1393
   49MOL    C9127067   6.430   7.214   5.036 -0.5416 -0.0020 -0.0056
   49MOL    C9227068   6.287   7.224   4.969  0.5394  0.3499  0.2771
   49MOL    O9327069   6.188   7.274   5.061  0.2207  0.4365 -0.5394
   49MOL    C9427070   6.241   7.086   4.912 -0.3502  0.3334  0.3747
   49MOL    C9527071   6.093   7.080   4.848 -0.6661 -0.4619 -0.1238
   49MOL    C9627072   6.346   7.031   4.809  0.0149 -0.7125  0.3929
   49MOL    C9727073   6.473   7.009   4.890  0.2431  0.0870  0.5988
   49MOL    H9827074   6.688   7.297   5.139  1.3943  1.5323 -0.0336
   49MOL    H9927075   6.845   7.213   5.116  1.4153  0.0487 -0.8227
   49MOL   H10027076   6.743   7.078   4.938  2.1132  1.9478 -0.5011
   49MOL   H10127077   6.667   6.948   5.094 -2.9609  0.5955  0.1889
   49MOL   H10227078   6.549   7.221   4.869  0.5311  0.9371 -0.0127
   49MOL   H10327079   6.413   7.142   5.116  0.4904 -2.8614 -2.2826
   49MOL   H10427080   6.470   7.304   5.084 -0.2147  0.2033 -0.6641
   49MOL   H10527081   6.285   7.295   4.885 -0.5078 -0.5113 -0.4357
   49MOL   H10627082   6.127   7.324   5.008 -0.0190  0.9017  0.1721
   49MOL   H10727083   6.235   7.023   5.000 -2.1166  0.0707  0.0772
   49MOL   H10827084   6.022   7.113   4.923  0.8877 -0.1618  1.2475
   49MOL   H10927085   6.090   7.147   4.762  1.8132 -1.0142 -0.6833
   49MOL   H11027086   6.367   7.103   4.731 -1.0044 -0.0795  0.6837
   49MOL   H11127087   6.311   6.939   4.761 -1.6786  0.4324 -0.5996
   49MOL   H11227088   6.541   6.955   4.825 -0.7015 -0.8304  0.3556
   49MOL   H11327089   6.453   6.946   4.977  0.1532 -0.9412 -0.1531
   49MOL   O11427090   6.085   6.952   4.794 -0.4166  0.3076  0.0533
   49MOL   C11527091   5.953   6.901   4.804  0.0898  0.2922  0.1218
   49MOL   C11627092   5.961   6.750   4.782  0.0422  0.3272  0.7032
   49MOL   O11727093   5.945   6.735   4.645 -0.0062  0.4457  0.0838
   49MOL   C11827094   6.093   6.679   4.831  0.0867  0.1871  0.4804
   49MOL   C11927095   6.100   6.535   4.806 -0.1979  0.5960 -0.0015
   49MOL   C12027096   6.241   6.476   4.818 -0.3552  1.3934 -0.2709
   49MOL   O12127097   6.239   6.335   4.784 -0.7280  0.3508  0.3761
   49MOL   C12227098   6.289   6.511   4.966 -0.2313  0.4186 -0.0466
   49MOL   C12327099   6.438   6.479   4.997 -0.2215  0.3441 -0.4544
   49MOL   C12427100   6.258   6.657   5.010 -0.5102  0.4228  0.4808
   49MOL   C12527101   6.123   6.716   4.978 -0.4725  0.2054  0.1103
   49MOL   H12627102   5.873   6.951   4.749  0.7652  3.5259  1.9942
   49MOL   H12727103   5.924   6.911   4.908  0.7370  0.6249  0.2733
   49MOL   H12827104   5.879   6.704   4.836 -0.4224  0.4546  0.1170
   49MOL   H12927105   5.944   6.644   4.619 -3.3209  1.0136 -2.1432
   49MOL   H13027106   6.174   6.725   4.774  0.9747 -1.2814  0.5412
   49MOL   H13127107   6.024   6.482   4.864 -2.3596  1.0820 -2.2695
   49MOL   H13227108   6.072   6.520   4.701  1.8661 -0.3017 -0.4466
   49MOL   H13327109   6.309   6.523   4.747  3.1488  0.5322  2.4082
   49MOL   H13427110   6.328   6.304   4.780 -1.5578 -1.8365 -4.7402
   49MOL   H13527111   6.223   6.461   5.036  1.2374 -1.8704 -0.2517
   49MOL   H13627112   6.498   6.516   4.914  2.1325 -2.1648  0.0760
   49MOL   H13727113   6.464   6.542   5.082  2.4027  0.9690 -1.6630
   49MOL   H13827114   6.343   6.712   4.968 -0.5716  0.4095  0.3370
   49MOL   H13927115   6.273   6.657   5.118 -5.1659  0.4889  1.2276
   49MOL   H14027116   6.119   6.823   4.997  1.1325  0.4317 -0.7836
   49MOL   H14127117   6.047   6.677   5.046 -0.0320 -1.6082 -0.3890
   49MOL   O14227118   6.453   6.332   5.015 -0.2160  0.1280 -0.3028
   49MOL   C14327119   6.427   6.284   5.145  0.2666  0.6179  0.5448
   49MOL   C14427120   6.412   6.129   5.143 -0.0400 -0.1311 -0.8168
   49MOL   O14527121   6.282   6.090   5.106 -0.0100 -0.0164  0.4379
   49MOL   C14627122   6.527   6.053   5.069 -0.0719  0.0529  0.1261
   49MOL   C14727123   6.522   6.064   4.916 -0.2715  0.3228 -0.4013
   49MOL   C14827124   6.635   6.002   4.842 -0.1643  0.1474  0.4256
   49MOL   O14927125   6.605   6.003   4.705  0.1706  0.9592 -0.1959
   49MOL   C15027126   6.675   5.859   4.892 -0.4605 -0.0891 -0.1793
   49MOL   C15127127   6.818   5.808   4.841 -0.0585 -0.2902  0.3419
   49MOL   C15227128   6.662   5.844   5.044 -0.0007  0.3148 -0.3029
   49MOL   C15327129   6.539   5.901   5.106  0.1345 -0.0633 -0.2849
   49MOL   H15427130   6.352   6.338   5.203  0.4475  0.4538  0.9406
   49MOL   H15527131   6.515   6.301   5.207  0.7286 -0.6021  0.2492
   49MOL   H15627132   6.411   6.099   5.248  2.1310  0.4379 -0.6182
   49MOL   H15727133   6.236   6.168   5.077  0.6780 -0.0538 -0.7801
   49MOL   H15827134   6.624   6.092   5.099  1.0276 -0.8746 -2.1242
   49MOL   H15927135   6.430   6.023   4.875 -1.2443 -0.0185  2.0297
   49MOL   H16027136   6.509   6.165   4.876 -2.3388 -0.5682 -2.0540
   49MOL   H16127137   6.722   6.067   4.856  1.1318 -1.5863  0.5314
   49MOL   H16227138   6.686   5.986   4.659  0.9861  2.6649  0.6010
   49MOL   H16327139   6.600   5.788   4.855 -1.0475  0.9752 -1.0564
   49MOL   H16427140   6.824   5.827   4.734 -4.7476 -0.8081 -0.0918
   49MOL   H16527141   6.899   5.870   4.879 -2.4397  1.6550  2.4089
   49MOL   H16627142   6.735   5.892   5.109 -0.7949  0.5668  0.4136
   49MOL   H16727143   6.653   5.737   5.067  0.8586  0.8112  2.5202
   49MOL   H16827144   6.537   5.882   5.213 -1.3759  1.7724  0.0345
   49MOL   H16927145   6.452   5.843   5.075 -0.1964  0.8009 -1.0199
   49MOL   O17027146   6.838   5.664   4.863  0.2872 -0.5670 -0.1689
   49MOL   C17127147   6.973   5.625   4.839 -0.2630  0.3347 -0.2868
   49MOL   C17227148   6.993   5.485   4.917  0.2688 -0.2994  0.7983
   49MOL   O17327149   6.902   5.400   4.850 -0.3949 -0.4496 -0.1279
   49MOL   C17427150   7.140   5.429   4.897 -0.0562 -0.2862  0.0653
   49MOL   C17527151   7.142   5.285   4.973 -0.3707 -0.8441 -0.1405
   49MOL   C17627152   7.276   5.206   4.946  0.2204  0.2852  0.2261
   49MOL   O17727153   7.254   5.085   5.020 -0.4421 -0.7178  0.0288
   49MOL   C17827154   7.395   5.283   4.993 -0.2569 -0.0904 -0.2992
   49MOL   C17927155   7.526   5.203   4.954  0.4077 -0.3246 -0.4829
   49MOL   C18027156   7.391   5.427   4.940 -0.3553 -0.4309 -0.6754
   49MOL   C18127157   7.262   5.504   4.958 -0.4455  0.0045 -1.4765
   49MOL   H18227158   7.043   5.696   4.884  1.0433 -0.6973 -0.6666
   49MOL   H18327159   6.998   5.614   4.734 -2.4164 -0.1561 -0.7695
   49MOL   H18427160   6.959   5.477   5.020 -1.4879 -1.6455  0.1388
   49MOL   H18527161   6.825   5.454   4.836  0.2099 -0.0926 -2.2861
   49MOL   H18627162   7.155   5.413   4.790 -0.2074  0.4098 -0.0661
   49MOL   H18727163   7.122   5.304   5.079 -1.8332  0.2763 -0.5963
   49MOL   H18827164   7.055   5.225   4.945 -2.2992  0.5807  2.5142
   49MOL   H18927165   7.289   5.186   4.839  0.6438  1.5227  0.0487
   49MOL   H19027166   7.164   5.057   5.030 -0.6209  0.0147  0.5819
   49MOL   H19127167   7.381   5.295   5.101  1.3410  1.9031 -0.2825
   49MOL   H19227168   7.509   5.095   4.950 -0.3878 -0.1800 -1.1670
   49MOL   H19327169   7.555   5.233   4.853 -0.6324 -0.2485 -0.7644
   49MOL   H19427170   7.408   5.428   4.833  1.3046  1.6188 -0.4247
   49MOL   H19527171   7.479   5.487   4.965 -2.8223  2.9541  0.3303
   49MOL   H19627172   7.273   5.607   4.922 -0.7407 -0.1618 -2.0423
   49MOL   H19727173   7.261   5.516   5.066  0.9793 -1.5440 -1.2785
   49MOL   O19827174   0.010   5.241   5.030  0.6300 -0.7026  0.4489
   49MOL   C19927175   0.057   5.155   5.132  0.4455 -0.0373  0.0952
   49MOL   C20027176   0.151   5.046   5.063 -0.1606  0.1345  0.1819
   49MOL   O20127177   0.270   5.124   5.032  0.4120  0.4264  0.8035
   49MOL   C20227178   0.183   4.929   5.148  0.6428 -0.5398  0.0543
   49MOL   C20327179   0.257   4.960   5.281 -0.4486  0.0561 -0.4012
   49MOL   C20427180   0.272   4.827   5.359 -0.0815  0.0490 -0.7687
   49MOL   O20527181   0.330   4.861   5.484 -0.0620 -0.1037  0.0309
   49MOL   C20627182   0.350   4.723   5.284  0.0842  0.1581  0.2897
   49MOL   C20727183   0.357   4.594   5.369 -0.4863  0.8927  0.2480
   49MOL   C20827184   0.278   4.693   5.151  0.0857 -0.1862 -0.4856
   49MOL   C20927185   0.259   4.820   5.068  0.2763  0.7206  0.2721
   49MOL   H21027186   7.602   5.123   5.193  0.1331 -1.7257 -1.1860
   49MOL   H21127187   0.126   5.206   5.199  2.1509 -1.2789 -0.6445
   49MOL   H21227188   0.107   5.009   4.970 -2.0757  0.7193  0.8251
   49MOL   H21327189   0.317   5.078   4.965 -2.3640 -2.0711  0.4516
   49MOL   H21427190   0.083   4.895   5.175  0.0143  0.2379 -1.2743
   49MOL   H21527191   0.349   5.015   5.263 -2.2758  3.7820  1.1299
   49MOL   H21627192   0.201   5.030   5.344 -1.9624 -0.7735 -0.7901
   49MOL   H21727193   0.177   4.784   5.388 -0.2320 -0.4589 -2.0001
   49MOL   H21827194   0.281   4.934   5.519  0.6559 -0.0685  0.9593
   49MOL   H21927195   0.454   4.753   5.269 -0.4947  2.1414  0.0540
   49MOL   H22027196   0.264   4.560   5.415 -1.0304  2.3795  0.2908
   49MOL   H22127197   0.386   4.511   5.305 -0.4082  1.3171 -0.2684
   49MOL   H22227198   0.178   4.659   5.180 -0.9086  1.0106 -2.4028
   49MOL   H22327199   0.317   4.604   5.100  0.8962  0.6869 -1.4029
   49MOL   H22427200   0.192   4.790   4.987 -0.5723 -0.4530  1.3667
   49MOL   H22527201   0.351   4.843   5.014  0.9817 -0.2502  1.0329
   49MOL   O22627202   0.450   4.615   5.479 -0.5203 -0.0271 -0.2433
   49MOL   C22727203   0.471   4.498   5.557  0.4009 -0.0322 -0.0027
   49MOL   C22827204   0.540   4.545   5.683  0.2356  0.2182 -0.2390
   49MOL   O22927205   0.670   4.594   5.655 -0.4591 -0.0984 -0.3470
   49MOL   C23027206   0.453   4.648   5.774  0.4610 -0.0336  0.9595
   49MOL   C23127207   0.527   4.692   5.907  0.1281 -0.6194  0.0298
   49MOL   C23227208   0.453   4.781   6.012 -0.7960 -0.0195  0.2411
   49MOL   O23327209   0.523   4.794   6.132  0.1339  0.2287  0.3101
   49MOL   C23427210   0.311   4.730   6.037 -0.1864 -0.3785 -0.3763
   49MOL   C23527211   0.226   4.817   6.134 -0.4211 -0.1411 -0.4109
   49MOL   C23627212   0.235   4.697   5.907 -0.2520  0.0366 -0.1533
   49MOL   C23727213   0.311   4.593   5.823  0.5635 -0.4420 -0.3659
   49MOL   H23827214   0.528   4.426   5.499  0.6974 -0.7884  1.2147
   49MOL   H23927215   0.371   4.460   5.575  0.7430 -1.3189 -0.7846
   49MOL   H24027216   0.546   4.454   5.743  0.2377 -0.5479 -1.3959
   49MOL   H24127217   0.661   4.684   5.630  1.2123 -0.1330 -1.1925
   49MOL   H24227218   0.439   4.734   5.708  2.0888  0.0223  0.6632
   49MOL   H24327219   0.557   4.600   5.957 -1.8847 -1.4031 -0.1549
   49MOL   H24427220   0.620   4.745   5.888  0.4466 -0.2576  2.4978
   49MOL   H24527221   0.427   4.882   5.979  0.3417 -0.7901 -3.2070
   49MOL   H24627222   0.604   4.832   6.101 -0.4856 -1.3968 -3.5655
   49MOL   H24727223   0.330   4.634   6.085 -0.4343 -1.0119 -1.5141
   49MOL   H24827224   0.261   4.816   6.237 -2.8898  4.1466  0.6002
   49MOL   H24927225   0.232   4.924   6.115 -2.3954 -0.2641 -1.9335
   49MOL   H25027226   0.228   4.791   5.852  0.1971 -0.2503 -0.7065
   49MOL   H25127227   0.137   4.660   5.936 -0.2163 -1.3270 -1.7171
   49MOL   H25227228   0.248   4.560   5.741 -1.7932  2.0506  0.3571
   49MOL   H25327229   0.320   4.505   5.887  0.0082  1.3004  2.1998
   49MOL   O25427230   0.092   4.775   6.136  0.4973  0.3975 -0.1782
   49MOL   C25527231   0.003   4.829   6.231  0.5751 -0.1131  0.5534
   49MOL   C25627232   7.487   4.778   6.210  0.0704  0.0599 -0.4428
   49MOL   O25727233   7.481   4.641   6.242 -0.5739 -0.1703 -0.3207
   49MOL   C25827234   7.386   4.866   6.289 -0.4733 -0.5351 -0.6534
   49MOL   C25927235   7.383   4.832   6.442  0.2264  0.0807 -1.0498
   49MOL   C26027236   7.303   4.939   6.525 -0.1863 -0.2383  0.1166
   49MOL   O26127237   7.311   4.907   6.666  0.1462 -0.3075  0.4142
   49MOL   C26227238   7.154   4.939   6.470  0.5507 -0.9206  0.7745
   49MOL   C26327239   7.077   5.062   6.538  0.6231  0.1461 -0.6641
   49MOL   C26427240   7.147   4.941   6.316  0.0477 -0.8103  0.5572
   49MOL   C26527241   7.245   4.844   6.245  0.7882  0.0355 -0.0240
   49MOL   H26627242   0.009   4.937   6.217 -2.4226  0.1625  0.8999
   49MOL   H26727243   0.028   4.813   6.335 -1.1979 -1.5598  0.7916
   49MOL   H26827244   7.461   4.790   6.104  0.8682  1.1214 -0.5350
   49MOL   H26927245   7.572   4.616   6.249 -0.7511 -0.3011  1.6063
   49MOL   H27027246   7.406   4.971   6.266  2.0208 -0.4997  1.4300
   49MOL   H27127247   7.333   4.740   6.471 -0.1303  0.8001  0.6321
   49MOL   H27227248   7.483   4.826   6.484 -0.8338  0.6328  1.6401
   49MOL   H27327249   7.345   5.040   6.514 -1.0343  0.3838  2.4649
   49MOL   H27427250   7.255   4.967   6.713 -0.4696  0.1032 -0.8148
   49MOL   H27527251   7.102   4.853   6.511 -1.4648 -0.1198 -0.0446
   49MOL   H27627252   7.056   5.042   6.643 -1.1728  1.5724 -0.7174
   49MOL   H27727253   7.137   5.153   6.531 -1.7817  1.6912 -2.0731
   49MOL   H27827254   7.169   5.040   6.276  0.2839 -0.5971  1.2152
   49MOL   H27927255   7.045   4.916   6.286  0.5558 -0.0829 -1.9078
   49MOL   H28027256   7.239   4.840   6.137 -0.5346 -2.7782  0.0964
   49MOL   H28127257   7.226   4.740   6.273 -1.0430  0.2095 -0.5983
   49MOL   O28227258   6.946   5.102   6.490  0.4280  0.0596 -0.0962
   49MOL   C28327259   6.891   5.215   6.567 -0.2408 -0.6325 -0.1897
   49MOL   C28427260   6.779   5.278   6.483 -0.6644 -0.4128 -1.5979
   49MOL   O28527261   6.683   5.180   6.443 -0.1437 -0.3903  0.1097
   49MOL   C28627262   6.708   5.402   6.559 -0.2139  0.0760  0.1227
   49MOL   C28727263   6.633   5.357   6.686 -0.1962  0.0739  0.3855
   49MOL   C28827264   6.592   5.476   6.778  0.2589 -0.3679  0.0609
   49MOL   O28927265   6.532   5.415   6.896  0.0179  0.3972 -0.0877
   49MOL   C29027266   6.491   5.566   6.707 -0.7578  0.2863 -0.1400
   49MOL   C29127267   6.449   5.686   6.780  0.5918  0.6400 -0.3399
   49MOL   C29227268   6.537   5.601   6.561 -0.0207  0.6341 -0.9479
   49MOL   C29327269   6.608   5.492   6.475 -0.3059 -0.2241 -0.4608
   49MOL   H29427270   6.966   5.293   6.585 -0.9403 -0.3694  1.6591
   49MOL   H29527271   6.855   5.183   6.664 -1.6735 -0.1412 -0.5573
   49MOL   H29627272   6.821   5.314   6.389  2.4582  2.1757  0.6466
   49MOL   H29727273   6.707   5.099   6.484  2.7468  0.3709  0.0748
   49MOL   H29827274   6.782   5.473   6.594  0.1833 -0.6351  0.7425
   49MOL   H29927275   6.544   5.308   6.647 -0.3453  1.8870 -1.6916
   49MOL   H30027276   6.698   5.300   6.753 -0.5825  0.7962  1.3896
   49MOL   H30127277   6.682   5.531   6.807 -0.6657  1.1252  0.1429
   49MOL   H30227278   6.527   5.483   6.961  2.7936  1.1781 -0.6090
   49MOL   H30327279   6.395   5.519   6.685 -0.5433  0.9562 -2.7314
   49MOL   H30427280   6.414   5.662   6.880  0.9488  2.8207  0.3290
   49MOL   H30527281   6.532   5.754   6.794  1.1194 -0.0443 -0.1034
   49MOL   H30627282   6.604   5.685   6.577  0.3579  0.1693 -0.0672
   49MOL   H30727283   6.453   5.639   6.503 -1.2128 -2.9388 -1.6800
   49MOL   H30827284   6.654   5.526   6.382 -0.8843 -0.3539 -0.7992
   49MOL   H30927285   6.526   5.439   6.426  1.0304 -1.5968 -1.2861
   49MOL   O31027286   6.347   5.767   6.713 -0.0460  0.2167 -0.1926
   49MOL   C31127287   6.329   5.897   6.764  0.8088  0.5332 -0.1295
   49MOL   C31227288   6.237   5.897   6.892  0.5328  0.2078 -0.0140
   49MOL   O31327289   6.260   6.013   6.966  0.0324  0.1042  0.0294
   49MOL   C31427290   6.084   5.877   6.871  0.3021  0.8041  0.0838
   49MOL   C31527291   6.006   5.875   7.005 -0.4323  0.2483  0.1230
   49MOL   C31627292   5.856   5.835   6.991  0.7847  0.4773  0.3024
   49MOL   O31727293   5.810   5.833   7.119  0.3680 -0.0395 -0.2617
   49MOL   C31827294   5.828   5.710   6.904 -0.4742 -0.1111 -0.3883
   49MOL   C31927295   5.683   5.667   6.885 -0.0092 -0.0051  0.5782
   49MOL   C32027296   5.906   5.730   6.776  0.6943  0.6983 -0.3986
   49MOL   C32127297   6.058   5.745   6.793 -0.2082 -0.2929 -0.5124
   49MOL   H32227298   6.277   5.947   6.682 -2.0424  0.5621  1.6227
   49MOL   H32327299   6.426   5.940   6.788  0.7746 -0.1555  1.2842
   49MOL   H32427300   6.283   5.827   6.962 -0.6543  1.4169  2.0128
   49MOL   H32527301   6.351   6.018   6.991 -0.3900  1.5097  1.3387
   49MOL   H32627302   6.045   5.960   6.811 -0.2027 -0.1209 -0.9001
   49MOL   H32727303   6.053   5.802   7.071 -2.3953 -0.7180  0.4994
   49MOL   H32827304   6.019   5.973   7.049 -0.5593 -0.6456  2.1836
   49MOL   H32927305   5.816   5.927   6.948  0.9493  0.2397 -0.3641
   49MOL   H33027306   5.823   5.919   7.155 -0.4747  0.2888 -0.7271
   49MOL   H33127307   5.864   5.625   6.962 -1.3059 -1.0905 -1.2931
   49MOL   H33227308   5.644   5.633   6.981  0.9741 -1.6988  0.3907
   49MOL   H33327309   5.630   5.760   6.860  2.8645  0.9157 -2.4982
   49MOL   H33427310   5.864   5.801   6.704 -3.5207 -1.0155  0.2291
   49MOL   H33527311   5.895   5.637   6.719 -0.8258  1.1879 -0.9240
   49MOL   H33627312   6.102   5.756   6.694  3.7049 -1.7165  0.9665
   49MOL   H33727313   6.111   5.665   6.845 -2.3900 -0.8198  0.9788
   49MOL   O33827314   5.675   5.566   6.781  0.5409  0.1396 -0.3903
   49MOL   C33927315   5.540   5.517   6.753  0.7268 -0.7881  0.1196
   49MOL   C34027316   5.518   5.404   6.854  0.8679  0.0361  0.6284
   49MOL   O34127317   5.383   5.391   6.873 -0.0192 -0.2422  0.0550
   49MOL   C34227318   5.588   5.267   6.819  0.3512 -0.1891 -0.5458
   49MOL   C34327319   5.568   5.171   6.933 -0.0291  0.6549 -0.0400
   49MOL   C34427320   5.649   5.037   6.934 -0.3337 -0.2650  0.0119
   49MOL   O34527321   5.630   4.988   7.062  0.3295  0.4196  0.3093
   49MOL   C34627322   5.805   5.074   6.919  1.3729 -0.0869 -0.3691
   49MOL   C34727323   5.897   4.946   6.917 -0.5062  0.3498  0.4384
   49MOL   C34827324   5.816   5.161   6.787 -0.4357  0.2167  0.1785
   49MOL   C34927325   5.733   5.289   6.790 -0.5796 -0.4474 -0.7385
   49MOL   H35027326   5.527   5.482   6.650  0.4526 -2.9194  0.8712
   49MOL   H35127327   5.471   5.599   6.775 -1.0383 -2.7561  2.0483
   49MOL   H35227328   5.554   5.450   6.946  1.7288 -0.3840  0.5100
   49MOL   H35327329   5.352   5.364   6.788 -0.1875 -0.4398  0.1770
   49MOL   H35427330   5.548   5.228   6.725 -0.4227 -0.7332  0.0132
   49MOL   H35527331   5.602   5.211   7.028  1.3149 -0.9174  0.1853
   49MOL   H35627332   5.464   5.142   6.949 -0.3296  2.5651  1.5250
   49MOL   H35727333   5.625   4.961   6.860  0.2867 -1.3946  0.9510
   49MOL   H35827334   5.615   5.060   7.122  1.0553  1.0729 -0.2816
   49MOL   H35927335   5.829   5.120   7.014  0.5064  0.3981 -0.3829
   49MOL   H36027336   5.888   4.879   7.003 -0.3898  0.1891  0.3255
   49MOL   H36127337   5.857   4.891   6.832 -1.2788  0.5840  0.6440
   49MOL   H36227338   5.806   5.105   6.694  0.0879 -0.0235  0.2676
   49MOL   H36327339   5.919   5.196   6.784 -0.4559  0.2088 -0.7838
   49MOL   H36427340   5.738   5.348   6.699  0.2842 -2.1694 -1.8165
   49MOL   H36527341   5.771   5.351   6.872 -0.4936 -2.6618  0.9323
   49MOL   O36627342   6.026   5.008   6.912 -0.0766 -0.1113  0.3548
   49MOL   C36727343   6.134   4.920   6.906 -1.0983 -0.1885 -0.4204
   49MOL   C36827344   6.252   4.994   6.844 -0.0523  0.3856 -0.2564
   49MOL   O36927345   6.376   4.932   6.868  0.6135 -0.4983  0.8006
   49MOL   C37027346   6.234   5.022   6.691  0.2406 -0.0699 -0.0979
   49MOL   C37127347   6.257   4.900   6.595 -0.4141 -0.1677 -0.0276
   49MOL   C37227348   6.248   4.944   6.447  0.6364 -0.0817 -0.2302
   49MOL   O37327349   6.272   4.827   6.363  0.3563  0.4025 -0.0733
   49MOL   C37427350   6.353   5.055   6.407  0.4612 -0.1013  0.3382
   49MOL   C37527351   6.331   5.083   6.257 -0.4369 -0.7162  0.4343
   49MOL   C37627352   6.308   5.179   6.496  0.0148 -0.1527  0.4756
   49MOL   C37727353   6.325   5.139   6.645 -0.1376 -0.2789  0.0995
   49MOL   H37827354   6.105   4.831   6.850 -1.2217 -0.0465 -0.5843
   49MOL   H37927355   6.158   4.888   7.008 -1.7387  0.9329  0.1043
   49MOL   H38027356   6.258   5.091   6.893 -0.2262  1.1951 -1.8118
   49MOL   H38127357   6.380   4.913   6.960 -0.4344  1.3510  1.2378
   49MOL   H38227358   6.137   5.072   6.684 -0.5577 -1.5372  0.3779
   49MOL   H38327359   6.358   4.860   6.606 -0.3342  0.0346 -0.0254
   49MOL   H38427360   6.177   4.827   6.611 -0.3283 -0.2337  0.1059
   49MOL   H38527361   6.147   4.979   6.429 -0.3110 -3.7572 -2.9285
   49MOL   H38627362   6.345   4.780   6.400  0.6919  0.8038 -0.2130
   49MOL   H38727363   6.454   5.027   6.434  0.7451 -1.5497 -2.0813
   49MOL   H38827364   6.377   5.002   6.201 -1.7521 -0.5284 -0.9897
   49MOL   H38927365   6.222   5.088   6.244 -0.6254 -1.6540  1.5592
   49MOL   H39027366   6.204   5.205   6.476  0.2791 -0.4685 -1.4763
   49MOL   H39127367   6.372   5.266   6.479  0.1357 -0.2737  0.2965
   49MOL   H39227368   6.292   5.221   6.709  2.2059  0.2465  0.6846
   49MOL   H39327369   6.428   5.113   6.670  0.3002  0.0913 -1.2521
   49MOL   O39427370   6.405   5.208   6.232  0.3227  0.0071 -0.0548
   49MOL   C39527371   6.381   5.257   6.103 -0.2257 -0.4415 -0.8254
   49MOL   C39627372   6.445   5.396   6.116  0.5534 -0.2408  0.5579
   49MOL   O39727373   6.575   5.381   6.171  0.4378 -0.2448 -0.3501
   49MOL   C39827374   6.453   5.469   5.979 -0.0675 -0.1247 -0.2566
   49MOL   C39927375   6.472   5.622   6.007  0.1000 -0.8757 -0.2998
   49MOL   C40027376   6.473   5.703   5.882  0.6169 -0.0506  0.0286
   49MOL   O40127377   6.463   5.841   5.920  0.5249  0.3345  0.2979
   49MOL   C40227378   6.349   5.678   5.787  0.7352  0.0817  0.0213
   49MOL   C40327379   6.350   5.761   5.653 -0.2279 -0.1806  0.6741
   49MOL   C40427380   6.328   5.531   5.755 -0.1444  0.0029  0.3933
   49MOL   C40527381   6.329   5.444   5.886 -0.3235 -0.3640  0.1473
   49MOL   H40627382   6.277   5.251   6.069 -0.5486 -0.8522  0.2423
   49MOL   H40727383   6.432   5.202   6.024 -0.8739 -0.8153 -0.9877
   49MOL   H40827384   6.392   5.456   6.191  0.7240 -2.0593  2.1809
   49MOL   H40927385   6.562   5.317   6.239 -0.9637  0.0649 -0.3052
   49MOL   H41027386   6.544   5.434   5.930 -0.3463 -0.3979 -0.5840
   49MOL   H41127387   6.391   5.655   6.072  0.6125  0.8354 -0.5114
   49MOL   H41227388   6.563   5.643   6.064 -0.5125  0.1774  0.3017
   49MOL   H41327389   6.567   5.691   5.828  0.5197 -0.8194  0.0205
   49MOL   H41427390   6.461   5.894   5.842 -1.5492  0.8021  0.6109
   49MOL   H41527391   6.258   5.701   5.842  0.0655 -0.9954 -0.6253
   49MOL   H41627392   6.433   5.715   5.601  0.9094 -1.0516  3.1797
   49MOL   H41727393   6.262   5.751   5.589 -1.6487  2.7760  2.0679
   49MOL   H41827394   6.408   5.495   5.689 -1.1699  0.2939 -1.0397
   49MOL   H41927395   6.236   5.506   5.702 -0.3535  0.6091  0.4637
   49MOL   H42027396   6.312   5.339   5.861 -1.7638  0.3832 -2.2322
   49MOL   H42127397   6.243   5.471   5.947 -0.8047  0.2197 -0.7687
   49MOL   O42227398   6.371   5.900   5.674  0.4746 -0.1500 -0.0306
   49MOL   C42327399   6.380   5.978   5.555 -0.3709 -0.0278  0.3499
   49MOL   C42427400   6.403   6.129   5.598  0.3510  1.1453  0.6761
   49MOL   O42527401   6.297   6.170   5.675 -0.6588  0.3161  0.3032
   49MOL   C42627402   6.537   6.148   5.681  0.3430  0.0418 -0.3348
   49MOL   C42727403   6.540   6.250   5.797  0.7490  0.0611  0.4645
   49MOL   C42827404   6.669   6.241   5.881 -0.2894 -0.4792  1.0258
   49MOL   O42927405   6.662   6.337   5.991  0.0254 -0.1504  0.2252
   49MOL   C43027406   6.781   6.290   5.788  0.4628  0.5901 -0.2954
   49MOL   C43127407   6.923   6.293   5.849  0.1190  0.0049 -0.0347
   49MOL   C43227408   6.787   6.191   5.663 -0.5195  0.8456  0.1512
   49MOL   C43327409   6.649   6.187   5.590  0.3282 -0.9845 -0.5316
   49MOL   H43427410   6.291   5.960   5.494  0.5442 -1.1213 -0.6807
   49MOL   H43527411   6.468   5.940   5.504  0.1187  0.1629  1.0418
   49MOL   H43627412   6.400   6.195   5.512  1.1327 -1.1023 -1.1236
   49MOL   H43727413   6.298   6.118   5.754 -0.8783 -0.3373 -0.1213
   49MOL   H43827414   6.565   6.051   5.723 -2.5016  0.0154  1.6480
   49MOL   H43927415   6.527   6.343   5.742 -5.0326  1.1149  3.2351
   49MOL   H44027416   6.450   6.250   5.860 -1.3886  2.2926 -2.4814
   49MOL   H44127417   6.689   6.144   5.926  0.6497 -0.3724  0.8459
   49MOL   H44227418   6.616   6.293   6.062  1.1451  1.3039  1.9108
   49MOL   H44327419   6.774   6.392   5.751  1.0307 -0.1187 -2.4062
   49MOL   H44427420   6.914   6.359   5.935  1.5045 -1.2153  1.0701
   49MOL   H44527421   6.939   6.194   5.891  0.0737  0.4804  1.1070
   49MOL   H44627422   6.812   6.089   5.693  1.8380  1.0514 -1.0202
   49MOL   H44727423   6.863   6.208   5.587 -0.9345  1.3972 -0.1488
   49MOL   H44827424   6.663   6.108   5.516  2.7107 -0.6010 -0.5265
   49MOL   H44927425   6.639   6.281   5.536  1.8106 -1.4326 -1.6221
   49MOL   O45027426   7.018   6.352   5.760 -0.4427 -0.9012 -0.6392
   49MOL   C45127427   7.146   6.366   5.821 -0.3775  0.2282  0.3580
   49MOL   C45227428   7.233   6.433   5.718 -0.5109 -0.2979  0.1309
   49MOL   O45327429   7.167   6.551   5.693  0.3574 -0.3611 -0.4106
   49MOL   C45427430   7.383   6.455   5.747  0.5138  0.5813 -0.1940
   49MOL   C45527431   7.448   6.328   5.796 -0.0881  0.3047  0.0638
   49MOL   C45627432   7.603   6.329   5.807 -0.4081  0.1065  0.5336
   49MOL   O45727433   0.012   6.204   5.869  0.5194  0.2807 -0.3362
   49MOL   C45827434   0.020   6.451   5.893  0.1168  0.0923  0.1144
   49MOL   C45927435   0.174   6.476   5.897  0.0721 -0.0106  0.2110
   49MOL   C46027436   7.580   6.585   5.848  0.0601  0.1382 -0.2895
   49MOL   C46127437   7.426   6.579   5.829  0.3138 -0.0843  0.6455
   49MOL   H46227438   7.185   6.268   5.848 -0.3894  0.3266  0.7295
   49MOL   H46327439   7.143   6.424   5.914 -0.4380  0.5074  0.1833
   49MOL   H46427440   7.227   6.391   5.618  1.4181  1.5528 -0.8122
   49MOL   H46527441   7.080   6.539   5.728  1.4874  0.4633  2.8778
   49MOL   H46627442   7.421   6.480   5.648  0.2596 -1.0556 -0.7223
   49MOL   H46727443   7.412   6.300   5.895  1.6978  0.6029  0.8202
   49MOL   H46827444   7.424   6.240   5.735 -1.4189  1.4567 -1.1249
   49MOL   H46927445   0.010   6.342   5.705  1.5514  0.3581  1.2419
   49MOL   H47027446   0.106   6.201   5.875  0.5589  1.0240 -0.5970
   49MOL   H47127447   7.627   6.434   5.998  1.0680 -1.3096  0.1032
   49MOL   H47227448   0.195   6.564   5.956  2.5543  0.3562 -1.1114
   49MOL   H47327449   0.220   6.387   5.940  0.8643 -0.5537 -1.6713
   49MOL   H47427450   7.621   6.623   5.755  2.1630 -2.6551 -0.5912
   49MOL   H47527451   7.601   6.673   5.909  0.5709 -0.1855  0.0125
   49MOL   H47627452   7.400   6.672   5.778  0.4061 -0.4520 -0.0715
   49MOL   H47727453   7.379   6.578   5.928  0.2233  2.5843  0.6735
   49MOL   O47827454   0.230   6.519   5.766 -0.7569  0.6083  0.3937
   49MOL   C47927455   0.370   6.509   5.755  0.1923 -0.7133  0.0028
   49MOL   C48027456   0.412   6.610   5.647 -0.0952 -0.2314  0.3619
   49MOL   O48127457   0.551   6.642   5.668 -0.1688  0.1066 -0.6204
   49MOL   C48227458   0.391   6.563   5.503 -0.0321  0.2238  0.1299
   49MOL   C48327459   0.487   6.462   5.443 -0.3451 -0.7519 -0.2214
   49MOL   C48427460   0.438   6.417   5.297 -0.0810  0.1361  0.1632
   49MOL   O48527461   0.548   6.343   5.239 -0.0184  0.9660  0.0595
   49MOL   C48627462   0.403   6.527   5.203 -0.5147 -0.3994  0.4281
   49MOL   C48727463   0.328   6.476   5.077  0.0305 -0.1737  0.3779
   49MOL   C48827464   0.328   6.649   5.273  0.2232 -0.3502 -0.5448
   49MOL   C48927465   0.384   6.688   5.408 -0.4726 -0.2559 -0.7113
   49MOL   H49027466   0.395   6.411   5.716 -0.9269 -0.5336 -1.2173
   49MOL   H49127467   0.416   6.550   5.845 -0.0782  0.5393 -0.4114
   49MOL   H49227468   0.359   6.702   5.672  0.4957 -0.1964  1.5386
   49MOL   H49327469   0.574   6.706   5.602  0.2747 -1.6595 -2.2355
   49MOL   H49427470   0.294   6.513   5.506 -0.6545  1.4606  0.8699
   49MOL   H49527471   0.589   6.501   5.442 -0.5822 -0.1293 -0.5856
   49MOL   H49627472   0.501   6.368   5.495  1.6096  0.0006  0.6655
   49MOL   H49727473   0.355   6.346   5.300  0.2895 -0.4051 -1.7757
   49MOL   H49827474   0.597   6.391   5.174 -0.4973 -0.1731 -1.1640
   49MOL   H49927475   0.489   6.577   5.158 -1.0707  1.2828  1.2105
   49MOL   H50027476   0.382   6.396   5.025 -0.2219 -0.4069  0.4719
   49MOL   H50127477   0.234   6.430   5.109 -0.3410  0.2569 -0.0952
   49MOL   H50227478   0.224   6.624   5.296  0.3105  0.1474  0.3903
   49MOL   H50327479   0.330   6.740   5.212  0.9021  1.0778  1.5752
   49MOL   H50427480   0.333   6.775   5.448  0.1671 -2.0639  4.4324
   49MOL   H50527481   0.482   6.726   5.382 -1.0781  1.2775 -0.7911
   49MOL   O50627482   0.303   6.596   4.997  0.1198  0.1504 -0.6171
   49MOL   C50727483   0.246   6.585   4.863 -0.9077 -0.4139  0.3879
   49MOL   C50827484   0.110   6.514   4.862  0.1755  0.5092 -0.6472
   49MOL   O50927485   0.026   6.606   4.926 -0.3594  0.2238 -0.2247
   49MOL   C51027486   0.043   6.496   4.721  0.2442  0.2062 -0.5491
   49MOL   C51127487   7.522   6.456   4.727 -0.3517 -0.6151  0.3219
   49MOL   C51227488   7.447   6.455   4.590  0.0922  0.8625  0.0083
   49MOL   O51327489   7.315   6.407   4.611  0.3447  0.9265 -0.2155
   49MOL   C51427490   7.526   6.366   4.486  0.2699  0.5439  0.2005
   49MOL   C51527491   7.464   6.386   4.350 -0.0234 -0.5160  0.5349
   49MOL   C51627492   0.050   6.390   4.485  0.1983  0.2655  0.1994
   49MOL   C51727493   0.118   6.400   4.622  0.2371 -0.4229 -0.8444
   49MOL   H51827494   0.309   6.532   4.792 -0.9284 -0.4104  0.3676
   49MOL   H51927495   0.232   6.688   4.830 -0.3188 -0.5036 -0.1556
   49MOL   H52027496   0.115   6.420   4.916  0.8296  1.0629  0.2660
   49MOL   H52127497   0.070   6.630   5.006 -3.2795  2.1655  0.9341
   49MOL   H52227498   0.043   6.598   4.681  0.3795  0.4721  0.1273
   49MOL   H52327499   7.502   6.357   4.768  0.4568 -1.0150 -0.2423
   49MOL   H52427500   7.475   6.524   4.797  1.1948 -1.9245  2.6947
   49MOL   H52527501   7.452   6.556   4.548  1.5107  0.9376  0.3205
   49MOL   H52627502   7.277   6.471   4.669 -0.2510 -0.8400  1.3958
   49MOL   H52727503   7.503   6.265   4.523 -0.2642  0.9084  0.8832
   49MOL   H52827504   7.524   6.329   4.279 -0.0229 -0.5226  0.5412
   49MOL   H52927505   7.358   6.360   4.347 -0.8555  2.2466  3.4021
   49MOL   H53027506   0.056   6.484   4.431  1.6809 -0.6428 -1.2701
   49MOL   H53127507   0.084   6.307   4.423 -0.1629  1.3879 -1.5266
   49MOL   H53227508   0.222   6.431   4.623 -0.0446  0.5695 -1.3070
   49MOL   H53327509   0.118   6.299   4.662  5.9430 -1.0652 -2.1230
   49MOL   O53427510   7.478   6.519   4.305  0.0216 -0.4900 -0.0917
   49MOL   C53527511   7.384   6.548   4.199  0.0416 -0.7034  0.2926
   49MOL   C53627512   7.393   6.697   4.149 -0.2239  0.2679 -0.6943
   49MOL   O53727513   7.459   6.692   4.022 -0.1911  0.2630 -0.7815
   49MOL   C53827514   7.254   6.760   4.124  0.9751 -0.1802  0.8109
   49MOL   C53927515   7.172   6.692   4.013  0.3643  0.2210  0.2647
   49MOL   C54027516   7.034   6.753   4.000  0.8797  0.2131  0.4233
   49MOL   O54127517   6.954   6.688   3.911 -0.4463  0.4602 -0.1727
   49MOL   C54227518   7.031   6.905   3.966  0.8164  0.3877 -0.2233
   49MOL   C54327519   6.886   6.961   3.967 -0.4051  0.1734  0.4785
   49MOL   C54427520   7.109   6.964   4.078 -0.3449  0.1238  0.9448
   49MOL   C54527521   7.251   6.913   4.101 -0.0517  0.6378  0.9315
   49MOL   H54627522   7.287   6.530   4.244  0.1786 -0.8473  0.5317
   49MOL   H54727523   7.399   6.484   4.112  2.9794  1.8242 -1.1684
   49MOL   H54827524   7.459   6.759   4.210 -0.7829  1.7472 -1.5505
   49MOL   H54927525   7.489   6.779   4.003 -0.2115  0.6966  1.0684
   49MOL   H55027526   7.205   6.752   4.221  0.5844  0.6893  0.6928
   49MOL   H55127527   7.219   6.695   3.914 -3.7830 -0.8031 -1.8292
   49MOL   H55227528   7.156   6.585   4.025  2.0974 -0.1071 -0.1608
   49MOL   H55327529   6.976   6.744   4.093 -0.4527  1.9752 -0.2023
   49MOL   H55427530   6.906   6.624   3.961  1.6264 -0.2848  0.9028
   49MOL   H55527531   7.074   6.918   3.867 -1.4121 -0.2386 -1.3017
   49MOL   H55627532   6.823   6.917   3.889  0.3326 -0.2032  0.0968
   49MOL   H55727533   6.837   6.931   4.060  0.2225 -2.1142  0.1049
   49MOL   H55827534   7.063   6.943   4.175 -1.4790  2.5023  0.9494
   49MOL   H55927535   7.129   7.071   4.073  2.7112 -0.4882 -1.4853
   49MOL   H56027536   7.289   6.963   4.190 -0.4902  1.9167  0.4161
   49MOL   H56127537   7.319   6.932   4.018 -0.5206 -0.4572  0.2820
   49MOL   H56227538   6.876   7.067   3.944 -0.2454 -0.4437 -2.6522
   50MOL     O127539   5.565   3.826   0.966 -0.1843 -0.5082 -0.2605
   50MOL     C227540   5.518   3.912   0.863 -0.3965 -0.0967  0.6979
   50MOL     C327541   5.491   4.039   0.940  0.1177  0.1003  0.1030
   50MOL     O427542   5.619   4.074   0.987 -0.3392  1.0226  0.2461
   50MOL     C527543   5.433   4.156   0.847 -0.0688 -0.5628 -0.0448
   50MOL     C627544   5.545   4.205   0.755 -0.2227  0.2528  0.3209
   50MOL     C727545   5.491   4.320   0.670 -0.3449 -0.1643 -0.1917
   50MOL     O827546   5.601   4.362   0.587 -0.4224 -0.1198 -0.5403
   50MOL     C927547   5.456   4.443   0.766  0.2633 -0.2676  0.3990
   50MOL    C1027548   5.412   4.574   0.694 -0.4899  0.3107 -0.1675
   50MOL    C1127549   5.356   4.397   0.871  0.4891  0.0443 -0.4463
   50MOL    C1227550   5.387   4.270   0.952 -0.5519 -0.2203  0.2720
   50MOL    H1327551   5.433   3.869   0.810 -1.1622  0.7313  1.2493
   50MOL    H1427552   5.596   3.929   0.788 -0.5471 -1.8545  0.1193
   50MOL    H1527553   5.418   4.013   1.017 -0.3702  4.9226  1.4825
   50MOL    H1627554   5.682   4.069   0.916 -2.3027  0.0143 -1.4594
   50MOL    H1727555   5.347   4.119   0.792 -1.0297  0.3820  0.7868
   50MOL    H1827556   5.633   4.236   0.812 -1.1590 -0.0551  1.9622
   50MOL    H1927557   5.581   4.127   0.689  1.5139  1.2125  0.0973
   50MOL    H2027558   5.405   4.287   0.612 -1.5352  1.0737  0.8330
   50MOL    H2127559   5.632   4.441   0.628 -0.6155 -0.0188 -0.5872
   50MOL    H2227560   5.547   4.480   0.813 -0.0545 -1.2278  1.8001
   50MOL    H2327561   5.487   4.608   0.622  0.7110  0.0673  0.9315
   50MOL    H2427562   5.322   4.554   0.638 -0.9391  0.3946  0.5176
   50MOL    H2527563   5.261   4.365   0.827  0.7490 -1.0866 -0.2022
   50MOL    H2627564   5.332   4.473   0.944  0.8502 -0.9207  0.6977
   50MOL    H2727565   5.305   4.235   1.015 -2.9205  2.2357 -1.3261
   50MOL    H2827566   5.474   4.299   1.010  0.8015 -0.5221 -1.5415
   50MOL    H2927567   5.603   3.882   1.032 -1.4107  0.1044 -0.0614
   50MOL    O3027568   5.398   4.673   0.795 -0.5889 -0.1393  0.0801
   50MOL    C3127569   5.407   4.806   0.744 -0.6545 -0.2360 -0.2095
   50MOL    C3227570   5.535   4.881   0.793  0.3489  0.0493 -0.1597
   50MOL    O3327571   5.628   4.877   0.687  0.2111 -0.0332 -0.2282
   50MOL    C3427572   5.519   5.035   0.825 -0.6156  0.1518  0.0067
   50MOL    C3527573   5.493   5.123   0.705  0.3650  0.2900 -0.1675
   50MOL    C3627574   5.482   5.275   0.731  0.6129  0.3055  0.4006
   50MOL    O3727575   5.453   5.337   0.605  0.3818  0.2170 -0.1973
   50MOL    C3827576   5.609   5.337   0.800 -0.6171 -0.2122 -0.4183
   50MOL    C3927577   5.578   5.473   0.851 -0.0862  0.7007  0.0224
   50MOL    C4027578   5.641   5.240   0.921 -0.2038 -0.8653  0.6200
   50MOL    C4127579   5.649   5.093   0.890  0.9352 -0.9342  0.0614
   50MOL    H4227580   5.317   4.849   0.790 -1.6817 -1.9493 -0.5621
   50MOL    H4327581   5.380   4.821   0.640  0.6854  1.7713 -0.2796
   50MOL    H4427582   5.565   4.838   0.888  0.2165 -0.0740 -0.1740
   50MOL    H4527583   5.708   4.842   0.722 -1.2543  0.1893  3.4989
   50MOL    H4627584   5.432   5.045   0.890 -1.2974 -1.4309 -0.6305
   50MOL    H4727585   5.568   5.107   0.628 -0.4406 -1.2295 -0.6679
   50MOL    H4827586   5.400   5.085   0.663 -1.0151  0.8712  2.2690
   50MOL    H4927587   5.397   5.282   0.799  2.1456  0.7813  2.3087
   50MOL    H5027588   5.434   5.428   0.622  0.8791  0.0716  1.2545
   50MOL    H5127589   5.687   5.339   0.724  0.6098  1.6919  0.8555
   50MOL    H5227590   5.537   5.538   0.773 -0.5794 -1.4444 -1.5763
   50MOL    H5327591   5.499   5.470   0.925  1.1234 -2.4323  1.2611
   50MOL    H5427592   5.563   5.252   0.997  0.7565 -0.1436  1.5119
   50MOL    H5527593   5.735   5.279   0.960  0.6915 -0.8736 -1.4642
   50MOL    H5627594   5.678   5.040   0.981 -1.7152  0.2806  1.6675
   50MOL    H5727595   5.737   5.070   0.830  0.9423  1.2515 -0.8379
   50MOL    O5827596   5.699   5.525   0.915 -0.8023  0.0532  0.1553
   50MOL    C5927597   5.674   5.636   1.003  0.2129 -0.6209 -0.4710
   50MOL    C6027598   5.805   5.703   1.050 -0.0324 -0.7241 -0.0120
   50MOL    O6127599   5.865   5.732   0.924  0.1966 -0.1950 -0.5896
   50MOL    C6227600   5.783   5.842   1.114 -0.6690  0.9046  0.4651
   50MOL    C6327601   5.913   5.904   1.163  0.2257 -0.1526  0.5361
   50MOL    C6427602   5.882   6.048   1.209 -0.5900 -0.0897 -0.6440
   50MOL    O6527603   6.003   6.100   1.246  0.0022 -0.3726  0.6249
   50MOL    C6627604   5.782   6.057   1.324 -0.0923  0.0441  0.1807
   50MOL    C6727605   5.757   6.207   1.369 -0.6694  0.5401 -0.2929
   50MOL    C6827606   5.654   5.991   1.271 -0.2533 -0.5833 -0.3257
   50MOL    C6927607   5.670   5.847   1.220  0.2958  0.0441 -0.2133
   50MOL    H7027608   5.621   5.597   1.090 -0.4906 -1.3172 -1.2080
   50MOL    H7127609   5.609   5.709   0.955  1.7268  2.0976  1.4489
   50MOL    H7227610   5.864   5.637   1.113 -0.5263 -0.4497  0.7475
   50MOL    H7327611   5.836   5.653   0.882  0.9542 -0.5603 -0.4198
   50MOL    H7427612   5.738   5.903   1.037  3.4743  1.8371 -1.3416
   50MOL    H7527613   5.961   5.843   1.239  0.4240 -1.3018 -0.4952
   50MOL    H7627614   5.982   5.905   1.078 -0.7082 -0.6372 -0.2352
   50MOL    H7727615   5.841   6.107   1.127 -0.4044  0.2544 -0.4916
   50MOL    H7827616   6.045   6.128   1.166  2.7567  0.0347  2.1679
   50MOL    H7927617   5.820   5.998   1.408 -1.3812 -0.0705  0.6864
   50MOL    H8027618   5.849   6.259   1.394 -0.0206 -0.4643 -0.5484
   50MOL    H8127619   5.704   6.253   1.286 -0.2861  2.7835  0.6725
   50MOL    H8227620   5.608   6.058   1.199  1.1171  0.1374 -0.5406
   50MOL    H8327621   5.576   5.987   1.347 -1.1512 -1.6691 -1.2898
   50MOL    H8427622   5.574   5.806   1.188  0.0370 -0.9121  1.7005
   50MOL    H8527623   5.695   5.776   1.300  1.5150  0.9801  0.2452
   50MOL    O8627624   5.664   6.208   1.480 -0.3586 -0.2230  0.5276
   50MOL    C8727625   5.631   6.330   1.532  0.0002  0.1997 -0.7865
   50MOL    C8827626   5.550   6.311   1.661 -0.3011 -0.2077 -0.2867
   50MOL    O8927627   5.609   6.204   1.722  0.3746  0.1098  0.0574
   50MOL    C9027628   5.544   6.442   1.756  0.2709  0.1074  0.0421
   50MOL    C9127629   5.462   6.422   1.881  0.6768  0.6802  0.0504
   50MOL    C9227630   5.466   6.532   1.982 -0.4546 -1.4703  0.5316
   50MOL    O9327631   5.396   6.491   2.095  0.3859  0.1587  0.1931
   50MOL    C9427632   5.413   6.662   1.912  0.2699 -0.5052 -0.3462
   50MOL    C9527633   5.424   6.798   1.993  0.4589  0.0650  0.1942
   50MOL    C9627634   5.466   6.684   1.771  0.0040  0.6631  0.1632
   50MOL    C9727635   5.474   6.549   1.682 -0.0016  0.1868  0.4859
   50MOL    H9827636   5.566   6.382   1.462  1.5943  1.3044 -1.4686
   50MOL    H9927637   5.720   6.390   1.554  0.9181 -0.7830 -1.7728
   50MOL   H10027638   5.449   6.289   1.628 -0.8124  2.8195 -0.9558
   50MOL   H10127639   5.665   6.169   1.654 -0.5195  2.9789 -2.2887
   50MOL   H10227640   5.648   6.472   1.768  1.0567 -1.9325 -1.4506
   50MOL   H10327641   5.356   6.407   1.856  0.9203 -1.1641  0.0233
   50MOL   H10427642   5.504   6.327   1.915  0.0573  0.0201 -1.0110
   50MOL   H10527643   5.568   6.559   2.007 -0.9912  1.5537 -0.3815
   50MOL   H10627644   5.313   6.451   2.075  0.5147 -0.5569  1.0433
   50MOL   H10727645   5.307   6.639   1.897  0.0239  0.1486  0.3832
   50MOL   H10827646   5.395   6.790   2.098  0.7535  0.2133  0.2876
   50MOL   H10927647   5.518   6.853   1.986  0.1115  0.4878 -1.1852
   50MOL   H11027648   5.562   6.729   1.796  0.7118 -1.1581  0.7585
   50MOL   H11127649   5.408   6.752   1.708  0.4639  0.6679 -0.2480
   50MOL   H11227650   5.543   6.574   1.601 -1.2440  0.8617 -0.3863
   50MOL   H11327651   5.376   6.525   1.641  0.3244  0.9273 -0.7620
   50MOL   O11427652   5.327   6.885   1.929  0.2669  0.1215 -0.0311
   50MOL   C11527653   5.199   6.869   1.979 -0.3090 -0.2228  0.1985
   50MOL   C11627654   5.085   6.939   1.893  0.1044  0.4732 -0.4241
   50MOL   O11727655   5.074   6.869   1.770 -0.3631 -0.3625  0.1948
   50MOL   C11827656   4.943   6.935   1.950  0.1816  0.1035  0.1133
   50MOL   C11927657   4.863   7.059   1.907 -0.5338 -0.1174 -0.4799
   50MOL   C12027658   4.715   7.031   1.947 -0.0007 -0.2059 -0.4451
   50MOL   O12127659   4.624   7.125   1.891  0.3654  0.2513 -0.2885
   50MOL   C12227660   4.705   7.026   2.106 -0.3407 -0.1120 -0.0674
   50MOL   C12327661   4.559   7.017   2.158  0.1183  0.1543  0.2525
   50MOL   C12427662   4.790   6.912   2.150 -0.1204  0.3056 -0.1976
   50MOL   C12527663   4.935   6.927   2.105  0.1202 -0.4306  0.5657
   50MOL   H12627664   5.189   6.917   2.076 -0.0759  1.0482 -0.4047
   50MOL   H12727665   5.173   6.763   1.992  1.8816 -0.8056 -0.0812
   50MOL   H12827666   5.117   7.042   1.878 -0.0279  0.5822  0.0688
   50MOL   H12927667   5.153   6.895   1.725 -0.5860 -0.3912 -0.2221
   50MOL   H13027668   4.902   6.842   1.910  1.4439 -0.7194  0.6934
   50MOL   H13127669   4.899   7.151   1.954 -1.1844  1.6204 -3.2722
   50MOL   H13227670   4.878   7.080   1.802  1.1743  3.2086  0.3689
   50MOL   H13327671   4.682   6.934   1.909 -1.3523  0.0296  0.0870
   50MOL   H13427672   4.543   7.076   1.887  0.5985 -0.2482  0.9804
   50MOL   H13527673   4.737   7.124   2.140 -3.5616  0.8608  0.3981
   50MOL   H13627674   4.495   7.097   2.121 -0.7991  0.1615  1.7924
   50MOL   H13727675   4.513   6.919   2.144 -1.0127  0.5633  1.0562
   50MOL   H13827676   4.750   6.818   2.112  2.1458 -1.5207  1.7774
   50MOL   H13927677   4.777   6.899   2.258  1.1117 -1.2067 -0.2146
   50MOL   H14027678   4.985   6.835   2.135 -1.3529 -1.2056  0.7054
   50MOL   H14127679   4.995   7.003   2.155  1.9537 -1.4315 -0.0936
   50MOL   O14227680   4.572   7.037   2.295  0.3608 -0.2402 -0.7558
   50MOL   C14327681   4.496   6.950   2.374  1.4692 -0.8111 -0.2463
   50MOL   C14427682   4.440   7.026   2.502  0.0170  0.0271 -0.1513
   50MOL   O14527683   4.550   7.054   2.586 -0.3802 -0.4669  0.2903
   50MOL   C14627684   4.358   7.150   2.456  0.0498 -0.5956  0.2504
   50MOL   C14727685   4.298   7.236   2.576 -0.7636  0.5791  0.2140
   50MOL   C14827686   4.230   7.370   2.528  0.0287  0.0752  0.0627
   50MOL   O14927687   4.190   7.450   2.636 -0.0033 -0.4958 -0.4229
   50MOL   C15027688   4.114   7.327   2.433 -0.3510 -0.0128 -0.6265
   50MOL   C15127689   4.039   7.452   2.377 -0.5101 -0.2276  0.1427
   50MOL   C15227690   4.159   7.234   2.318  0.1298 -0.6699 -0.1729
   50MOL   C15327691   4.233   7.115   2.370  0.1917 -0.4757 -0.5634
   50MOL   H15427692   4.561   6.871   2.411  0.5841 -0.2593  2.6668
   50MOL   H15527693   4.408   6.914   2.320  0.3900  1.2894  0.0385
   50MOL   H15627694   4.373   6.960   2.557  1.0240 -0.1351  0.9098
   50MOL   H15727695   4.617   7.095   2.534 -0.7407 -0.6266 -0.2932
   50MOL   H15827696   4.423   7.216   2.399  0.3394 -1.2372 -0.1646
   50MOL   H15927697   4.234   7.175   2.639 -1.4135  0.0093 -0.9767
   50MOL   H16027698   4.382   7.258   2.643  0.3935  0.4338 -1.1590
   50MOL   H16127699   4.303   7.430   2.474 -0.9899  0.7437 -0.5858
   50MOL   H16227700   4.115   7.499   2.604 -1.4326 -2.8458 -0.8035
   50MOL   H16327701   4.046   7.266   2.492 -1.7192  1.4619 -0.6633
   50MOL   H16427702   4.117   7.511   2.330 -0.3926  1.8437  2.8570
   50MOL   H16527703   3.972   7.432   2.292  0.2914  1.2151 -0.8588
   50MOL   H16627704   4.213   7.295   2.246 -0.6604 -0.0578 -0.2607
   50MOL   H16727705   4.068   7.207   2.263  0.7947 -0.6628 -1.2888
   50MOL   H16827706   4.253   7.053   2.283  0.9754  0.0742 -0.7737
   50MOL   H16927707   4.168   7.043   2.421 -0.4615  0.6072  0.1434
   50MOL   O17027708   3.986   7.525   2.488  0.4965  0.0534 -0.4835
   50MOL   C17127709   3.912   0.012   2.448  0.5587 -0.0874  0.2703
   50MOL   C17227710   3.908   0.093   2.578  0.4978  1.4996  0.1280
   50MOL   O17327711   3.823   0.037   2.678 -0.9344 -0.1115  0.4083
   50MOL   C17427712   4.047   0.116   2.644 -0.2419  0.5229  0.0972
   50MOL   C17527713   4.036   0.239   2.734 -0.2305  0.1713 -0.0865
   50MOL   C17627714   4.167   0.287   2.803 -0.6898  0.4973  0.2692
   50MOL   O17727715   4.147   0.407   2.874 -0.1088  0.5922  0.6937
   50MOL   C17827716   4.285   0.298   2.698 -0.4063  0.1467 -0.5708
   50MOL   C17927717   4.424   0.321   2.761 -0.0447  0.1287  0.5483
   50MOL   C18027718   4.290   0.171   2.611  0.4222  0.6443  0.3236
   50MOL   C18127719   4.157   0.147   2.541 -0.1291  0.4509 -0.3378
   50MOL   H18227720   3.810   7.615   2.420  0.5046 -0.1195  0.5002
   50MOL   H18327721   3.956   0.077   2.373  0.0669 -0.2134 -0.1293
   50MOL   H18427722   3.857   0.187   2.559 -1.1517  0.2380 -1.9439
   50MOL   H18527723   3.849   7.577   2.692  0.1312  0.0301 -0.5772
   50MOL   H18627724   4.075   0.030   2.705 -1.3763  1.0358  1.3804
   50MOL   H18727725   4.004   0.320   2.668  0.0887 -0.8668 -1.5445
   50MOL   H18827726   3.959   0.216   2.807 -0.4388 -0.0779 -0.3880
   50MOL   H18927727   4.193   0.215   2.881  0.7812 -1.5082 -2.0085
   50MOL   H19027728   4.113   0.471   2.814 -1.5991 -0.2365  0.6368
   50MOL   H19127729   4.267   0.377   2.625 -2.3963  0.0281 -0.2251
   50MOL   H19227730   4.415   0.390   2.845 -2.4264  1.5443 -0.8270
   50MOL   H19327731   4.455   0.221   2.794  0.0536 -0.2577 -0.7054
   50MOL   H19427732   4.326   0.088   2.673 -1.5486 -0.9196 -0.5715
   50MOL   H19527733   4.358   0.179   2.526 -0.8525  2.4689 -0.5625
   50MOL   H19627734   4.174   0.079   2.458  0.8801  1.2058 -0.7554
   50MOL   H19727735   4.136   0.247   2.504 -0.3626  0.9823  1.1735
   50MOL   O19827736   4.517   0.367   2.661 -0.4442 -0.4572 -0.1371
   50MOL   C19927737   4.654   0.335   2.679  0.4054 -0.4352  0.1622
   50MOL   C20027738   4.745   0.428   2.609  0.5875 -0.2782 -0.3737
   50MOL   O20127739   4.880   0.420   2.667  0.2460 -0.4851  0.6617
   50MOL   C20227740   4.751   0.413   2.455  0.2841  0.0978  0.7817
   50MOL   C20327741   4.811   0.281   2.410 -0.0009 -0.3079 -0.6606
   50MOL   C20427742   4.810   0.268   2.259  0.0891 -0.3226  0.5166
   50MOL   O20527743   4.889   0.159   2.238 -0.2495 -0.2358  0.4233
   50MOL   C20627744   4.865   0.392   2.188  0.3233  0.0178 -0.1029
   50MOL   C20727745   4.820   0.387   2.035  0.5796 -0.8923 -0.2701
   50MOL   C20827746   4.803   0.521   2.236 -0.7222  0.0882 -0.0514
   50MOL   C20927747   4.822   0.535   2.388 -0.8631  0.2725 -0.3440
   50MOL   H21027748   4.659   0.237   2.632  1.4476 -0.3737  0.1345
   50MOL   H21127749   4.677   0.322   2.784 -1.1273 -3.6906  0.1479
   50MOL   H21227750   4.710   0.529   2.630  0.6327 -0.5903  1.2916
   50MOL   H21327751   4.905   0.329   2.671 -1.4909 -0.9838  0.7637
   50MOL   H21427752   4.649   0.420   2.418  0.4295  0.3344  0.4158
   50MOL   H21527753   4.912   0.274   2.451 -0.4419 -0.1624  0.4723
   50MOL   H21627754   4.757   0.198   2.455 -0.0036 -0.5968 -1.1968
   50MOL   H21727755   4.711   0.255   2.216  0.1549  1.2977 -0.1556
   50MOL   H21827756   4.914   0.144   2.148 -1.8144 -1.0265  0.1110
   50MOL   H21927757   4.972   0.402   2.205  0.3195 -0.9375  0.5577
   50MOL   H22027758   4.855   0.288   2.005 -0.6813 -1.7929  1.1765
   50MOL   H22127759   4.711   0.374   2.032  0.6782 -1.6733 -0.5807
   50MOL   H22227760   4.700   0.529   2.201 -0.3681  2.8775 -0.5750
   50MOL   H22327761   4.856   0.605   2.191 -0.4246 -0.7826 -1.3435
   50MOL   H22427762   4.771   0.623   2.426  0.6618  0.4836  1.3084
   50MOL   H22527763   4.926   0.516   2.416 -0.4420 -1.5672 -2.9381
   50MOL   O22627764   4.860   0.496   1.955 -0.3942  0.7211  0.5992
   50MOL   C22727765   5.004   0.521   1.938 -0.3237  0.0971  0.7188
   50MOL   C22827766   5.024   0.607   1.814 -0.6837 -0.0146 -0.4037
   50MOL   O22927767   5.140   0.692   1.810  0.7471  0.2275  0.1825
   50MOL   C23027768   5.033   0.523   1.677 -0.0235 -0.2565  0.2636
   50MOL   C23127769   5.173   0.460   1.660 -0.1938 -0.3223 -0.2647
   50MOL   C23227770   5.168   0.374   1.530  0.3100  0.0629 -0.8398
   50MOL   O23327771   5.295   0.310   1.509  0.0813 -0.3185  0.2460
   50MOL   C23427772   5.119   0.441   1.404 -0.1901 -0.6760 -0.4207
   50MOL   C23527773   5.106   0.358   1.283 -0.2697  0.0676  0.2972
   50MOL   C23627774   4.994   0.525   1.429  0.2449  0.0896  0.1958
   50MOL   C23727775   5.015   0.610   1.551  0.4491  0.5266 -0.1961
   50MOL   H23827776   5.064   0.433   1.918  1.3271  1.6959 -1.5080
   50MOL   H23927777   5.042   0.561   2.032  0.0231  0.9895  0.2013
   50MOL   H24027778   4.940   0.675   1.799 -0.2231  0.0217 -3.0483
   50MOL   H24127779   5.143   0.727   1.898 -1.8089 -1.1338  0.8668
   50MOL   H24227780   4.953   0.448   1.683 -0.4177  0.1054 -0.3602
   50MOL   H24327781   5.265   0.518   1.659  0.3352 -1.1454 -0.5641
   50MOL   H24427782   5.183   0.403   1.753 -2.9197  0.5992  0.6188
   50MOL   H24527783   5.097   0.294   1.550  0.1881  0.4217  0.1974
   50MOL   H24627784   5.292   0.221   1.541 -0.8726 -0.7277 -0.9328
   50MOL   H24727785   5.187   0.521   1.374 -1.1767  0.1188 -0.5842
   50MOL   H24827786   5.132   0.421   1.198  2.5749 -1.1365  0.2323
   50MOL   H24927787   5.189   0.287   1.275 -0.3236 -0.0455  0.6943
   50MOL   H25027788   4.896   0.477   1.436  0.7261 -1.0627 -0.8884
   50MOL   H25127789   4.980   0.596   1.348 -1.7311 -0.4764  0.0195
   50MOL   H25227790   4.928   0.670   1.580 -0.9835 -1.5907  0.0047
   50MOL   H25327791   5.104   0.669   1.529  0.8064 -0.0817 -0.3851
   50MOL   O25427792   4.982   0.291   1.280  0.3767 -0.1091  0.1959
   50MOL   C25527793   4.959   0.227   1.157  0.1273 -0.7012 -0.2366
   50MOL   C25627794   4.856   0.115   1.187  0.1989  0.6434  0.1900
   50MOL   O25727795   4.728   0.161   1.199  0.5316  0.1976 -0.3492
   50MOL   C25827796   4.860   0.023   1.061 -0.2506  0.0261  0.1685
   50MOL   C25927797   4.816   0.085   0.919 -0.6385 -0.1228  0.2879
   50MOL   C26027798   4.801   7.627   0.797  0.4408  0.7285  0.6622
   50MOL   O26127799   4.746   0.066   0.689 -0.5948 -0.6055 -0.4290
   50MOL   C26227800   4.711   7.502   0.823 -0.4636  0.0468  0.2321
   50MOL   C26327801   4.737   7.400   0.705 -0.0651 -0.4423 -0.1483
   50MOL   C26427802   4.762   7.439   0.957 -0.3887 -0.3974  0.3402
   50MOL   C26527803   4.768   7.533   1.080 -0.2834 -0.6535 -0.2300
   50MOL   H26627804   5.051   0.188   1.113 -0.0583 -0.1471 -1.1289
   50MOL   H26727805   4.929   0.301   1.083 -0.1213 -1.4821 -0.9262
   50MOL   H26827806   4.878   0.057   1.276 -2.1958 -1.1767 -0.3402
   50MOL   H26927807   4.713   0.238   1.147 -0.2921  1.0187  1.0754
   50MOL   H27027808   4.958   7.609   1.048 -0.2109 -0.4054  1.8364
   50MOL   H27127809   4.714   0.122   0.934 -0.4825  1.8877 -2.9270
   50MOL   H27227810   4.871   0.175   0.892  2.4209 -2.4159 -1.4447
   50MOL   H27327811   4.891   7.585   0.752 -0.7250 -2.2744  0.9988
   50MOL   H27427812   4.663   0.099   0.719  2.1292  4.2162  2.4186
   50MOL   H27527813   4.605   7.527   0.829 -0.4341 -0.0861  1.4582
   50MOL   H27627814   4.803   7.433   0.624  0.0040 -1.5807 -0.5656
   50MOL   H27727815   4.799   7.324   0.752  0.4313  0.6710  1.0210
   50MOL   H27827816   4.862   7.396   0.942 -0.3115 -0.0687 -0.1328
   50MOL   H27927817   4.696   7.357   0.982  0.1786 -0.5769  1.2846
   50MOL   H28027818   4.803   7.475   1.165 -0.9413  1.0826  1.2461
   50MOL   H28127819   4.668   7.559   1.116  0.4243  1.7733  0.0400
   50MOL   O28227820   4.605   7.362   0.653 -0.1869  0.1188  0.0099
   50MOL   C28327821   4.541   7.267   0.741  0.3854 -0.3292  0.1503
   50MOL   C28427822   4.384   7.263   0.714  0.0375  0.1292 -0.7142
   50MOL   O28527823   4.364   7.206   0.590  0.1200  0.6789 -0.2238
   50MOL   C28627824   4.309   7.180   0.821  0.5418  0.0918  0.1711
   50MOL   C28727825   4.172   7.125   0.775 -0.9500 -0.4574 -0.3347
   50MOL   C28827826   4.088   7.064   0.886 -0.1453  0.5888 -0.1658
   50MOL   O28927827   3.961   7.035   0.831  0.1591  0.1294 -0.1554
   50MOL   C29027828   4.074   7.149   1.014 -0.0709 -0.5361 -0.6508
   50MOL   C29127829   4.022   7.056   1.131 -0.2049 -0.5875 -0.2282
   50MOL   C29227830   4.212   7.194   1.062 -0.0243 -0.3738 -0.2606
   50MOL   C29327831   4.290   7.269   0.956 -1.0886 -0.2721 -0.4154
   50MOL   H29427832   4.543   7.298   0.846  1.6520 -1.4771  0.4713
   50MOL   H29527833   4.592   7.170   0.738  0.3285 -0.3373 -0.7246
   50MOL   H29627834   4.352   7.367   0.715  0.3097  0.2142  0.9129
   50MOL   H29727835   4.433   7.233   0.531  0.8238 -3.5021 -1.4459
   50MOL   H29827836   4.380   7.103   0.853  2.1990  2.1909  1.6522
   50MOL   H29927837   4.122   7.201   0.715 -2.7571 -1.2553  0.1442
   50MOL   H30027838   4.182   7.044   0.702  0.5618 -1.7823  1.2800
   50MOL   H30127839   4.145   6.976   0.919  1.3172  2.4272  2.3773
   50MOL   H30227840   3.976   6.958   0.778 -0.5505  0.2665 -0.5576
   50MOL   H30327841   4.020   7.242   0.994 -0.7465 -1.1182 -1.5465
   50MOL   H30427842   3.929   7.008   1.100 -1.0238  0.6724  0.1980
   50MOL   H30527843   4.084   6.969   1.150 -1.7468 -1.5162  0.6767
   50MOL   H30627844   4.278   7.110   1.084  0.4281  0.2321  0.7349
   50MOL   H30727845   4.208   7.254   1.153 -0.9165 -0.6178 -0.1266
   50MOL   H30827846   4.385   7.299   1.000 -1.8330  0.4070  0.7446
   50MOL   H30927847   4.237   7.360   0.927 -0.8913  0.4097  1.3220
   50MOL   O31027848   4.010   7.127   1.248  0.1849  0.3516 -0.4626
   50MOL   C31127849   3.925   7.060   1.346  0.9594 -0.3284 -0.7869
   50MOL   C31227850   3.970   6.924   1.392  0.2027  0.4419 -0.2451
   50MOL   O31327851   4.067   6.934   1.491  0.0946 -0.8875 -0.0468
   50MOL   C31427852   3.858   6.848   1.462 -0.6728 -0.0976  0.5147
   50MOL   C31527853   3.790   6.915   1.578 -0.2565  0.7547 -0.1791
   50MOL   C31627854   3.662   6.842   1.626  0.5888 -0.6567  0.8199
   50MOL   O31727855   3.608   6.914   1.726  0.0533 -0.7307  0.2992
   50MOL   C31827856   3.686   6.694   1.659  0.2630  0.0785 -0.3247
   50MOL   C31927857   3.565   6.617   1.699  0.0609 -0.2794 -0.4406
   50MOL   C32027858   3.781   6.618   1.557 -0.4715 -0.0957  0.1358
   50MOL   C32127859   3.898   6.706   1.502  0.0605  0.2379 -0.1743
   50MOL   H32227860   3.822   7.065   1.311  0.2145 -2.3435  0.9905
   50MOL   H32327861   3.927   7.120   1.437 -3.2102 -1.7006  0.3459
   50MOL   H32427862   4.009   6.862   1.312 -2.9242  0.6611 -2.0041
   50MOL   H32527863   4.134   6.985   1.447 -0.2733 -0.6359 -0.3229
   50MOL   H32627864   3.783   6.826   1.386 -0.5881  1.9010 -0.1713
   50MOL   H32727865   3.851   6.916   1.669  0.1145 -0.1450 -0.4171
   50MOL   H32827866   3.757   7.015   1.548 -2.3891  0.2304  0.3380
   50MOL   H32927867   3.591   6.842   1.544 -0.0168 -0.7415  1.3443
   50MOL   H33027868   3.620   7.005   1.705  0.1916  0.0272  3.4495
   50MOL   H33127869   3.738   6.698   1.755  1.6278  0.8480 -1.0786
   50MOL   H33227870   3.582   6.529   1.760 -1.4294 -1.4850 -1.7261
   50MOL   H33327871   3.497   6.671   1.765  1.2809 -1.5026  1.8816
   50MOL   H33427872   3.727   6.571   1.474  3.1269 -3.4112 -0.4546
   50MOL   H33527873   3.819   6.527   1.603  1.4091  1.3616  1.5209
   50MOL   H33627874   3.947   6.656   1.418  0.2351  0.6864 -0.3405
   50MOL   H33727875   3.979   6.713   1.574  0.1456 -0.6213 -0.1865
   50MOL   O33827876   3.502   6.576   1.575  0.3512  0.7747 -0.0289
   50MOL   C33927877   3.373   6.505   1.593 -0.5749  0.0168  0.1421
   50MOL   C34027878   3.327   6.438   1.462 -0.1635  0.6139  0.0940
   50MOL   O34127879   3.260   6.530   1.376  0.0669 -0.3609 -0.3692
   50MOL   C34227880   3.432   6.349   1.390 -0.2494 -0.3995 -0.1029
   50MOL   C34327881   3.517   6.436   1.295 -0.6840  0.2658 -0.4211
   50MOL   C34427882   3.620   6.351   1.220  0.6878 -0.3220  0.5447
   50MOL   O34527883   3.691   6.436   1.133 -0.0409  0.6332 -0.4784
   50MOL   C34627884   3.561   6.232   1.140 -0.2358  0.0120 -0.3977
   50MOL   C34727885   3.674   6.139   1.084  0.5580 -0.1918  0.6111
   50MOL   C34827886   3.462   6.147   1.227 -0.1451  0.4530 -0.1228
   50MOL   C34927887   3.368   6.240   1.306 -0.4935  0.6504  0.2387
   50MOL   H35027888   3.293   6.569   1.630 -0.3711 -0.0493  0.7133
   50MOL   H35127889   3.385   6.430   1.672 -0.4915  0.1320  0.2387
   50MOL   H35227890   3.248   6.377   1.507 -0.6773  1.2497  0.0699
   50MOL   H35327891   3.168   6.525   1.399  0.3019  0.1008  0.6992
   50MOL   H35427892   3.492   6.299   1.467 -1.5395 -0.8304  0.6421
   50MOL   H35527893   3.452   6.478   1.219 -0.5415 -0.4368 -0.9390
   50MOL   H35627894   3.565   6.523   1.339 -0.1723  0.0157 -0.4810
   50MOL   H35727895   3.697   6.320   1.291  0.9877 -0.7869  0.0231
   50MOL   H35827896   3.642   6.458   1.055  0.2625 -0.3488 -0.9520
   50MOL   H35927897   3.488   6.265   1.066  0.7171 -0.8116 -1.7306
   50MOL   H36027898   3.773   6.172   1.114  0.6609  2.0734 -2.1129
   50MOL   H36127899   3.663   6.040   1.129  1.1759 -0.0591  1.0536
   50MOL   H36227900   3.514   6.096   1.309 -0.7515 -1.1750 -0.7215
   50MOL   H36327901   3.417   6.066   1.169  0.6468 -1.5551  1.9487
   50MOL   H36427902   3.295   6.184   1.363 -2.2982  0.4096 -2.2208
   50MOL   H36527903   3.307   6.291   1.231 -2.3924  0.4120  1.5777
   50MOL   O36627904   3.689   6.155   0.946 -0.4884  0.0112 -0.0200
   50MOL   C36727905   3.595   6.108   0.853  0.2064  0.6466  0.0403
   50MOL   C36827906   3.637   6.146   0.708  0.4456  0.0905  0.2276
   50MOL   O36927907   3.653   6.282   0.715 -0.4712  0.2687 -0.2789
   50MOL   C37027908   3.772   6.083   0.653 -0.3311  0.2622  0.4562
   50MOL   C37127909   3.828   6.164   0.534  0.7237  0.1200 -0.0347
   50MOL   C37227910   3.961   6.108   0.493 -0.5550 -0.3467  1.0898
   50MOL   O37327911   4.001   6.187   0.385 -0.6477 -0.2489 -0.8016
   50MOL   C37427912   3.957   5.955   0.458  0.2574 -0.8623  0.1066
   50MOL   C37527913   4.107   5.919   0.429 -0.1211  0.5121 -0.4775
   50MOL   C37627914   3.879   5.873   0.568 -0.2293  0.6001 -0.4164
   50MOL   C37727915   3.747   5.940   0.607 -0.7083 -0.4985  0.0506
   50MOL   H37827916   3.501   6.152   0.888 -1.0917 -2.3147  0.4175
   50MOL   H37927917   3.595   6.000   0.869  0.0514  0.4186 -1.3612
   50MOL   H38027918   3.553   6.123   0.642 -1.9076  0.6909  2.9069
   50MOL   H38127919   3.707   6.279   0.793 -0.5198  1.0743 -0.2136
   50MOL   H38227920   3.851   6.081   0.728 -0.1864  0.0871  0.2987
   50MOL   H38327921   3.753   6.159   0.455  0.5454  1.1935  0.0642
   50MOL   H38427922   3.833   6.266   0.571 -5.3896 -0.4963  3.1986
   50MOL   H38527923   4.038   6.115   0.570  1.1837 -1.1056 -0.5646
   50MOL   H38627924   3.939   6.183   0.314 -0.7318 -0.7264 -0.6979
   50MOL   H38727925   3.899   5.951   0.366  0.2855  0.6935  0.0145
   50MOL   H38827926   4.107   5.816   0.394  0.3058  0.5855 -0.7018
   50MOL   H38927927   4.152   5.980   0.350 -2.2657 -0.0290 -2.1539
   50MOL   H39027928   3.944   5.857   0.655 -0.9219 -2.1695 -0.3770
   50MOL   H39127929   3.859   5.784   0.509 -0.9668  2.6537 -3.3976
   50MOL   H39227930   3.707   5.872   0.683 -1.4164 -2.2109 -1.8038
   50MOL   H39327931   3.674   5.943   0.527  0.6732  4.1941 -1.1759
   50MOL   O39427932   4.185   5.919   0.556  0.3897  0.5964 -0.2474
   50MOL   C39527933   4.317   5.856   0.534 -0.2595  1.0753  0.2835
   50MOL   C39627934   4.367   5.832   0.679 -0.8397 -0.3303  0.3085
   50MOL   O39727935   4.462   5.722   0.690 -0.1342 -0.1856 -0.1744
   50MOL   C39827936   4.434   5.955   0.745  0.3438  0.3256 -0.3127
   50MOL   C39927937   4.580   5.980   0.698  0.1415 -0.1605  0.2938
   50MOL   C40027938   4.630   6.109   0.753  0.3034  0.5261 -0.4648
   50MOL   O40127939   4.759   6.111   0.704 -0.4896 -0.2024 -0.2571
   50MOL   C40227940   4.620   6.104   0.908 -0.0305  0.1366 -0.3824
   50MOL   C40327941   4.686   6.231   0.966 -0.2942 -1.0484  0.0857
   50MOL   C40427942   4.469   6.083   0.959  0.6782  0.5579 -1.1917
   50MOL   C40527943   4.424   5.951   0.899  0.0818 -0.1937  0.1623
   50MOL   H40627944   4.392   5.922   0.491  0.1458 -0.1986 -0.9982
   50MOL   H40727945   4.308   5.762   0.479  0.8884  0.8492  0.4844
   50MOL   H40827946   4.283   5.788   0.734 -0.4915 -0.6536  0.5827
   50MOL   H40927947   4.421   5.659   0.747 -2.7081  2.0926  0.6419
   50MOL   H41027948   4.369   6.035   0.710  0.1198  0.5079  0.5293
   50MOL   H41127949   4.653   5.906   0.730 -0.5974 -1.2267 -0.4736
   50MOL   H41227950   4.579   5.977   0.589 -0.2678  1.1797  0.2501
   50MOL   H41327951   4.574   6.191   0.709 -1.3751  0.4977  1.5309
   50MOL   H41427952   4.777   6.020   0.685 -1.3122 -0.0294 -1.9642
   50MOL   H41527953   4.680   6.023   0.949 -1.3857 -0.8700 -0.3534
   50MOL   H41627954   4.783   6.251   0.922 -0.6668 -0.4454 -0.4764
   50MOL   H41727955   4.618   6.316   0.951  0.4210 -0.5811 -0.5530
   50MOL   H41827956   4.415   6.170   0.923 -2.8244 -1.3067 -0.6594
   50MOL   H41927957   4.447   6.082   1.066  2.0520 -1.2575 -0.9003
   50MOL   H42027958   4.321   5.949   0.934  0.0574  3.1194  0.4480
   50MOL   H42127959   4.477   5.867   0.942  0.5023 -0.0298 -0.0340
   50MOL   O42227960   4.696   6.220   1.106  0.2530  0.3171 -0.2156
   50MOL   C42327961   4.805   6.290   1.153  0.1531  0.3446  0.2171
   50MOL   C42427962   4.803   6.445   1.140 -0.7646  0.7617 -0.8331
   50MOL   O42527963   4.698   6.492   1.213 -0.8995 -0.0525 -0.4154
   50MOL   C42627964   4.930   6.514   1.205 -0.2174 -0.2878  0.4453
   50MOL   C42727965   4.964   6.464   1.348  0.1083  0.5806 -0.2213
   50MOL   C42827966   5.091   6.536   1.396 -0.1292  0.0711  0.0222
   50MOL   O42927967   5.136   6.477   1.513 -0.3318 -0.1399  0.1549
   50MOL   C43027968   5.079   6.688   1.401  0.6637 -0.1591 -0.2481
   50MOL   C43127969   5.212   6.753   1.447  0.0617 -0.5010  0.3033
   50MOL   C43227970   5.046   6.738   1.264 -0.2244  0.7257  0.5321
   50MOL   C43327971   4.919   6.675   1.207  0.1208  0.5442  0.6336
   50MOL   H43427972   4.888   6.245   1.098  1.1297  2.2694  0.0690
   50MOL   H43527973   4.804   6.271   1.260  0.5982 -0.3349  0.1012
   50MOL   H43627974   4.793   6.482   1.038  2.7169 -0.5846 -1.7081
   50MOL   H43727975   4.632   6.424   1.221  1.0687 -1.9234  0.5457
   50MOL   H43827976   5.012   6.475   1.145 -0.5385  0.0857 -0.2468
   50MOL   H43927977   4.878   6.480   1.412  0.8233  1.7749  0.4451
   50MOL   H44027978   4.981   6.356   1.348 -1.0908  0.3813 -0.7202
   50MOL   H44127979   5.176   6.518   1.330  1.4473  0.7445  1.8375
   50MOL   H44227980   5.125   6.384   1.505  1.9756 -0.5013  0.7099
   50MOL   H44327981   4.999   6.706   1.473  2.7935  0.9795  1.9209
   50MOL   H44427982   5.247   6.721   1.545  0.2891  1.4219  0.8586
   50MOL   H44527983   5.282   6.718   1.370 -0.0788  1.7558 -0.8921
   50MOL   H44627984   5.133   6.715   1.203 -0.6581 -0.6461  0.4311
   50MOL   H44727985   5.034   6.845   1.280 -2.7409  0.2535  2.0820
   50MOL   H44827986   4.907   6.715   1.106 -2.2122  0.4350  0.8475
   50MOL   H44927987   4.844   6.710   1.277  0.3084 -0.2656  1.2389
   50MOL   O45027988   5.208   6.894   1.455 -0.4884 -0.5148  0.2982
   50MOL   C45127989   5.335   6.943   1.493  0.3906 -0.1410  0.0647
   50MOL   C45227990   5.348   7.077   1.420  0.7167  0.0195 -0.4910
   50MOL   O45327991   5.357   7.064   1.280  0.0920 -0.3020  0.2257
   50MOL   C45427992   5.234   7.184   1.441  0.0506  0.5052  0.0199
   50MOL   C45527993   5.280   7.320   1.383 -0.4460  0.7390 -0.5572
   50MOL   C45627994   5.170   7.416   1.411  0.5342 -0.0319  0.3388
   50MOL   O45727995   5.209   7.531   1.345 -0.9667  0.2213 -0.0581
   50MOL   C45827996   5.139   7.444   1.562  0.1301  0.0373  0.2456
   50MOL   C45927997   5.025   7.550   1.582 -0.1036 -0.3415 -0.1225
   50MOL   C46027998   5.112   7.306   1.627 -0.3042 -0.5431  0.7879
   50MOL   C46127999   5.208   7.194   1.594  0.3592 -0.4289 -0.1450
   50MOL   H46228000   5.408   6.872   1.455  0.3443 -0.3347  0.3405
   50MOL   H46328001   5.335   6.953   1.601  2.8910  0.9271 -0.0122
   50MOL   H46428002   5.436   7.129   1.458 -0.0249  1.6290 -0.9400
   50MOL   H46528003   5.269   7.036   1.258 -0.3020 -1.7397  3.4530
   50MOL   H46628004   5.138   7.152   1.403  0.7351 -1.2958 -0.2294
   50MOL   H46728005   5.372   7.352   1.432 -1.1506  1.0456  0.6013
   50MOL   H46828006   5.296   7.316   1.275  0.4331  1.5401 -0.4607
   50MOL   H46928007   5.077   7.383   1.365  1.2411  0.1574 -1.2670
   50MOL   H47028008   5.226   7.505   1.256 -2.6722 -0.7523 -0.1058
   50MOL   H47128009   5.231   7.485   1.605 -0.7865  0.2865  2.0056
   50MOL   H47228010   5.036   0.018   1.536 -1.7374 -0.6916 -1.3019
   50MOL   H47328011   4.933   7.516   1.535 -0.6873  0.7712  0.2025
   50MOL   H47428012   5.015   7.266   1.598 -0.1453  0.2283 -0.9016
   50MOL   H47528013   5.095   7.320   1.734 -0.6102 -2.0946  0.9400
   50MOL   H47628014   5.153   7.113   1.642 -1.8904  0.9689 -0.2564
   50MOL   H47728015   5.301   7.218   1.644  0.1024  0.3659 -0.0405
   50MOL   O47828016   4.998   7.568   1.725 -0.0751  0.0714  0.8483
   50MOL   C47928017   5.090   0.032   1.781 -0.0748 -0.1196  0.2982
   50MOL   C48028018   5.084   0.019   1.935 -0.0703 -0.0455  0.2451
   50MOL   O48128019   4.954   0.062   1.965  0.0302 -0.3357  0.4436
   50MOL   C48228020   5.111   7.505   1.980 -0.9256 -0.3067  0.3857
   50MOL   C48328021   5.081   7.495   2.133  0.2686  0.0432 -0.0949
   50MOL   C48428022   5.103   7.356   2.192 -0.5653 -1.3631  0.1072
   50MOL   O48528023   5.067   7.362   2.325  0.5560  0.2351 -0.6966
   50MOL   C48628024   5.251   7.332   2.162  0.8224  0.1405  0.1786
   50MOL   C48728025   5.284   7.193   2.206 -0.1818 -0.4831 -0.3440
   50MOL   C48828026   5.284   7.338   2.009 -0.3856  0.1583  0.2786
   50MOL   C48928027   5.257   7.471   1.955  0.1144  0.3797  0.0426
   50MOL   H49028028   5.047   0.127   1.750 -1.9113 -1.5810 -1.8635
   50MOL   H49128029   5.193   0.023   1.747  0.1269 -0.1710  0.9206
   50MOL   H49228030   5.144   0.090   1.992  0.7848 -0.6276  0.0898
   50MOL   H49328031   4.889   0.009   1.922 -0.1729  0.1251  0.1836
   50MOL   H49428032   5.062   7.430   1.917  2.2097 -0.2479 -2.2846
   50MOL   H49528033   5.134   7.573   2.188 -1.0658 -0.5835  2.1240
   50MOL   H49628034   4.972   7.504   2.135  0.1532 -0.9289 -1.2645
   50MOL   H49728035   5.045   7.282   2.136  0.2661 -1.2978 -0.8588
   50MOL   H49828036   4.976   7.336   2.329  0.2155  1.3318 -0.9585
   50MOL   H49928037   5.305   7.414   2.211  0.2227  1.5193 -1.4083
   50MOL   H50028038   5.263   7.193   2.313 -2.2859  2.1300 -0.6914
   50MOL   H50128039   5.205   7.128   2.170 -1.6849  1.2129 -0.2230
   50MOL   H50228040   5.224   7.263   1.957  1.8462 -0.8855 -0.8367
   50MOL   H50328041   5.389   7.316   1.993 -0.5005 -1.3776  1.4439
   50MOL   H50428042   5.268   7.473   1.846  1.4917  0.9894  0.1845
   50MOL   H50528043   5.325   7.540   2.004  0.5197 -0.3919  0.5769
   50MOL   O50628044   5.417   7.155   2.175 -0.3115 -0.4228 -0.1645
   50MOL   C50728045   5.470   7.082   2.281 -0.2238 -0.3666  0.9069
   50MOL   C50828046   5.608   7.024   2.250 -0.0358 -0.8663 -0.2789
   50MOL   O50928047   5.703   7.124   2.255 -0.1835  0.0291  0.6754
   50MOL   C51028048   5.643   6.906   2.346 -0.2703  0.0567  0.7453
   50MOL   C51128049   5.676   6.951   2.492  0.0921  0.3211 -0.8785
   50MOL   C51228050   5.694   6.821   2.582 -0.5913 -0.5839  0.2953
   50MOL   O51328051   5.711   6.856   2.722 -0.7341 -0.1683  0.4629
   50MOL   C51428052   5.809   6.736   2.523 -0.4562  0.3585 -0.7345
   50MOL   C51528053   5.826   6.605   2.603 -0.3536 -0.6107  0.5122
   50MOL   C51628054   5.780   6.705   2.377 -0.1758 -0.0134 -0.3874
   50MOL   C51728055   5.761   6.831   2.292  0.2431 -0.0909  0.1389
   50MOL   H51828056   5.404   6.999   2.302 -0.6168 -0.1113  0.6773
   50MOL   H51928057   5.466   7.147   2.368 -1.3654 -0.3946  0.8753
   50MOL   H52028058   5.612   6.988   2.147 -1.6594 -1.5223 -0.1270
   50MOL   H52128059   5.667   7.185   2.318 -1.1552  1.2468 -1.0196
   50MOL   H52228060   5.561   6.835   2.346 -1.2505  1.1255 -1.4986
   50MOL   H52328061   5.767   7.012   2.489  0.9197 -0.8022  0.4357
   50MOL   H52428062   5.597   7.009   2.539 -0.5119  0.1783 -1.7278
   50MOL   H52528063   5.605   6.759   2.572 -0.1790 -1.0977 -0.2582
   50MOL   H52628064   5.749   6.784   2.770 -0.7026 -0.1624  0.4455
   50MOL   H52728065   5.900   6.791   2.543 -0.2946 -0.1956  0.0591
   50MOL   H52828066   5.845   6.629   2.708 -4.2984 -1.7642  1.5690
   50MOL   H52928067   5.726   6.562   2.604 -0.7744  0.3157 -1.0443
   50MOL   H53028068   5.690   6.644   2.369 -0.4397  0.1420  1.1935
   50MOL   H53128069   5.860   6.644   2.335  0.8687 -0.0157  1.5453
   50MOL   H53228070   5.750   6.806   2.187 -2.2799 -1.4715  0.6837
   50MOL   H53328071   5.846   6.899   2.286 -0.2552  0.5338  0.0641
   50MOL   O53428072   5.908   6.514   2.543  0.9028  0.2823 -0.1311
   50MOL   C53528073   6.045   6.518   2.588 -0.4065 -0.1671 -0.7263
   50MOL   C53628074   6.102   6.383   2.554 -0.2439 -0.4979 -0.6229
   50MOL   O53728075   6.127   6.373   2.414  0.3988  0.5313  0.1089
   50MOL   C53828076   6.236   6.343   2.631  0.4881 -0.1664 -0.6300
   50MOL   C53928077   6.269   6.191   2.606  0.0664  0.0053  0.4018
   50MOL   C54028078   6.408   6.155   2.661  0.3987 -0.1147  0.2631
   50MOL   O54128079   6.412   6.022   2.635  0.1693 -0.1940 -0.0642
   50MOL   C54228080   6.429   6.186   2.810  0.4376 -0.1411 -0.2454
   50MOL   C54328081   6.580   6.165   2.850  0.1470  0.0122 -0.1288
   50MOL   C54428082   6.378   6.333   2.841  0.1209 -0.5689 -0.2296
   50MOL   C54528083   6.245   6.380   2.781 -0.2518 -0.2431 -0.3354
   50MOL   H54628084   6.043   6.546   2.693 -2.1588 -0.9821 -0.5297
   50MOL   H54728085   6.109   6.587   2.533 -0.4963  1.1539  0.7961
   50MOL   H54828086   6.031   6.303   2.575 -2.2121  1.5596  0.8329
   50MOL   H54928087   6.055   6.412   2.367  0.5105 -0.9017 -1.2820
   50MOL   H55028088   6.321   6.396   2.588  0.4223  0.4775  0.0128
   50MOL   H55128089   6.201   6.123   2.657 -0.2302 -0.2286 -0.2876
   50MOL   H55228090   6.259   6.168   2.499  2.1628  2.1127 -0.2803
   50MOL   H55328091   6.478   6.216   2.604  1.4732  2.4244  4.1238
   50MOL   H55428092   6.346   5.979   2.687  1.6044 -1.2297  0.9759
   50MOL   H55528093   6.362   6.118   2.862  2.1375 -1.3196  0.4787
   50MOL   H55628094   6.652   6.225   2.794  2.3373 -1.7722  0.7155
   50MOL   H55728095   6.602   6.192   2.953  0.9266  0.9616 -0.5306
   50MOL   H55828096   6.464   6.395   2.816 -0.5701 -1.1188 -4.3156
   50MOL   H55928097   6.377   6.342   2.950 -0.6448  1.5409 -0.3843
   50MOL   H56028098   6.224   6.485   2.801 -1.9580 -0.7950  0.9386
   50MOL   H56128099   6.159   6.336   2.832 -0.1550  0.3466  0.3534
   50MOL   H56228100   6.600   6.058   2.838  1.1706  0.1698  0.1301
   51MOL     O128101   5.033   6.414   0.843  0.1219 -0.0582  0.0291
   51MOL     C228102   5.073   6.539   0.778 -0.1531 -0.2067 -0.6067
   51MOL     C328103   5.117   6.645   0.879 -0.2534  0.1906  0.3593
   51MOL     O428104   5.243   6.620   0.932 -0.4135  0.3921  0.0966
   51MOL     C528105   5.118   6.796   0.830 -0.4906  0.4633 -0.0723
   51MOL     C628106   5.149   6.900   0.946 -0.4862  0.3723  0.6303
   51MOL     C728107   5.157   7.044   0.904  0.5751  0.0407 -0.5373
   51MOL     O828108   5.168   7.115   1.023  0.3673  0.0138  0.0367
   51MOL     C928109   5.033   7.102   0.826 -0.1449  0.2256 -0.2421
   51MOL    C1028110   5.058   7.234   0.753 -0.8870 -0.5384  0.0562
   51MOL    C1128111   4.977   7.000   0.725  0.2687 -0.1677  0.4710
   51MOL    C1228112   4.979   6.850   0.772  0.6450  0.1179  0.0062
   51MOL    H1328113   4.973   6.568   0.746  0.0853 -0.7721 -1.8599
   51MOL    H1428114   5.146   6.520   0.699  0.1222  0.2490 -0.4664
   51MOL    H1528115   5.040   6.650   0.957  0.3470 -0.9694  1.0477
   51MOL    H1628116   5.228   6.535   0.972 -0.4384  0.8779  1.1244
   51MOL    H1728117   5.196   6.804   0.754  1.6163 -0.5363  1.9328
   51MOL    H1828118   5.069   6.890   1.020 -0.8175 -1.0589  0.1087
   51MOL    H1928119   5.241   6.873   0.996  0.6407  1.9296 -0.5629
   51MOL    H2028120   5.244   7.061   0.842  1.9654  0.4954  1.4795
   51MOL    H2128121   5.257   7.109   1.053  0.2220 -0.9033  0.2982
   51MOL    H2228122   4.958   7.108   0.905  0.6709  2.8752  0.3965
   51MOL    H2328123   5.143   7.227   0.685 -1.6486  0.8431 -1.0768
   51MOL    H2428124   4.983   7.264   0.681 -3.5135  0.1082  2.9455
   51MOL    H2528125   5.041   7.006   0.637  2.7520 -1.6299  2.1017
   51MOL    H2628126   4.877   7.025   0.690  0.2216 -1.0599 -0.0449
   51MOL    H2728127   4.964   6.786   0.685  1.7634  2.5324 -2.0164
   51MOL    H2828128   4.890   6.833   0.832 -0.4234  0.2971 -1.4931
   51MOL    H2928129   4.995   6.360   0.776 -0.6939 -0.2339  0.6190
   51MOL    O3028130   5.068   7.348   0.835  0.3700 -0.0878 -0.1183
   51MOL    C3128131   5.201   7.391   0.848  0.0153 -0.2960  0.7818
   51MOL    C3228132   5.209   7.505   0.954 -0.8323 -0.3431  0.0519
   51MOL    O3328133   5.165   7.443   1.071 -0.0787 -0.1108 -0.2105
   51MOL    C3428134   5.346   7.560   0.971  0.4466 -0.3922 -0.4025
   51MOL    C3528135   5.395   0.012   0.853 -0.0986 -0.8697  0.3236
   51MOL    C3628136   5.531   0.080   0.871  0.8102 -0.3796 -0.0461
   51MOL    O3728137   5.567   0.148   0.758  0.4128 -0.4286 -0.2762
   51MOL    C3828138   5.642   7.607   0.899  0.6024  0.1290 -0.1988
   51MOL    C3928139   5.785   0.045   0.922  0.3961 -0.1620 -0.5283
   51MOL    C4028140   5.600   7.518   1.017  0.1029  0.1303  0.3453
   51MOL    C4128141   5.457   7.453   1.009 -0.6000  0.4093  0.2336
   51MOL    H4228142   5.244   7.419   0.753 -1.6883  2.8359  0.8703
   51MOL    H4328143   5.255   7.297   0.865  1.5612 -0.2926 -3.6877
   51MOL    H4428144   5.148   7.594   0.936  1.3864  1.1449 -0.2051
   51MOL    H4528145   5.123   7.365   1.037  1.0353 -0.3421 -1.1071
   51MOL    H4628146   5.341   0.005   1.050  0.9575 -1.8841  1.0500
   51MOL    H4728147   5.412   7.569   0.773 -0.4173 -0.6252  0.0356
   51MOL    H4828148   5.313   0.071   0.812  2.4002 -0.0361 -3.6844
   51MOL    H4928149   5.532   0.150   0.954  0.5045 -1.2547  0.7057
   51MOL    H5028150   5.638   0.096   0.722 -0.1222 -1.0305 -0.4702
   51MOL    H5128151   5.659   7.544   0.811  1.3674  0.0685 -0.0152
   51MOL    H5228152   5.808   0.118   0.845 -0.0583  0.3160 -0.2154
   51MOL    H5328153   5.793   0.101   1.016  1.6130  1.8285 -1.7854
   51MOL    H5428154   5.606   7.581   1.105 -0.3152 -0.7552  1.0158
   51MOL    H5528155   5.683   7.450   1.033  0.3506  0.3439 -0.0241
   51MOL    H5628156   5.450   7.395   1.101 -0.6266 -2.2475 -1.3940
   51MOL    H5728157   5.463   7.374   0.934 -1.6791  0.7758 -0.2396
   51MOL    O5828158   5.885   7.572   0.923  0.0162  0.1972  0.4050
   51MOL    C5928159   6.015   7.617   0.886 -1.2088 -0.1341  0.0338
   51MOL    C6028160   6.116   7.516   0.938  0.5378 -0.1162  0.0057
   51MOL    O6128161   6.082   7.393   0.868 -0.0174  0.2322  0.4696
   51MOL    C6228162   6.263   7.558   0.924 -0.8274  0.3539  0.2046
   51MOL    C6328163   6.304   7.565   0.775 -0.4288 -0.8734  0.4437
   51MOL    C6428164   6.453   7.607   0.772  0.3106 -0.2859  0.9455
   51MOL    O6528165   6.497   7.618   0.632  0.6359  0.4553 -0.3661
   51MOL    C6628166   6.546   7.511   0.851  0.0340 -0.1945 -0.2422
   51MOL    C6728167   6.697   7.549   0.843  0.3028  0.0489  0.4392
   51MOL    C6828168   6.498   7.511   0.994  0.8546  0.4204  0.1704
   51MOL    C6928169   6.349   7.459   1.002  0.4465 -0.1015  0.5148
   51MOL    H7028170   6.046   0.080   0.935 -0.6612  0.3542 -1.2002
   51MOL    H7128171   6.021   7.629   0.777  1.1644 -3.3508 -0.2770
   51MOL    H7228172   6.081   7.499   1.039  1.0405  1.2242  0.4183
   51MOL    H7328173   5.991   7.376   0.887 -0.4735  2.1451  0.1684
   51MOL    H7428174   6.278   0.031   0.960 -2.2721  1.3320 -1.8555
   51MOL    H7528175   6.297   7.465   0.732  0.3369 -1.9333  2.7564
   51MOL    H7628176   6.236   7.624   0.713  0.8280  0.5299  0.3836
   51MOL    H7728177   6.463   0.078   0.813  0.1298 -0.3067  1.0399
   51MOL    H7828178   6.498   7.531   0.595 -1.2205  0.1758  0.2071
   51MOL    H7928179   6.531   7.412   0.808 -1.8917 -0.4783  1.0168
   51MOL    H8028180   6.731   7.576   0.742  1.0607 -0.4970  0.5463
   51MOL    H8128181   6.705   0.017   0.890 -3.8071  1.3804 -1.3636
   51MOL    H8228182   6.508   7.606   1.048 -0.1236 -0.2635  1.5625
   51MOL    H8328183   6.562   7.447   1.055  1.3667  0.9259  0.1728
   51MOL    H8428184   6.322   7.449   1.107  1.3679 -0.5749  0.7102
   51MOL    H8528185   6.334   7.361   0.956 -2.1241  0.6074 -0.2355
   51MOL    O8628186   6.773   7.443   0.889 -0.0219  0.1393  0.0496
   51MOL    C8728187   6.911   7.469   0.926  0.0858  0.1975 -1.1305
   51MOL    C8828188   7.003   7.526   0.817  0.5989 -0.2469 -0.7521
   51MOL    O8928189   6.977   7.446   0.699 -0.0105  0.1124 -0.5075
   51MOL    C9028190   7.001   0.041   0.777  0.1204  0.3342 -0.4113
   51MOL    C9128191   7.124   0.065   0.688  0.3257  0.2609  0.3944
   51MOL    C9228192   7.135   0.210   0.644  0.7751  0.8389 -0.3197
   51MOL    O9328193   7.248   0.214   0.552  0.3461  0.4475  0.2205
   51MOL    C9428194   7.142   0.303   0.761  0.3088 -0.0973 -0.4987
   51MOL    C9528195   7.150   0.453   0.729 -0.2570 -0.4855 -0.0534
   51MOL    C9628196   7.025   0.280   0.859 -0.3443 -0.3592  0.5540
   51MOL    C9728197   7.017   0.132   0.904 -0.3354  0.3597  0.1907
   51MOL    H9828198   6.948   7.385   0.984 -1.1761  1.2271  1.2866
   51MOL    H9928199   6.886   7.540   1.006 -0.1027  1.3053 -2.1570
   51MOL   H10028200   7.100   7.523   0.866  1.3233  3.1456 -1.8000
   51MOL   H10128201   6.920   7.376   0.726  0.1295  1.3610  3.2768
   51MOL   H10228202   6.912   0.053   0.715  1.3926 -0.0261 -2.3182
   51MOL   H10328203   7.206   0.031   0.751  0.7613  1.0119  0.2350
   51MOL   H10428204   7.116   7.629   0.601 -0.1229  0.9701 -0.1026
   51MOL   H10528205   7.040   0.236   0.597  1.2013  1.9912 -0.5389
   51MOL   H10628206   7.292   0.297   0.559  0.5144  0.3366  0.4756
   51MOL   H10728207   7.231   0.277   0.817  0.3396  0.7083 -0.1707
   51MOL   H10828208   7.064   0.485   0.671 -1.7370  0.6021  2.6576
   51MOL   H10928209   7.155   0.517   0.817 -2.6933 -0.3926  0.0469
   51MOL   H11028210   6.929   0.308   0.818  1.1059 -1.1483 -3.5711
   51MOL   H11128211   7.054   0.336   0.948  1.7264  0.8174 -0.8107
   51MOL   H11228212   6.933   0.122   0.973  0.0866  0.8209  0.7728
   51MOL   H11328213   7.104   0.116   0.967 -0.2736  2.4491  0.6427
   51MOL   O11428214   7.265   0.469   0.664 -0.1422 -0.0335  0.2129
   51MOL   C11528215   7.277   0.594   0.597 -0.3453  0.3745 -0.9273
   51MOL   C11628216   7.416   0.620   0.555 -0.4296  0.1767 -0.8048
   51MOL   O11728217   7.464   0.517   0.460  0.2590 -0.3681 -0.4196
   51MOL   C11828218   7.443   0.764   0.490  0.3014  0.4154  0.2531
   51MOL   C11928219   7.397   0.775   0.343  0.1567  0.2583 -0.0435
   51MOL   C12028220   7.423   0.911   0.286 -0.6163 -0.7439 -0.4462
   51MOL   O12128221   7.366   0.914   0.155  0.4855  0.2526  0.0773
   51MOL   C12228222   7.568   0.955   0.286 -0.1560 -0.7521  0.0330
   51MOL   C12328223   7.568   1.107   0.251 -0.0199  0.3802  1.1027
   51MOL   C12428224   7.622   0.928   0.425 -0.1753 -0.6457 -0.0212
   51MOL   C12528225   7.591   0.793   0.495  0.4073  0.1061 -0.5211
   51MOL   H12628226   7.234   0.672   0.660 -1.1893 -0.8948  0.1128
   51MOL   H12728227   7.211   0.597   0.510 -3.8539 -0.5516  1.5549
   51MOL   H12828228   7.478   0.623   0.644 -0.6590  3.4981 -0.6922
   51MOL   H12928229   7.529   0.464   0.503  0.4752  0.2580  0.0245
   51MOL   H13028230   7.389   0.835   0.553  0.6782  1.0548 -0.1403
   51MOL   H13128231   7.452   0.699   0.286  1.1330 -0.4931  1.8675
   51MOL   H13228232   7.289   0.766   0.331  0.2592  0.8299 -1.5165
   51MOL   H13328233   7.369   0.989   0.340 -0.2601  0.3076 -1.5729
   51MOL   H13428234   7.275   0.895   0.168  0.2732  0.7998 -0.6069
   51MOL   H13528235   0.001   0.903   0.214  0.4120  1.6939 -1.2824
   51MOL   H13628236   0.044   1.134   0.242  0.1294 -0.4595  0.2964
   51MOL   H13728237   7.513   1.122   0.158 -0.8607 -0.6212  1.4349
   51MOL   H13828238   7.590   1.006   0.493  1.8956  0.9131 -0.7938
   51MOL   H13928239   0.101   0.936   0.426 -0.3361  1.8843  2.1899
   51MOL   H14028240   0.006   0.791   0.594 -2.1578  0.1536  0.6688
   51MOL   H14128241   0.017   0.713   0.447  1.3410  1.3503 -1.5647
   51MOL   O14228242   7.499   1.190   0.342  0.5383  0.6141 -0.3494
   51MOL   C14328243   7.496   1.325   0.310 -0.6545  0.2470 -0.1417
   51MOL   C14428244   7.382   1.397   0.369 -0.1953 -0.5518  0.2447
   51MOL   O14528245   7.263   1.357   0.300  0.1056  0.2307  0.0508
   51MOL   C14628246   7.377   1.385   0.526  0.1585  0.8090 -0.1651
   51MOL   C14728247   7.329   1.251   0.587 -0.6418 -0.2343  0.5194
   51MOL   C14828248   7.335   1.255   0.738  0.5116 -0.2918  0.3607
   51MOL   O14928249   7.286   1.124   0.760 -0.1526  0.0881  0.5115
   51MOL   C15028250   7.239   1.358   0.801  0.3285  0.6478  0.1965
   51MOL   C15128251   7.251   1.376   0.955  0.1215  0.0875 -0.1447
   51MOL   C15228252   7.275   1.493   0.738  0.0285 -0.1709  0.1137
   51MOL   C15328253   7.285   1.493   0.582  0.0624 -0.0125 -0.5046
   51MOL   H15428254   7.512   1.333   0.203 -1.0177  2.3808 -0.0422
   51MOL   H15528255   7.585   1.368   0.354 -0.3673  1.1538 -1.5959
   51MOL   H15628256   7.394   1.502   0.346 -1.1759 -0.5670 -0.3523
   51MOL   H15728257   7.248   1.267   0.325  0.9348  0.2087  0.4758
   51MOL   H15828258   7.476   1.416   0.560  0.7227 -0.8140 -0.3211
   51MOL   H15928259   7.223   1.240   0.562 -0.8777  0.6302  1.1169
   51MOL   H16028260   7.373   1.163   0.541  1.3196  1.9669 -1.9118
   51MOL   H16128261   7.437   1.261   0.778 -0.6447  1.9456  3.1642
   51MOL   H16228262   7.276   1.107   0.852 -2.6237  1.6674  0.5922
   51MOL   H16328263   7.138   1.339   0.766  1.4168 -0.1919 -2.6328
   51MOL   H16428264   7.213   1.290   1.010  0.0598 -0.3206 -0.8288
   51MOL   H16528265   7.355   1.392   0.985  0.6222 -1.0067 -1.2810
   51MOL   H16628266   7.376   1.509   0.777 -0.0414 -1.9370  1.0626
   51MOL   H16728267   7.210   1.576   0.766  1.3804  1.0283 -0.2031
   51MOL   H16828268   7.321   1.592   0.553  0.5706 -0.0663 -0.0618
   51MOL   H16928269   7.192   1.487   0.526 -0.5061  0.5275  0.3750
   51MOL   O17028270   7.169   1.490   0.988 -0.1082  0.0415  0.1142
   51MOL   C17128271   7.185   1.543   1.123  0.1030  0.8346  0.0126
   51MOL   C17228272   7.173   1.691   1.097  0.1589 -0.0477 -0.3582
   51MOL   O17328273   7.054   1.696   1.014  0.1824  0.3814 -0.1395
   51MOL   C17428274   7.165   1.786   1.210  1.0092  0.2925  0.0403
   51MOL   C17528275   7.202   1.931   1.188  0.4559 -0.5068  0.0900
   51MOL   C17628276   7.163   2.021   1.306 -0.0242  0.3306 -0.9588
   51MOL   O17728277   7.205   2.155   1.273 -0.5556  0.6054 -0.0210
   51MOL   C17828278   7.239   1.975   1.432 -0.0899  0.0684 -0.1070
   51MOL   C17928279   7.199   2.064   1.548  0.7998  0.1374  1.0461
   51MOL   C18028280   7.203   1.830   1.455  0.6516 -0.3803 -0.8086
   51MOL   C18128281   7.235   1.741   1.335  0.0193 -0.7966 -0.0702
   51MOL   H18228282   7.279   1.505   1.163 -0.8614 -0.0907  1.4276
   51MOL   H18328283   7.103   1.506   1.184 -1.3773  0.5502 -2.0917
   51MOL   H18428284   7.258   1.714   1.032  0.2059  1.0143  0.0714
   51MOL   H18528285   7.051   1.604   0.994 -1.8255  0.4205 -0.1400
   51MOL   H18628286   7.063   1.783   1.246  1.1274 -2.8920  0.2933
   51MOL   H18728287   7.309   1.934   1.169  0.2841 -3.0725 -1.5136
   51MOL   H18828288   7.145   1.977   1.106  0.5181  0.6449  0.6806
   51MOL   H18928289   7.055   2.026   1.309  0.0718  3.3591 -0.2677
   51MOL   H19028290   7.139   2.222   1.271 -1.5802 -0.4211 -0.5879
   51MOL   H19128291   7.347   1.977   1.415 -0.0336  0.2804  0.2542
   51MOL   H19228292   7.277   2.139   1.538 -0.1905  1.1274  0.7026
   51MOL   H19328293   7.098   2.105   1.542  0.5231 -0.4448  1.5783
   51MOL   H19428294   7.096   1.817   1.470  0.2466  1.5934 -1.7302
   51MOL   H19528295   7.250   1.789   1.544  1.1795 -1.1570 -1.4354
   51MOL   H19628296   7.192   1.644   1.358  1.9435 -2.1781 -2.2126
   51MOL   H19728297   7.343   1.727   1.330  0.1910  0.4620 -0.0830
   51MOL   O19828298   7.225   1.996   1.671 -0.0588  0.4960  0.3195
   51MOL   C19928299   7.231   2.097   1.774  0.1415  0.2811 -0.4895
   51MOL   C20028300   7.250   2.013   1.907 -0.1155 -0.0114  0.2863
   51MOL   O20128301   7.384   1.967   1.898  0.1466  0.0267 -0.1183
   51MOL   C20228302   7.229   2.084   2.042  0.4281  0.2647 -1.0613
   51MOL   C20328303   7.080   2.113   2.088 -0.3759  0.4805 -0.0084
   51MOL   C20428304   7.068   2.166   2.233  0.3003  0.7677  0.4364
   51MOL   O20528305   6.932   2.203   2.247 -0.5960 -0.4686  0.4815
   51MOL   C20628306   7.164   2.285   2.264  0.1192  0.4143 -0.2271
   51MOL   C20728307   7.154   2.345   2.409  0.6136 -0.4049  0.3072
   51MOL   C20828308   7.307   2.252   2.229  0.0618 -0.5304 -0.4808
   51MOL   C20928309   7.319   2.202   2.085  0.2506 -0.0407 -0.2951
   51MOL   H21028310   7.135   2.149   1.772 -0.8477 -1.5372 -0.8914
   51MOL   H21128311   7.315   2.164   1.753 -0.9962  1.8329 -0.2065
   51MOL   H21228312   7.181   1.928   1.899 -1.9352  1.6434 -2.3713
   51MOL   H21328313   7.388   1.924   1.814 -2.0987  1.2673 -0.9035
   51MOL   H21428314   7.255   2.004   2.110  1.0229 -1.2936 -3.0667
   51MOL   H21528315   7.039   2.187   2.020 -1.3241  0.5508  0.6285
   51MOL   H21628316   7.020   2.026   2.061  0.6350 -0.1909 -0.1033
   51MOL   H21728317   7.090   2.083   2.301 -0.4237  1.5291  1.6085
   51MOL   H21828318   6.938   2.264   2.319  0.0336 -0.2394  0.2362
   51MOL   H21928319   7.131   2.361   2.194  0.1842 -0.6515 -1.4415
   51MOL   H22028320   7.128   2.272   2.486 -0.0237 -1.6866 -1.0879
   51MOL   H22128321   7.250   2.389   2.433  1.8490 -1.8548 -1.7698
   51MOL   H22228322   7.358   2.183   2.296 -0.9896  0.2216  1.1231
   51MOL   H22328323   7.369   2.341   2.238  0.1169 -0.7407  1.3703
   51MOL   H22428324   7.426   2.189   2.068  0.3353  0.5571 -0.2345
   51MOL   H22528325   7.294   2.286   2.020  0.7443 -0.1245 -0.5974
   51MOL   O22628326   7.052   2.448   2.412  0.0654 -0.1002  0.1345
   51MOL   C22728327   6.991   2.465   2.541  0.1705  0.2895  1.0865
   51MOL   C22828328   6.884   2.575   2.544  0.1333  1.0005  0.0063
   51MOL   O22928329   6.952   2.697   2.569 -0.3706  0.1105  0.3429
   51MOL   C23028330   6.772   2.570   2.433  0.5978  0.5160 -0.3326
   51MOL   C23128331   6.690   2.442   2.433  0.0066 -0.1864  0.2838
   51MOL   C23228332   6.571   2.443   2.332 -0.0324 -0.2387 -0.0294
   51MOL   O23328333   6.522   2.309   2.336  0.2030 -0.0944  0.5194
   51MOL   C23428334   6.619   2.476   2.190  0.0748  1.1151  0.3037
   51MOL   C23528335   6.497   2.503   2.099  0.2695  0.6897  0.3608
   51MOL   C23628336   6.686   2.615   2.198  0.0154 -0.3103 -0.3717
   51MOL   C23728337   6.812   2.607   2.294  0.4684 -0.3290  0.8147
   51MOL   H23828338   7.067   2.487   2.616  1.0008 -0.9857  0.6311
   51MOL   H23928339   6.944   2.369   2.564 -2.2804  1.1034 -0.2594
   51MOL   H24028340   6.827   2.571   2.637 -0.0308 -0.7536 -0.1483
   51MOL   H24128341   7.016   2.705   2.500 -0.1422  0.7626  0.6287
   51MOL   H24228342   6.712   2.654   2.468  0.2813  0.4394 -0.6888
   51MOL   H24328343   6.764   2.365   2.412  1.2401  0.9567  0.3580
   51MOL   H24428344   6.660   2.411   2.533  1.4276 -3.6626 -0.2757
   51MOL   H24528345   6.494   2.517   2.357  0.5509  0.1739  0.5872
   51MOL   H24628346   6.460   2.305   2.265  1.0951  1.8347 -0.4301
   51MOL   H24728347   6.685   2.403   2.144 -0.7847  0.7724 -0.3998
   51MOL   H24828348   6.437   2.585   2.139  1.2669  1.0513  1.1477
   51MOL   H24928349   6.527   2.535   2.000 -1.2932  2.0545  0.3137
   51MOL   H25028350   6.613   2.690   2.230  1.7290  0.2860  2.2780
   51MOL   H25128351   6.717   2.655   2.101 -0.2736 -1.0517 -0.7717
   51MOL   H25228352   6.882   2.689   2.310  1.0913 -0.3861 -1.5251
   51MOL   H25328353   6.884   2.541   2.247  1.5890  0.4383  1.4321
   51MOL   O25428354   6.416   2.390   2.080  0.6527  0.5936  0.0209
   51MOL   C25528355   6.462   2.291   1.993  0.1237  0.0945  0.8941
   51MOL   C25628356   6.333   2.235   1.921 -0.2978  0.1080  0.2351
   51MOL   O25728357   6.372   2.142   1.819 -0.7208  0.1778 -0.0431
   51MOL   C25828358   6.238   2.173   2.026  0.6962 -0.5213 -0.4435
   51MOL   C25928359   6.303   2.080   2.133 -0.0498 -0.1786 -0.3136
   51MOL   C26028360   6.198   2.024   2.234  0.7061  0.1323  0.2743
   51MOL   O26128361   6.268   1.930   2.319  0.0298 -0.1450 -0.0308
   51MOL   C26228362   6.078   1.950   2.156  0.1910 -0.5726  0.1865
   51MOL   C26328363   5.973   1.885   2.243  0.3726 -0.9797 -0.4347
   51MOL   C26428364   6.019   2.051   2.053 -0.0706  0.2511 -0.1033
   51MOL   C26528365   6.114   2.107   1.958  0.3460 -0.0128 -0.2183
   51MOL   H26628366   6.523   2.217   2.044 -0.7697 -1.1583  0.1802
   51MOL   H26728367   6.528   2.333   1.917  0.1186 -2.6586 -0.7237
   51MOL   H26828368   6.286   2.319   1.871 -1.1257 -0.3178  0.2809
   51MOL   H26928369   6.361   2.186   1.736 -2.0709 -0.1499 -0.0595
   51MOL   H27028370   6.199   2.255   2.087  0.4739 -2.7586  2.5122
   51MOL   H27128371   6.349   1.989   2.093  0.4916 -0.1839  0.3225
   51MOL   H27228372   6.381   2.128   2.191  1.9560 -1.7951 -1.6112
   51MOL   H27328373   6.152   2.109   2.284 -1.8839  0.1120 -1.9363
   51MOL   H27428374   6.320   1.982   2.380 -1.7592  0.4598  1.0395
   51MOL   H27528375   6.128   1.869   2.102 -1.7775 -1.0017 -1.0402
   51MOL   H27628376   6.012   1.844   2.336  0.3584 -0.7565 -0.3289
   51MOL   H27728377   5.895   1.959   2.259 -0.6692 -1.7650 -1.8439
   51MOL   H27828378   5.968   2.130   2.109  1.2513  0.5279  0.7424
   51MOL   H27928379   5.937   1.999   2.005 -0.5479  0.7064  0.2113
   51MOL   H28028380   6.059   2.184   1.904  0.5564 -0.0426 -0.4758
   51MOL   H28128381   6.137   2.031   1.884 -0.2605  1.4996 -2.0133
   51MOL   O28228382   5.903   1.790   2.167  0.3241 -0.0289 -0.0375
   51MOL   C28328383   5.822   1.699   2.240 -0.0659  0.6942 -0.2587
   51MOL   C28428384   5.707   1.762   2.309 -0.1967  0.7365  0.0593
   51MOL   O28528385   5.588   1.689   2.299 -0.1825 -0.3437  0.8606
   51MOL   C28628386   5.725   1.814   2.460 -0.3058  0.3841  0.9567
   51MOL   C28728387   5.712   1.701   2.563 -0.0368 -0.0967  0.4344
   51MOL   C28828388   5.739   1.749   2.706  0.9419 -0.2672  0.0749
   51MOL   O28928389   5.714   1.632   2.791  0.1775 -0.6082  0.7087
   51MOL   C29028390   5.653   1.872   2.748  0.0944  0.4331 -0.9417
   51MOL   C29128391   5.701   1.933   2.884  1.2921  0.7241 -0.4298
   51MOL   C29228392   5.629   1.974   2.633 -0.1497 -0.1970 -0.0983
   51MOL   C29328393   5.611   1.915   2.490 -1.1553  0.5896 -0.6361
   51MOL   H29428394   5.870   1.632   2.311 -0.6348  0.7368  0.1674
   51MOL   H29528395   5.777   1.641   2.159  2.4430  1.0707 -1.9994
   51MOL   H29628396   5.685   1.850   2.250 -0.8029  0.3076 -0.3649
   51MOL   H29728397   5.603   1.606   2.342 -0.6817 -0.9705 -0.1502
   51MOL   H29828398   5.820   1.868   2.464 -0.3069  0.5574 -1.2872
   51MOL   H29928399   5.609   1.665   2.561  0.0845 -0.3698 -1.4324
   51MOL   H30028400   5.785   1.623   2.538  1.0156  1.1515 -0.4501
   51MOL   H30128401   5.843   1.774   2.727  0.6702  0.6568  0.3533
   51MOL   H30228402   5.773   1.647   2.862 -0.9674  0.1010  1.5255
   51MOL   H30328403   5.561   1.819   2.771 -0.3022  0.5386 -2.2276
   51MOL   H30428404   5.613   1.981   2.929 -2.8928 -3.9704 -3.1287
   51MOL   H30528405   5.734   1.862   2.960  0.7465  2.5060  1.5460
   51MOL   H30628406   5.713   2.043   2.637 -0.0263 -0.2537 -1.6924
   51MOL   H30728407   5.540   2.033   2.655 -0.2271  0.9588 -3.2673
   51MOL   H30828408   5.620   1.995   2.416  1.9366  0.2843 -0.6600
   51MOL   H30928409   5.513   1.869   2.475 -1.2154  0.7422 -0.7117
   51MOL   O31028410   5.794   2.047   2.883  0.4132 -0.0753  0.0592
   51MOL   C31128411   5.930   1.998   2.857 -1.0776 -0.2043  0.3774
   51MOL   C31228412   6.030   2.102   2.902 -0.0947  0.0411  0.0917
   51MOL   O31328413   6.166   2.051   2.930 -0.0027 -0.0740 -0.6367
   51MOL   C31428414   6.049   2.222   2.809  0.8140  0.3446 -0.2269
   51MOL   C31528415   6.124   2.206   2.674  0.5219 -0.1160 -0.5570
   51MOL   C31628416   6.102   2.323   2.581  0.5073 -0.2256 -0.3129
   51MOL   O31728417   6.150   2.304   2.443 -0.4542  0.2487  0.4481
   51MOL   C31828418   6.163   2.450   2.648  0.5252  0.2489 -0.0211
   51MOL   C31928419   6.138   2.579   2.555  0.1676  1.2557  0.5965
   51MOL   C32028420   6.114   2.474   2.792 -0.0305  0.3835  0.3557
   51MOL   C32128421   6.114   2.348   2.879 -0.2713  0.2773  0.3393
   51MOL   H32228422   5.940   1.974   2.751 -1.5535  1.6083 -0.0894
   51MOL   H32328423   5.948   1.903   2.908 -0.2543 -0.5589 -0.5558
   51MOL   H32428424   5.989   2.138   2.996  0.8908  0.2384  0.4534
   51MOL   H32528425   6.179   2.059   3.023  3.6127 -0.2494 -1.0794
   51MOL   H32628426   5.954   2.263   2.774  1.2347  0.6243 -1.0615
   51MOL   H32728427   6.231   2.189   2.684  1.0278  3.3257  0.6746
   51MOL   H32828428   6.090   2.122   2.614  1.5191 -0.7546 -0.2390
   51MOL   H32928429   5.995   2.340   2.567  0.9376  0.8880 -2.5247
   51MOL   H33028430   6.238   2.269   2.443 -1.0182 -1.2310 -1.4651
   51MOL   H33128431   6.269   2.427   2.646  0.9410  2.1478 -0.5655
   51MOL   H33228432   6.187   2.557   2.460 -1.6783  3.1097 -0.8155
   51MOL   H33328433   6.030   2.587   2.541  0.6039  1.5172 -3.0941
   51MOL   H33428434   6.015   2.520   2.788 -0.4743 -0.5251  0.8710
   51MOL   H33528435   6.175   2.550   2.840  1.9592 -0.8621 -0.1459
   51MOL   H33628436   6.060   2.369   2.971 -0.3001  4.2305 -0.4843
   51MOL   H33728437   6.211   2.323   2.921 -0.4914 -0.0844  0.6311
   51MOL   O33828438   6.194   2.686   2.620  0.2785  0.1538 -0.0658
   51MOL   C33928439   6.206   2.800   2.532 -0.1223 -0.3768 -0.5451
   51MOL   C34028440   6.260   2.908   2.620  0.6234 -0.2185 -0.2313
   51MOL   O34128441   6.159   2.925   2.722  0.1697 -0.2080 -0.5472
   51MOL   C34228442   6.389   2.876   2.691 -1.0771  0.3644  0.7939
   51MOL   C34328443   6.408   2.982   2.805  0.3809 -0.0803  0.3796
   51MOL   C34428444   6.546   2.963   2.879  0.1933  0.4305 -0.0408
   51MOL   O34528445   6.556   3.066   2.974  0.2300  0.1232  0.5204
   51MOL   C34628446   6.654   2.968   2.778 -0.9047  0.4675  0.2071
   51MOL   C34728447   6.800   2.959   2.837  0.2179  0.0104  0.1773
   51MOL   C34828448   6.641   2.864   2.666  0.0037 -0.2513 -0.3300
   51MOL   C34928449   6.506   2.876   2.591 -0.2508 -1.0193 -0.6374
   51MOL   H35028450   6.115   2.830   2.479 -0.0491  0.4220 -0.2311
   51MOL   H35128451   6.287   2.781   2.462  0.7282  0.7501  0.1057
   51MOL   H35228452   6.277   2.998   2.561  2.2536 -1.7930 -2.2427
   51MOL   H35328453   6.143   2.835   2.747 -0.3500 -0.6045 -2.2428
   51MOL   H35428454   6.381   2.781   2.744 -2.0135  0.5074  0.9294
   51MOL   H35528455   6.408   3.083   2.765  2.2955  0.1305  0.8662
   51MOL   H35628456   6.331   2.970   2.881 -0.8959 -0.5583 -0.9497
   51MOL   H35728457   6.550   2.867   2.931 -2.1053  0.0207 -0.5476
   51MOL   H35828458   6.586   3.025   3.054  1.3579 -0.0688 -0.0005
   51MOL   H35928459   6.643   3.067   2.736  0.4301  0.2747 -0.6441
   51MOL   H36028460   6.886   2.990   2.778 -0.6962  0.3828 -0.9833
   51MOL   H36128461   6.800   3.032   2.918 -1.5644 -0.1336  0.3357
   51MOL   H36228462   6.642   2.765   2.711  3.6938 -1.2840 -2.4790
   51MOL   H36328463   6.731   2.872   2.604 -0.9757  0.6654 -1.6821
   51MOL   H36428464   6.499   2.790   2.525 -1.3802 -1.5803  0.2052
   51MOL   H36528465   6.509   2.969   2.534  1.3232  0.1656  1.3039
   51MOL   O36628466   6.816   2.836   2.904 -0.1812  0.0073 -0.3838
   51MOL   C36728467   6.952   2.804   2.909 -0.7340 -0.4070  0.0649
   51MOL   C36828468   6.975   2.676   2.992  0.1196 -0.3481  0.2279
   51MOL   O36928469   6.914   2.567   2.913 -0.4793  0.5373  0.0916
   51MOL   C37028470   7.123   2.641   3.010  0.0247  0.3715  0.5399
   51MOL   C37128471   7.194   2.743   3.104 -0.1764 -0.6487 -0.2843
   51MOL   C37228472   7.335   2.689   3.145 -0.4966  0.2561 -0.0994
   51MOL   O37328473   7.397   2.790   3.230  0.2236  0.1016  0.1920
   51MOL   C37428474   7.421   2.656   3.020 -0.4480  0.4462 -0.0179
   51MOL   C37528475   7.557   2.594   3.055  0.4074 -0.1976 -0.3343
   51MOL   C37628476   7.345   2.562   2.923 -0.0280  0.8490 -0.3472
   51MOL   C37728477   7.203   2.611   2.884  0.2657 -0.1857  0.3398
   51MOL   H37828478   7.002   2.875   2.975 -1.3811 -0.5405  0.6921
   51MOL   H37928479   7.004   2.785   2.815  1.3936 -0.6192  1.2571
   51MOL   H38028480   6.921   2.676   3.086 -0.7295  1.6716 -0.2270
   51MOL   H38128481   6.822   2.585   2.899 -0.9182 -0.9509  0.9441
   51MOL   H38228482   7.129   2.549   3.067  1.3008 -1.7116 -2.8523
   51MOL   H38328483   7.196   2.844   3.063 -0.5815  0.0661  1.4579
   51MOL   H38428484   7.138   2.745   3.197  0.4798 -0.7249  0.1135
   51MOL   H38528485   7.316   2.603   3.209 -1.5645  1.6039  1.4238
   51MOL   H38628486   7.366   2.774   3.318 -2.0020 -0.8533 -0.7091
   51MOL   H38728487   7.450   2.748   2.969  1.4981  0.3568  0.8659
   51MOL   H38828488   7.601   2.646   3.140 -0.1034 -0.1368 -0.1031
   51MOL   H38928489   7.535   2.495   3.096  1.7824  0.0699  1.0496
   51MOL   H39028490   7.326   2.463   2.964  0.5677  0.1200 -1.7772
   51MOL   H39128491   7.411   2.541   2.838  0.2659 -0.0418  0.0896
   51MOL   H39228492   7.151   2.532   2.829  2.3351 -0.9983 -0.5208
   51MOL   H39328493   7.203   2.700   2.821 -2.4618 -0.8653 -0.7132
   51MOL   O39428494   0.015   2.574   2.942  0.5559 -0.0340 -0.3547
   51MOL   C39528495   0.099   2.685   2.904  0.4465  0.4999 -0.8268
   51MOL   C39628496   0.191   2.651   2.783  0.7861  0.0314  0.6628
   51MOL   O39728497   0.258   2.535   2.819 -0.4324 -0.1766  0.5164
   51MOL   C39828498   0.131   2.641   2.633 -0.2192  0.1137 -0.5646
   51MOL   C39928499   0.000   2.557   2.618 -0.0766 -0.4085  0.3290
   51MOL   C40028500   7.592   2.541   2.468  0.1311 -0.0268  0.2555
   51MOL   O40128501   7.494   2.433   2.457  0.0053  0.1964  0.4422
   51MOL   C40228502   0.079   2.510   2.367 -0.2955  0.5048  0.1363
   51MOL   C40328503   0.023   2.526   2.224 -0.3610 -0.4314  0.6960
   51MOL   C40428504   0.203   2.598   2.397  0.9382  0.1982 -0.0809
   51MOL   C40528505   0.246   2.603   2.543  0.4472  1.1319  0.1336
   51MOL   H40628506   0.152   2.715   2.994 -1.6402 -0.9071  0.9347
   51MOL   H40728507   0.039   2.773   2.880 -2.0923 -0.6418  1.1223
   51MOL   H40828508   0.262   2.734   2.779  0.4410  0.3683  1.5208
   51MOL   H40928509   0.195   2.473   2.852 -0.8141 -0.4196 -0.6519
   51MOL   H41028510   0.094   2.740   2.606 -1.3955  0.2357  1.3753
   51MOL   H41128511   0.003   2.461   2.669  1.0377 -0.5231  0.0561
   51MOL   H41228512   7.545   2.611   2.661  0.9537  2.0293 -0.5922
   51MOL   H41328513   7.544   2.629   2.425  0.6674  0.3991  0.5337
   51MOL   H41428514   7.534   2.349   2.472  1.6583  1.0271  0.8631
   51MOL   H41528515   0.130   2.415   2.384  2.2949  1.9859  0.8713
   51MOL   H41628516   7.576   2.450   2.203 -1.5496  0.3965  1.9283
   51MOL   H41728517   7.599   2.621   2.217  0.8956  0.2623  0.4101
   51MOL   H41828518   0.172   2.700   2.373 -3.0497 -1.4845 -2.5746
   51MOL   H41928519   0.287   2.556   2.342 -0.0740 -2.2142  0.1449
   51MOL   H42028520   0.323   2.680   2.541 -1.2025  2.7788 -1.9080
   51MOL   H42128521   0.282   2.508   2.583 -0.2170  1.3809  1.3529
   51MOL   O42228522   0.125   2.536   2.128 -0.1155  0.0068  0.6448
   51MOL   C42328523   0.076   2.559   1.991 -0.9295 -0.0285  0.3666
   51MOL   C42428524   0.177   2.629   1.889 -0.8643  0.6755 -0.0523
   51MOL   O42528525   0.124   2.632   1.752 -0.4927  0.5874  0.0961
   51MOL   C42628526   0.241   2.763   1.932  0.7556  0.9477 -0.1495
   51MOL   C42728527   0.142   2.882   1.916 -0.1529  0.0643  0.1856
   51MOL   C42828528   0.201   3.009   1.976  0.5388 -0.0292 -1.1254
   51MOL   O42928529   0.112   3.110   1.947 -0.1700  0.0066  0.1447
   51MOL   C43028530   0.341   3.046   1.927  0.3136  0.1406 -0.2106
   51MOL   C43128531   0.405   3.180   1.999 -0.0860  0.1043  0.4336
   51MOL   C43228532   0.441   2.924   1.935  0.6915 -0.4805  0.3011
   51MOL   C43328533   0.376   2.797   1.861 -0.4769 -0.6254  0.7997
   51MOL   H43428534   7.620   2.626   1.997 -0.7877  0.0761  1.4623
   51MOL   H43528535   0.036   2.465   1.954 -1.4452  0.3176  0.0473
   51MOL   H43628536   0.265   2.566   1.890 -0.7516  0.8140 -0.6169
   51MOL   H43728537   0.195   2.622   1.691 -1.0781  2.5055 -0.9218
   51MOL   H43828538   0.267   2.761   2.037  0.3529 -2.3752 -0.0653
   51MOL   H43928539   0.126   2.906   1.811 -1.8735 -2.0123 -0.0802
   51MOL   H44028540   0.053   2.852   1.971  1.3126 -2.3029  1.3515
   51MOL   H44128541   0.201   2.986   2.082 -0.7515  0.5141 -0.9989
   51MOL   H44228542   0.110   3.161   2.026 -0.2654  0.7534 -0.3425
   51MOL   H44328543   0.338   3.071   1.821 -2.9737  1.3372  0.1169
   51MOL   H44428544   0.331   3.260   1.996 -2.0558 -1.4657  4.2020
   51MOL   H44528545   0.420   3.156   2.104  0.7336 -2.5104 -0.2408
   51MOL   H44628546   0.460   2.905   2.041 -0.3509 -2.6271  0.1415
   51MOL   H44728547   0.534   2.945   1.883 -0.3316  1.5683 -0.7465
   51MOL   H44828548   0.446   2.714   1.867  0.6322  0.1818 -0.6593
   51MOL   H44928549   0.348   2.816   1.757  0.5235 -0.9037  0.4776
   51MOL   O45028550   0.526   3.225   1.951 -0.1043 -0.5839 -0.2126
   51MOL   C45128551   0.568   3.345   2.016 -0.3565 -0.2680 -0.1762
   51MOL   C45228552   0.717   3.364   1.980 -0.2165 -0.1136 -0.5633
   51MOL   O45328553   0.733   3.357   1.842 -0.5474  0.2288 -0.5086
   51MOL   C45428554   0.770   3.501   2.041  0.4651  0.0523 -0.2338
   51MOL   C45528555   0.723   3.628   1.973  0.0892  0.6353  0.0968
   51MOL   C45628556   0.786   3.756   2.040  0.8059  0.5748  0.1954
   51MOL   O45728557   0.749   3.861   1.960  0.1957 -0.4087 -0.3304
   51MOL   C45828558   0.941   3.745   2.052 -0.5624  0.3393  0.0778
   51MOL   C45928559   0.996   3.859   2.147 -0.7161 -0.1412 -0.8683
   51MOL   C46028560   0.982   3.609   2.100  0.2714  0.4449 -0.2759
   51MOL   C46128561   0.919   3.492   2.031 -0.1397  0.2891 -0.0570
   51MOL   H46228562   0.569   3.329   2.124  0.6040  0.3492 -0.0882
   51MOL   H46328563   0.510   3.434   1.992  0.1023  0.1994  0.4609
   51MOL   H46428564   0.779   3.293   2.034  0.3712 -1.2052 -2.6132
   51MOL   H46528565   0.667   3.297   1.812 -0.2759 -0.6603  0.6584
   51MOL   H46628566   0.741   3.497   2.146  0.8912 -0.5523 -0.1386
   51MOL   H46728567   0.755   3.630   1.868  0.3851 -1.6987  0.1206
   51MOL   H46828568   0.614   3.636   1.974  0.0275  0.0767 -1.2710
   51MOL   H46928569   0.738   3.776   2.136  1.7696  1.9773  0.3992
   51MOL   H47028570   0.795   3.851   1.878 -0.1104 -0.9529 -0.4377
   51MOL   H47128571   0.983   3.761   1.953  2.3388 -2.2789  0.7850
   51MOL   H47228572   0.982   3.948   2.086  2.0590  0.2420 -1.0061
   51MOL   H47328573   0.936   3.867   2.238  1.1991 -0.0017  0.4105
   51MOL   H47428574   0.941   3.608   2.201 -1.3282 -1.0163 -0.9066
   51MOL   H47528575   1.091   3.610   2.103  0.2551 -0.7764  1.6291
   51MOL   H47628576   0.950   3.399   2.079  0.4549  0.5978  0.1543
   51MOL   H47728577   0.945   3.488   1.925  0.3817 -1.7580  0.1263
   51MOL   O47828578   1.136   3.841   2.175 -0.0960  0.1477 -0.7571
   51MOL   C47928579   1.224   3.947   2.137 -0.1784  0.0240 -0.2752
   51MOL   C48028580   1.246   3.957   1.986  0.2235  0.7637  0.6685
   51MOL   O48128581   1.342   4.059   1.959 -0.2119  0.4903  0.1076
   51MOL   C48228582   1.300   3.821   1.936  0.1118 -0.2010  0.0183
   51MOL   C48328583   1.438   3.771   1.987  0.4762 -0.2118  0.5084
   51MOL   C48428584   1.471   3.633   1.932 -0.1276 -0.1677 -0.4219
   51MOL   O48528585   1.589   3.591   1.990 -0.0868 -0.4843  0.3280
   51MOL   C48628586   1.490   3.642   1.779  0.3674 -0.7459 -0.7964
   51MOL   C48728587   1.531   3.510   1.715 -0.0456  0.2434 -0.6106
   51MOL   C48828588   1.351   3.692   1.713 -0.1455 -0.2738  0.0220
   51MOL   C48928589   1.302   3.817   1.781 -0.2417 -0.5488  0.8657
   51MOL   H49028590   1.315   3.923   2.191 -0.0730  3.1654  1.0922
   51MOL   H49128591   1.176   4.039   2.172  0.0854 -0.7344  2.1143
   51MOL   H49228592   1.156   3.982   1.931 -0.5451 -3.9592 -0.3831
   51MOL   H49328593   1.420   4.033   2.006 -0.0437 -0.2972 -0.5992
   51MOL   H49428594   1.233   3.741   1.969  0.8274  0.1704  2.4551
   51MOL   H49528595   1.519   3.838   1.958 -0.6566  0.7846 -0.4146
   51MOL   H49628596   1.443   3.750   2.094 -2.2307  0.2286  0.7691
   51MOL   H49728597   1.395   3.557   1.950 -0.7716 -0.0074 -2.3522
   51MOL   H49828598   1.574   3.565   2.080  3.6811 -1.0742  0.8763
   51MOL   H49928599   1.565   3.714   1.747  0.4507  0.3998  1.8988
   51MOL   H50028600   1.634   3.484   1.740  0.2873  4.2020  2.8835
   51MOL   H50128601   1.471   3.430   1.758  1.2395 -1.1049 -1.2993
   51MOL   H50228602   1.280   3.610   1.718  1.8958 -2.2323 -1.7647
   51MOL   H50328603   1.365   3.719   1.608 -0.2341  0.7245  0.2576
   51MOL   H50428604   1.213   3.855   1.731  0.2048 -0.6276 -0.0199
   51MOL   H50528605   1.378   3.893   1.763 -2.0748  0.6184 -2.5565
   51MOL   O50628606   1.512   3.505   1.575 -0.1042  0.2930 -0.3552
   51MOL   C50728607   1.473   3.371   1.524 -0.1083 -0.0270 -0.2446
   51MOL   C50828608   1.323   3.376   1.475  0.3301 -0.2648 -0.1359
   51MOL   O50928609   1.322   3.323   1.346  0.0645 -0.3064  0.1573
   51MOL   C51028610   1.231   3.296   1.576  0.2701 -0.1308  0.5944
   51MOL   C51128611   1.246   3.143   1.567  0.4998  0.6942 -0.4983
   51MOL   C51228612   1.151   3.057   1.656 -0.8954 -0.3272  0.4944
   51MOL   O51328613   1.169   2.923   1.615 -0.0896 -0.1120 -0.0480
   51MOL   C51428614   1.003   3.106   1.639  0.4835  0.2170  0.4496
   51MOL   C51528615   0.923   3.046   1.756  0.6317  1.0197  0.0423
   51MOL   C51628616   0.997   3.255   1.643  0.2274  1.0862  0.2057
   51MOL   C51728617   1.087   3.333   1.549 -0.7770  0.0452  0.5179
   51MOL   H51828618   1.491   3.292   1.597  0.9298 -0.6893 -1.1992
   51MOL   H51928619   1.538   3.349   1.439  0.7204 -0.8879  0.6087
   51MOL   H52028620   1.297   3.481   1.462 -0.5171 -0.4689 -0.1226
   51MOL   H52128621   1.327   3.394   1.284 -1.8607  0.7337  1.1624
   51MOL   H52228622   1.251   3.329   1.678 -3.1509 -0.6571  1.5217
   51MOL   H52328623   1.238   3.113   1.463 -1.3474  3.1721 -1.1042
   51MOL   H52428624   1.351   3.127   1.593 -0.0386  0.2141  1.4605
   51MOL   H52528625   1.187   3.057   1.758  1.2901 -1.5599 -0.2372
   51MOL   H52628626   1.082   2.888   1.628  1.1274 -2.8625  0.9354
   51MOL   H52728627   0.967   3.062   1.545  0.0989  1.1662  0.1488
   51MOL   H52828628   0.964   3.074   1.853 -0.7796 -1.6186  1.4364
   51MOL   H52928629   0.824   3.091   1.769  0.4189  0.1265  1.5418
   51MOL   H53028630   1.030   3.294   1.740 -0.4342  2.4838 -0.1071
   51MOL   H53128631   0.893   3.285   1.639 -0.9964 -2.6048  2.1869
   51MOL   H53228632   1.064   3.440   1.544 -0.1547  0.0906 -3.0889
   51MOL   H53328633   1.058   3.303   1.448  2.0392 -0.6449 -0.1038
   51MOL   O53428634   0.909   2.902   1.747  0.0106 -0.1546  0.2864
   51MOL   C53528635   0.784   2.855   1.692  0.3841 -0.0442 -0.3596
   51MOL   C53628636   0.808   2.706   1.684 -0.8034  0.1285 -0.5446
   51MOL   O53728637   0.804   2.650   1.816  0.1316  0.0018 -0.0491
   51MOL   C53828638   0.712   2.626   1.595 -0.2639 -0.3303  0.6784
   51MOL   C53928639   0.563   2.653   1.619  0.0921  0.3838  0.4306
   51MOL   C54028640   0.478   2.570   1.514  0.4405  0.4642  0.2798
   51MOL   O54128641   0.346   2.573   1.564  0.2031  0.1197  0.1857
   51MOL   C54228642   0.523   2.419   1.492  0.1249 -0.2422 -0.8567
   51MOL   C54328643   0.444   2.345   1.389 -0.1986  1.1283 -0.0952
   51MOL   C54428644   0.673   2.411   1.466  0.4389 -0.2484  0.3258
   51MOL   C54528645   0.751   2.477   1.583 -0.4355  0.6959  0.0907
   51MOL   H54628646   0.767   2.891   1.591  1.8981 -0.5868 -0.8144
   51MOL   H54728647   0.699   2.877   1.757 -0.4669 -1.1021 -1.0853
   51MOL   H54828648   0.908   2.680   1.648 -1.9403 -2.0932 -2.2432
   51MOL   H54928649   0.886   2.666   1.858  1.0704 -1.4667 -1.2809
   51MOL   H55028650   0.724   2.670   1.496 -0.8213 -2.1118 -0.2176
   51MOL   H55128651   0.534   2.605   1.713  1.2087 -0.1841  0.5002
   51MOL   H55228652   0.535   2.757   1.606  1.2633  0.4899 -1.4048
   51MOL   H55328653   0.488   2.612   1.414 -0.3280 -2.4634 -1.0963
   51MOL   H55428654   0.285   2.565   1.493  0.2272  1.2750  0.0292
   51MOL   H55528655   0.501   2.365   1.584 -0.7641  1.5736  0.0209
   51MOL   H55628656   0.472   2.241   1.373  2.4852  1.8519 -0.3737
   51MOL   H55728657   0.341   2.328   1.419 -0.2184  0.9574 -0.2574
   51MOL   H55828658   0.709   2.448   1.370  1.4502  0.2929  0.9041
   51MOL   H55928659   0.695   2.304   1.459  0.1606 -0.3316  0.6629
   51MOL   H56028660   0.855   2.469   1.550 -0.3432 -0.6603  0.6772
   51MOL   H56128661   0.741   2.418   1.674  0.9421 -2.2465 -1.5694
   51MOL   H56228662   0.437   2.387   1.288 -1.4358  1.7255  0.2190
   52MOL     O128663   5.705   1.588   3.108 -0.2110 -0.4753 -0.2852
   52MOL     C228664   5.798   1.531   3.208 -0.2340  0.2671 -0.8459
   52MOL     C328665   5.727   1.526   3.339 -0.8424  0.1170 -0.3399
   52MOL     O428666   5.618   1.446   3.305 -0.2892  0.3328  0.1648
   52MOL     C528667   5.805   1.466   3.455 -0.1839 -0.5504  0.5885
   52MOL     C628668   5.721   1.441   3.582  0.2507 -0.0902 -0.2459
   52MOL     C728669   5.809   1.400   3.704  1.3886  0.3917 -1.2208
   52MOL     O828670   5.721   1.378   3.817  0.0981 -0.0190  0.5395
   52MOL     C928671   5.924   1.505   3.728 -0.5092  0.0785 -0.6095
   52MOL    C1028672   6.005   1.472   3.856  0.3522 -0.0835  0.0585
   52MOL    C1128673   6.010   1.519   3.608 -0.0616  0.4010  0.1065
   52MOL    C1228674   5.920   1.566   3.492 -0.5474  0.5158 -0.9227
   52MOL    H1328675   5.874   1.609   3.210  1.3791 -1.3027  1.5770
   52MOL    H1428676   5.848   1.445   3.164 -0.1588  1.0945 -2.4195
   52MOL    H1528677   5.690   1.626   3.358 -4.0761 -1.7026  3.7421
   52MOL    H1628678   5.620   1.460   3.211  0.6854 -2.3050 -0.2527
   52MOL    H1728679   5.865   1.381   3.421 -0.0148 -0.7928  1.4641
   52MOL    H1828680   5.665   1.531   3.607  1.2958  0.0316  1.7793
   52MOL    H1928681   5.646   1.364   3.566 -0.9444  0.4126  2.7356
   52MOL    H2028682   5.854   1.304   3.680 -0.1414 -0.2302 -1.6512
   52MOL    H2128683   5.651   1.322   3.786  1.2161 -0.4514 -1.2819
   52MOL    H2228684   5.878   1.603   3.742 -1.8031 -0.7507  1.0325
   52MOL    H2328685   5.946   1.421   3.932 -0.0014 -3.2815 -2.2241
   52MOL    H2428686   6.079   1.397   3.828 -0.5832 -0.4666 -1.4900
   52MOL    H2528687   6.062   1.427   3.581  0.3049  1.0567 -1.5179
   52MOL    H2628688   6.082   1.598   3.631 -0.0209 -0.0435  1.5675
   52MOL    H2728689   5.985   1.581   3.406  1.4585 -0.4560  0.3887
   52MOL    H2828690   5.876   1.662   3.518 -2.2268 -1.5152  4.3085
   52MOL    H2928691   5.674   1.666   3.150  1.3725 -1.1617  2.2443
   52MOL    O3028692   6.065   1.585   3.921  0.5796 -0.2020 -0.1546
   52MOL    C3128693   6.143   1.559   4.036 -0.3676  0.8710 -0.0347
   52MOL    C3228694   6.155   1.703   4.089 -0.0867 -0.0451  0.5578
   52MOL    O3328695   6.024   1.732   4.128 -0.5892 -0.6180  0.1991
   52MOL    C3428696   6.255   1.722   4.205 -0.1140 -0.3878 -0.1649
   52MOL    C3528697   6.249   1.865   4.257  0.1375 -0.4959  0.3611
   52MOL    C3628698   6.329   1.879   4.387 -0.0571 -0.5770  0.0893
   52MOL    O3728699   6.331   2.019   4.431 -0.1039 -0.0917 -0.4000
   52MOL    C3828700   6.479   1.841   4.353  0.6371  0.4104  0.2013
   52MOL    C3928701   6.567   1.843   4.479 -0.2416  0.2732 -0.2829
   52MOL    C4028702   6.489   1.702   4.292 -0.5909 -0.2821 -0.1619
   52MOL    C4128703   6.401   1.694   4.169 -0.2291  0.4134  0.1804
   52MOL    H4228704   6.237   1.521   3.995 -1.4571 -0.4061 -1.3838
   52MOL    H4328705   6.092   1.493   4.106  0.1648  1.0465  0.5229
   52MOL    H4428706   6.179   1.772   4.009  2.7194 -2.2491 -0.5699
   52MOL    H4528707   5.982   1.689   4.055  1.4807  0.1266 -1.4846
   52MOL    H4628708   6.226   1.639   4.269 -1.6617 -1.8021 -2.6263
   52MOL    H4728709   6.290   1.939   4.188 -0.3571 -0.6437 -0.0982
   52MOL    H4828710   6.149   1.906   4.266  0.5573  0.1440  2.2216
   52MOL    H4928711   6.294   1.825   4.475 -1.0321  2.3904  1.5873
   52MOL    H5028712   6.240   2.039   4.447 -1.3685 -2.0145 -4.3785
   52MOL    H5128713   6.516   1.909   4.276 -0.7155 -0.5340 -1.3402
   52MOL    H5228714   6.555   1.936   4.535 -3.3590 -1.2129  1.7153
   52MOL    H5328715   6.543   1.761   4.548  1.3422 -0.8187 -0.9965
   52MOL    H5428716   6.464   1.624   4.364  1.0278 -1.0231 -0.3716
   52MOL    H5528717   6.589   1.680   4.256 -0.5752  0.1276 -0.3735
   52MOL    H5628718   6.404   1.591   4.133 -0.3051  0.1340  0.9637
   52MOL    H5728719   6.435   1.752   4.083 -0.5048 -0.8595 -0.8005
   52MOL    O5828720   6.705   1.835   4.452 -0.5709  0.1849  0.1879
   52MOL    C5928721   6.760   1.947   4.384  0.1275  0.3586 -0.0536
   52MOL    C6028722   6.916   1.938   4.376  0.7942  1.0252 -0.7917
   52MOL    O6128723   6.975   1.999   4.260  0.1020 -0.4039 -0.1035
   52MOL    C6228724   6.996   1.979   4.507 -0.3695  0.1186  0.1612
   52MOL    C6328725   7.140   1.934   4.516 -0.1261 -0.0976  0.1018
   52MOL    C6428726   7.214   1.984   4.643  0.4140 -0.7612  0.3335
   52MOL    O6528727   7.346   1.958   4.638 -0.1986  0.2526 -0.4829
   52MOL    C6628728   7.145   1.931   4.772  0.0634 -0.0952  0.5340
   52MOL    C6728729   7.200   1.983   4.906 -0.2964 -0.2599 -0.3095
   52MOL    C6828730   6.995   1.964   4.772 -0.4903  0.0950  0.3770
   52MOL    C6928731   6.927   1.936   4.633 -0.7313 -0.7749  0.4867
   52MOL    H7028732   6.725   2.034   4.440  0.0161 -0.5393  1.2832
   52MOL    H7128733   6.714   1.957   4.285 -0.6830  1.9177  0.4599
   52MOL    H7228734   6.928   1.830   4.369  0.2696  0.9293 -0.2213
   52MOL    H7328735   6.935   1.970   4.179  0.4798  2.6030 -1.4620
   52MOL    H7428736   6.996   2.087   4.500 -0.0709 -0.0215 -2.2441
   52MOL    H7528737   7.142   1.827   4.534 -2.0634  0.0264  1.1169
   52MOL    H7628738   7.201   1.948   4.427  1.1160  0.0807  0.9595
   52MOL    H7728739   7.208   2.093   4.635 -0.7622 -0.7022  1.7326
   52MOL    H7828740   7.374   2.018   4.571 -2.6003 -0.3362 -2.0996
   52MOL    H7928741   7.152   1.823   4.786 -0.2636 -0.1450  0.3212
   52MOL    H8028742   7.293   1.930   4.924 -0.9198 -2.0507 -2.2323
   52MOL    H8128743   7.211   2.090   4.887 -0.3950 -0.4730 -1.6059
   52MOL    H8228744   6.985   2.073   4.774  1.3544  0.2850 -0.1303
   52MOL    H8328745   6.934   1.922   4.852 -3.6314  0.2948 -1.7814
   52MOL    H8428746   6.822   1.965   4.630 -0.7218 -0.8751 -1.9403
   52MOL    H8528747   6.896   1.831   4.630 -0.7665 -0.7328 -1.7191
   52MOL    O8628748   7.115   1.948   5.008 -0.1262  0.1013  0.0179
   52MOL    C8728749   7.170   1.995   5.129  0.5578 -0.6618  0.1543
   52MOL    C8828750   7.060   1.962   5.237 -1.0279  0.0376  0.0355
   52MOL    O8928751   7.117   1.985   5.358 -0.0699  0.4323  0.5879
   52MOL    C9028752   6.924   2.039   5.222 -0.4673 -0.7591 -0.6812
   52MOL    C9128753   6.945   2.187   5.231  0.6536  0.5582  0.1768
   52MOL    C9228754   6.810   2.264   5.235 -0.1269 -0.3523  0.1481
   52MOL    O9328755   6.829   2.402   5.257  0.0204 -0.1024  0.2413
   52MOL    C9428756   6.718   2.221   5.345 -0.3574 -0.3798  0.2472
   52MOL    C9528757   6.579   2.294   5.348  0.0909  0.5928 -0.0760
   52MOL    C9628758   6.688   2.073   5.326  0.3325  0.9904 -0.2647
   52MOL    C9728759   6.818   1.986   5.324  0.1417  0.1604 -0.0583
   52MOL    H9828760   7.190   2.102   5.135 -4.4370  0.4242 -0.7188
   52MOL    H9928761   7.257   1.932   5.151  1.1420 -0.2628 -0.9893
   52MOL   H10028762   7.042   1.855   5.227 -0.1921 -0.0847 -0.1437
   52MOL   H10128763   7.163   2.066   5.345  2.5005 -1.3282 -1.9908
   52MOL   H10228764   6.877   2.012   5.127 -0.7286 -0.2404 -0.6997
   52MOL   H10328765   7.005   2.228   5.313 -0.5922 -0.6896  1.7296
   52MOL   H10428766   6.988   2.217   5.135  0.2557 -1.3273 -0.6156
   52MOL   H10528767   6.765   2.247   5.137 -0.5950 -0.4224  0.3764
   52MOL   H10628768   6.740   2.433   5.271 -0.0229  0.3557 -0.9578
   52MOL   H10728769   6.764   2.237   5.442 -0.6333 -2.2838  0.7052
   52MOL   H10828770   6.527   2.287   5.252 -0.2380 -1.0956  0.2030
   52MOL   H10928771   6.522   2.259   5.433 -0.3230  0.0493 -0.5704
   52MOL   H11028772   6.648   2.040   5.231 -0.0636 -0.1235  0.2831
   52MOL   H11128773   6.634   2.035   5.412 -1.0836  1.0199 -1.1381
   52MOL   H11228774   6.790   1.884   5.299  0.3892  0.0229  0.2225
   52MOL   H11328775   6.864   1.986   5.423  1.9968 -1.8553 -0.8675
   52MOL   O11428776   6.598   2.432   5.378  0.0971 -0.1927  0.1143
   52MOL   C11528777   6.480   2.510   5.354 -0.3761 -0.4608 -0.5163
   52MOL   C11628778   6.484   2.650   5.413 -0.3712  0.0381 -0.3287
   52MOL   O11728779   6.458   2.648   5.554 -0.1177  0.0649  0.3570
   52MOL   C11828780   6.614   2.721   5.366 -0.6335  0.1568 -1.0654
   52MOL   C11928781   6.624   2.862   5.423  0.1215  0.1758 -0.0994
   52MOL   C12028782   6.761   2.925   5.398  0.2476  0.2906 -0.3682
   52MOL   O12128783   6.762   3.060   5.434  0.0236  0.0246  0.1489
   52MOL   C12228784   6.809   2.919   5.250 -0.1204  0.1145  0.3723
   52MOL   C12328785   6.949   2.960   5.223 -0.2968  0.2912 -0.2556
   52MOL   C12428786   6.781   2.782   5.189 -0.0512  0.2031  0.4493
   52MOL   C12528787   6.637   2.737   5.215  0.1774  0.1419  0.3642
   52MOL   H12628788   6.394   2.464   5.404  0.9007  0.3983  2.6474
   52MOL   H12728789   6.451   2.519   5.250  0.8681  2.7936 -0.6410
   52MOL   H12828790   6.403   2.704   5.365 -0.8373 -0.9969 -0.7169
   52MOL   H12928791   6.523   2.585   5.582  2.4302  2.4639  0.0188
   52MOL   H13028792   6.695   2.670   5.418  1.0427  2.7703 -1.0113
   52MOL   H13128793   6.548   2.926   5.380  1.2748  1.2556 -0.5625
   52MOL   H13228794   6.612   2.865   5.531 -0.2862 -0.2073 -0.1321
   52MOL   H13328795   6.836   2.870   5.455  0.6334 -0.7957 -1.8897
   52MOL   H13428796   6.676   3.099   5.428 -1.6959 -3.6414 -0.0053
   52MOL   H13528797   6.747   2.991   5.197  0.9246 -0.6518 -1.9473
   52MOL   H13628798   6.975   3.051   5.278  0.6432 -0.5634  0.7471
   52MOL   H13728799   7.020   2.884   5.257 -1.4226 -1.2706 -1.3430
   52MOL   H13828800   6.853   2.709   5.227  1.4444  2.2452  1.6108
   52MOL   H13928801   6.799   2.779   5.082  0.1390 -3.1158  0.5321
   52MOL   H14028802   6.626   2.642   5.163 -2.5995 -0.4432  1.8819
   52MOL   H14128803   6.564   2.807   5.174 -1.1358 -1.0322  0.6451
   52MOL   O14228804   6.969   2.961   5.079  0.2623  0.2811  0.3208
   52MOL   C14328805   7.108   2.992   5.043 -0.1172  0.1961  0.4533
   52MOL   C14428806   7.133   3.013   4.895 -0.2523 -0.0289  1.1643
   52MOL   O14528807   7.114   3.144   4.848  0.2683  0.3678  0.1426
   52MOL   C14628808   7.266   2.951   4.836 -0.0751  0.4218 -0.7905
   52MOL   C14728809   7.341   3.026   4.718  0.2142  0.1241  0.6959
   52MOL   C14828810   7.279   3.017   4.579 -0.8683  0.5712 -0.1058
   52MOL   O14928811   7.153   3.083   4.576 -0.1590 -0.3750 -0.4754
   52MOL   C15028812   7.271   2.867   4.551 -0.2579 -0.8564  0.0583
   52MOL   C15128813   7.412   2.813   4.510 -0.5301  0.0773 -0.1198
   52MOL   C15228814   7.198   2.786   4.657  0.2219 -0.0779 -0.0370
   52MOL   C15328815   7.260   2.803   4.792  0.7614  0.4695  0.0189
   52MOL   H15428816   7.171   2.908   5.074  1.8139  0.5911 -2.2141
   52MOL   H15528817   7.136   3.075   5.108  1.0719  0.6138 -0.5851
   52MOL   H15628818   7.044   2.960   4.861 -0.1859 -0.0122  0.9640
   52MOL   H15728819   7.026   3.168   4.873  0.5843  0.7302  0.9416
   52MOL   H15828820   7.340   2.948   4.915  1.1081  1.1616 -1.8473
   52MOL   H15928821   7.362   3.128   4.750 -1.8638  1.0998 -0.9210
   52MOL   H16028822   7.439   2.979   4.709  0.2229  0.3414 -0.3144
   52MOL   H16128823   7.339   3.061   4.499 -0.3150  0.3910  0.2026
   52MOL   H16228824   7.128   3.096   4.666 -1.1348 -0.4121 -0.7418
   52MOL   H16328825   7.213   2.864   4.459 -0.1572  1.6127 -0.1336
   52MOL   H16428826   7.476   2.796   4.597 -1.4917  1.8444  0.9531
   52MOL   H16528827   7.396   2.716   4.462 -1.4361  0.6818 -1.0613
   52MOL   H16628828   7.205   2.679   4.637  2.2579 -0.0611  0.4571
   52MOL   H16728829   7.094   2.818   4.657  0.0812 -0.4998  0.8155
   52MOL   H16828830   7.361   2.764   4.781  0.6563  0.5084 -1.1998
   52MOL   H16928831   7.221   2.734   4.867  1.1374 -2.0125 -1.9562
   52MOL   O17028832   7.486   2.885   4.418 -0.1390 -0.2095  0.1839
   52MOL   C17128833   7.619   2.849   4.388  0.5044 -0.6552 -0.2358
   52MOL   C17228834   0.081   2.938   4.468 -0.0949  0.2868 -0.3875
   52MOL   O17328835   0.085   2.924   4.608 -0.1961 -0.2561  0.1276
   52MOL   C17428836   0.228   2.952   4.407 -0.4617 -0.1378 -0.7196
   52MOL   C17528837   0.302   2.820   4.432 -0.2338  0.3556  0.0486
   52MOL   C17628838   0.451   2.816   4.381 -0.3289 -0.2931 -0.2909
   52MOL   O17728839   0.498   2.696   4.427  0.4313  0.4261 -0.1437
   52MOL   C17828840   0.531   2.935   4.443  0.3625  0.5616  0.2471
   52MOL   C17928841   0.679   2.943   4.391 -0.2163  0.6838  0.9495
   52MOL   C18028842   0.456   3.066   4.421  0.5488  0.4434  0.2808
   52MOL   C18128843   0.312   3.065   4.470  0.3468 -0.2595 -0.1776
   52MOL   H18228844   0.019   2.843   4.283  0.0821  2.4752 -0.5754
   52MOL   H18328845   0.015   2.746   4.413  2.4326 -0.1509 -0.0471
   52MOL   H18428846   0.045   3.039   4.446 -1.6736  0.0820  1.1482
   52MOL   H18528847   0.072   2.831   4.619 -2.6924 -0.0248 -0.4715
   52MOL   H18628848   0.226   2.968   4.299 -1.7168  1.5481 -0.4742
   52MOL   H18728849   0.300   2.806   4.540  1.1270  1.4284  0.2117
   52MOL   H18828850   0.234   2.740   4.400  0.9171  0.1049 -1.8310
   52MOL   H18928851   0.453   2.823   4.273 -0.8625  1.3693 -0.2090
   52MOL   H19028852   0.585   2.675   4.396  0.2342 -1.0966  0.2749
   52MOL   H19128853   0.529   2.906   4.548  1.2528  1.6776  0.5732
   52MOL   H19228854   0.682   2.956   4.282  0.2117 -0.8588  0.7644
   52MOL   H19328855   0.734   3.029   4.427  0.4419  0.9538 -0.6738
   52MOL   H19428856   0.457   3.087   4.314  3.1990  1.8990  0.5453
   52MOL   H19528857   0.510   3.142   4.477 -2.5148  1.5867  1.7913
   52MOL   H19628858   0.263   3.157   4.439 -0.9634 -0.7147  0.5084
   52MOL   H19728859   0.312   3.070   4.579  0.4570  0.8433 -0.2269
   52MOL   O19828860   0.761   2.833   4.432  0.2177  0.1360  0.1195
   52MOL   C19928861   0.892   2.841   4.374  0.1930 -0.0519  0.2567
   52MOL   C20028862   0.943   2.707   4.322 -0.4421 -0.2752 -0.1254
   52MOL   O20128863   1.048   2.722   4.225  0.1115 -0.2629 -0.3486
   52MOL   C20228864   0.994   2.609   4.429 -0.3055  0.1382 -0.5464
   52MOL   C20328865   1.128   2.650   4.493 -0.5422 -0.1508 -0.3151
   52MOL   C20428866   1.169   2.540   4.590 -0.2568 -0.1442  0.0272
   52MOL   O20528867   1.291   2.581   4.653  0.2543  0.1178 -0.3651
   52MOL   C20628868   1.205   2.409   4.513 -0.1401 -0.3444 -0.2848
   52MOL   C20728869   1.244   2.294   4.609 -0.0115  0.5713 -0.1188
   52MOL   C20828870   1.069   2.368   4.444 -0.9454 -0.7185  0.8618
   52MOL   C20928871   1.007   2.473   4.353  0.4944  0.0132  0.0956
   52MOL   H21028872   0.967   2.876   4.445 -1.4147 -1.2485  2.5663
   52MOL   H21128873   0.892   2.917   4.295 -0.9652 -2.6376 -2.3411
   52MOL   H21228874   0.853   2.666   4.276 -1.1096  2.3224 -1.2189
   52MOL   H21328875   1.120   2.772   4.261  0.4590 -1.2890  0.4189
   52MOL   H21428876   0.919   2.596   4.508 -0.3171 -1.6886 -0.8359
   52MOL   H21528877   1.207   2.674   4.420  0.4023 -3.0020 -0.2729
   52MOL   H21628878   1.127   2.738   4.557 -0.8534  0.1477 -0.7236
   52MOL   H21728879   1.100   2.527   4.673 -1.6245 -1.1695 -1.2441
   52MOL   H21828880   1.266   2.650   4.714 -1.3422 -0.5763 -0.2073
   52MOL   H21928881   1.286   2.420   4.442 -0.3890 -0.9867 -0.6768
   52MOL   H22028882   1.310   2.332   4.688 -0.7666  2.1994 -0.2434
   52MOL   H22128883   1.158   2.252   4.660  1.0513  1.3400  2.4054
   52MOL   H22228884   0.993   2.340   4.517 -1.4616 -1.0975  0.1855
   52MOL   H22328885   1.094   2.273   4.396 -0.7286 -0.2068 -0.0406
   52MOL   H22428886   0.915   2.425   4.321  0.3997  0.0381  0.3277
   52MOL   H22528887   1.067   2.489   4.263 -0.4604  0.5009 -0.4552
   52MOL   O22628888   1.282   2.176   4.546 -0.6082  0.3725  0.0717
   52MOL   C22728889   1.419   2.170   4.519  0.5627 -0.4184  0.3061
   52MOL   C22828890   1.479   2.027   4.534  0.2541 -0.0588  0.2019
   52MOL   O22928891   1.597   2.015   4.457 -0.4250 -0.0612  0.4596
   52MOL   C23028892   1.509   1.996   4.685  0.7879  0.7470 -0.4503
   52MOL   C23128893   1.569   1.851   4.695  0.0252  0.2865  0.5316
   52MOL   C23228894   1.609   1.809   4.840 -0.3596 -0.1482 -0.1409
   52MOL   O23328895   1.661   1.683   4.838 -0.2896  0.1509 -0.1783
   52MOL   C23428896   1.483   1.818   4.927  0.5371  0.6703  0.2780
   52MOL   C23528897   1.515   1.776   5.073  0.1286 -0.3889  0.1162
   52MOL   C23628898   1.428   1.963   4.924  0.3163 -0.7029 -0.0759
   52MOL   C23728899   1.386   2.000   4.782  0.3264  0.1269  0.1574
   52MOL   H23828900   1.485   2.241   4.569 -0.2330  0.3443  0.2888
   52MOL   H23928901   1.436   2.213   4.420 -1.2259  1.0191  0.5892
   52MOL   H24028902   1.412   1.953   4.491 -0.3486 -0.1573  1.2943
   52MOL   H24128903   1.569   1.991   4.370  0.3775  0.7340 -0.0304
   52MOL   H24228904   1.592   2.063   4.708  0.8526 -0.4776  3.1232
   52MOL   H24328905   1.491   1.781   4.665 -1.0427  1.5265  0.3671
   52MOL   H24428906   1.657   1.837   4.631 -1.7588  2.2464 -2.4741
   52MOL   H24528907   1.687   1.877   4.875  1.8506 -3.2966  1.2730
   52MOL   H24628908   1.742   1.686   4.791  0.1407  1.8497  0.6279
   52MOL   H24728909   1.417   1.740   4.889  3.1577 -1.5406  0.0982
   52MOL   H24828910   1.577   1.686   5.078  1.4381  0.5590  1.0843
   52MOL   H24928911   1.575   1.854   5.119 -1.7530 -1.2518  4.2832
   52MOL   H25028912   1.507   2.031   4.957  0.8104 -0.7961 -1.0154
   52MOL   H25128913   1.349   1.974   4.998  0.1866 -1.1215 -0.1516
   52MOL   H25228914   1.324   2.089   4.785 -2.1183 -1.5494  0.6842
   52MOL   H25328915   1.315   1.930   4.739  0.2735  0.9953 -1.1907
   52MOL   O25428916   1.390   1.764   5.137 -0.7416  0.2213  0.1612
   52MOL   C25528917   1.391   1.706   5.271 -0.6522 -0.1674 -0.1334
   52MOL   C25628918   1.253   1.667   5.310 -0.1814  0.5613  0.1903
   52MOL   O25728919   1.224   1.544   5.242 -0.1905 -0.2385 -0.5015
   52MOL   C25828920   1.250   1.648   5.462 -0.3560  0.5756 -0.0953
   52MOL   C25928921   1.324   1.516   5.497 -0.0312 -0.0307 -0.1161
   52MOL   C26028922   1.312   1.487   5.651 -0.1445  0.5444  0.5925
   52MOL   O26128923   1.364   1.356   5.665 -0.1910 -0.2775 -0.3720
   52MOL   C26228924   1.165   1.489   5.711 -0.3260  0.7792 -0.1264
   52MOL   C26328925   1.171   1.495   5.867  0.5936  0.1401 -0.2847
   52MOL   C26428926   1.098   1.615   5.658  0.0036  0.5937  0.0604
   52MOL   C26528927   1.107   1.633   5.505  0.7343  0.0872 -0.0089
   52MOL   H26628928   1.442   1.772   5.342 -1.2791  0.9211 -0.6897
   52MOL   H26728929   1.457   1.620   5.257 -0.9243 -0.4806  0.4529
   52MOL   H26828930   1.188   1.751   5.289 -0.9684  0.3291  1.6113
   52MOL   H26928931   1.215   1.560   5.149 -2.6085  1.1340 -0.0570
   52MOL   H27028932   1.298   1.723   5.525  0.0389 -1.3012  1.8682
   52MOL   H27128933   1.279   1.435   5.441 -0.1378  0.3773 -0.6229
   52MOL   H27228934   1.430   1.514   5.472  0.7541 -0.5113  3.0199
   52MOL   H27328935   1.372   1.564   5.700  2.7836 -0.2522 -1.5881
   52MOL   H27428936   1.306   1.301   5.615 -2.4988  1.2128  0.5486
   52MOL   H27528937   1.125   1.396   5.669  0.9586  0.3856 -0.4974
   52MOL   H27628938   1.209   1.400   5.905  1.0738 -0.7232 -2.8671
   52MOL   H27728939   1.248   1.569   5.888  1.9183 -0.3186 -3.3491
   52MOL   H27828940   1.154   1.698   5.700 -1.4322  0.6184  2.0273
   52MOL   H27928941   0.995   1.622   5.693  0.5679 -1.2527  2.2241
   52MOL   H28028942   1.056   1.718   5.459  0.5289 -0.4572 -0.7834
   52MOL   H28128943   1.066   1.547   5.453 -0.2625  0.3150  0.3843
   52MOL   O28228944   1.048   1.536   5.919  0.5705  0.6749 -0.4837
   52MOL   C28328945   1.053   1.583   6.053  0.7800 -0.0782 -0.4621
   52MOL   C28428946   0.909   1.602   6.106 -0.1897  0.1874  0.0285
   52MOL   O28528947   0.826   1.485   6.086 -0.1600 -0.1151 -0.2721
   52MOL   C28628948   0.910   1.639   6.251  0.2076 -0.2126  0.3349
   52MOL   C28728949   0.957   1.520   6.338 -0.0036  0.1648 -0.6596
   52MOL   C28828950   0.953   1.550   6.488 -0.3164  0.1732  0.1525
   52MOL   O28928951   1.007   1.434   6.549  0.1676 -0.2622 -0.0470
   52MOL   C29028952   0.803   1.570   6.528 -0.0556 -0.3101  0.7772
   52MOL   C29128953   0.774   1.586   6.677  0.1637 -0.0487  0.6304
   52MOL   C29228954   0.755   1.697   6.444  0.7990 -0.0520  0.0221
   52MOL   C29328955   0.769   1.686   6.289 -0.8120  0.2287 -0.4789
   52MOL   H29428956   1.100   1.681   6.058 -0.3590  0.6891 -3.4951
   52MOL   H29528957   1.107   1.506   6.109  0.8388 -0.8730 -1.5701
   52MOL   H29628958   0.867   1.691   6.059 -2.0425 -0.0829  1.1476
   52MOL   H29728959   0.888   1.416   6.067  0.2136  0.2365 -0.3275
   52MOL   H29828960   0.976   1.723   6.275 -0.9075  0.2556  1.8530
   52MOL   H29928961   0.889   1.437   6.321  1.0074 -0.8001 -0.0381
   52MOL   H30028962   1.052   1.482   6.302 -0.3186 -0.3175 -0.9833
   52MOL   H30128963   1.021   1.628   6.524  1.3813 -1.4755  0.5795
   52MOL   H30228964   0.963   1.426   6.632  1.3089 -1.2980  0.4662
   52MOL   H30328965   0.740   1.487   6.496 -1.2821  0.9588 -0.1063
   52MOL   H30428966   0.800   1.685   6.715 -2.3410  0.6647  0.5787
   52MOL   H30528967   0.666   1.594   6.681 -0.1692 -2.0773 -2.5884
   52MOL   H30628968   0.805   1.788   6.476 -1.0158  1.3118 -0.9130
   52MOL   H30728969   0.649   1.714   6.462  1.4053  2.5265  1.3263
   52MOL   H30828970   0.740   1.778   6.239 -3.6378 -0.0122  0.6267
   52MOL   H30928971   0.684   1.625   6.256 -0.0393 -0.3160 -1.4758
   52MOL   O31028972   0.822   1.486   6.758 -0.0060  0.6753 -0.0348
   52MOL   C31128973   0.853   1.517   6.886 -0.6626  1.0444 -0.3012
   52MOL   C31228974   0.876   1.368   6.949  0.1520 -0.3352  1.0385
   52MOL   O31328975   0.954   1.385   7.061  0.0435 -0.2306  0.0637
   52MOL   C31428976   0.750   1.299   6.997 -0.1675  0.1388  0.0336
   52MOL   C31528977   0.662   1.251   6.881  0.0251 -1.3385 -0.9773
   52MOL   C31628978   0.549   1.161   6.932  0.1304  0.3602  0.2563
   52MOL   O31728979   0.477   1.110   6.823  0.3265 -0.0692  0.4594
   52MOL   C31828980   0.457   1.239   7.025 -0.4057 -0.1868 -1.1111
   52MOL   C31928981   0.348   1.147   7.080 -0.1644  0.0530 -1.0081
   52MOL   C32028982   0.542   1.296   7.150 -0.1186  0.1274  0.8034
   52MOL   C32128983   0.665   1.382   7.094 -0.4966 -1.2015 -0.2489
   52MOL   H32228984   0.777   1.568   6.945 -1.1706 -0.4935  0.4037
   52MOL   H32328985   0.946   1.574   6.889  0.4108 -0.5465 -2.0955
   52MOL   H32428986   0.936   1.310   6.879  0.5251  1.1479  0.1047
   52MOL   H32528987   0.926   1.460   7.111  0.4902 -1.1095  1.6772
   52MOL   H32628988   0.774   1.210   7.055 -3.1928 -1.2808 -0.8240
   52MOL   H32728989   0.616   1.338   6.834 -2.0769 -1.9808 -0.1462
   52MOL   H32828990   0.712   1.187   6.809  0.4132 -0.5465 -1.4255
   52MOL   H32928991   0.588   1.070   6.976 -0.3876 -0.5299 -1.1075
   52MOL   H33028992   0.547   1.065   6.778  0.0474 -1.0217  0.9676
   52MOL   H33128993   0.427   1.329   6.971  2.0322  1.6599  0.4695
   52MOL   H33228994   0.296   1.090   7.003 -2.0584  0.7495 -0.2576
   52MOL   H33328995   0.390   1.068   7.143 -1.9081 -0.2331 -0.1719
   52MOL   H33428996   0.582   1.213   7.209  3.0202  0.5933 -0.6015
   52MOL   H33528997   0.479   1.359   7.213 -2.0147  0.4979 -1.3693
   52MOL   H33628998   0.720   1.428   7.176 -1.2326  2.8178 -1.8527
   52MOL   H33728999   0.629   1.462   7.028 -0.0399 -1.3032 -0.6193
   52MOL   O33829000   0.259   1.221   7.161  0.2955 -0.0906 -0.0920
   52MOL   C33929001   0.183   1.312   7.091  0.0472 -0.9171 -0.6390
   52MOL   C34029002   0.086   1.383   7.187 -0.9652  0.2508 -0.5194
   52MOL   O34129003   0.165   1.463   7.275 -0.6395  0.2201  0.3415
   52MOL   C34229004   7.606   1.475   7.136  0.1341 -0.1782  0.1967
   52MOL   C34329005   7.486   1.405   7.071 -0.6369  0.5955 -0.3065
   52MOL   C34429006   7.380   1.502   7.012 -0.4012  0.0132 -0.2252
   52MOL   O34529007   7.287   1.424   6.940  0.1675  0.0674 -0.1109
   52MOL   C34629008   7.450   1.604   6.915  0.5078  0.4622  0.0618
   52MOL   C34729009   7.344   1.699   6.851  0.4855 -0.6703 -0.6459
   52MOL   C34829010   7.564   1.678   6.988 -0.4631 -0.2188 -0.0818
   52MOL   C34929011   0.037   1.579   7.038  0.2532  0.4735 -0.4584
   52MOL   H35029012   0.124   1.263   7.014 -1.1655 -0.0870 -0.2392
   52MOL   H35129013   0.239   1.388   7.036 -0.5458  0.5743  0.7716
   52MOL   H35229014   0.032   1.302   7.236 -0.2966  0.7305  1.0339
   52MOL   H35329015   0.219   1.405   7.327  0.1844  1.1202  0.4934
   52MOL   H35429016   7.568   1.524   7.226  0.9524  0.7455  0.0536
   52MOL   H35529017   7.526   1.331   7.002  1.0023  0.6208  0.5844
   52MOL   H35629018   7.442   1.345   7.151 -1.2007  1.9968  0.4651
   52MOL   H35729019   7.316   1.550   7.086  1.2949  1.5420  0.2759
   52MOL   H35829020   7.229   1.376   6.996  0.3538 -1.2347 -1.0137
   52MOL   H35929021   7.481   1.532   6.840 -1.3524  0.3173 -0.5972
   52MOL   H36029022   7.272   1.641   6.794 -2.0385 -0.4733  2.2074
   52MOL   H36129023   7.294   1.753   6.932  1.9485 -0.5058  0.1701
   52MOL   H36229024   7.524   1.737   7.071  0.4453 -1.7944  1.5123
   52MOL   H36329025   7.607   1.753   6.921  0.9533  0.1602  1.2172
   52MOL   H36429026   0.123   1.625   7.086  0.6381 -0.9697  0.2749
   52MOL   H36529027   0.062   1.520   6.950 -2.0112  0.7838 -1.3573
   52MOL   O36629028   7.413   1.802   6.772  1.0331  0.2761 -0.6694
   52MOL   C36729029   7.488   1.739   6.666 -0.3484  0.2583 -0.2301
   52MOL   C36829030   7.549   1.844   6.571  0.1907  0.4869 -0.3352
   52MOL   O36929031   7.442   1.911   6.507  0.2516 -0.1282 -0.1207
   52MOL   C37029032   0.021   1.937   6.640  0.6815 -0.0150  0.4710
   52MOL   C37129033   7.587   2.030   6.752 -0.2130  0.3354  0.2191
   52MOL   C37229034   0.066   2.124   6.807 -0.2872  0.0069  0.3253
   52MOL   O37329035   7.626   2.204   6.909  0.6744 -1.0179  0.3120
   52MOL   C37429036   0.112   2.214   6.684 -0.7287 -0.9468 -0.1968
   52MOL   C37529037   0.200   2.329   6.739  0.1644  0.2197  0.6289
   52MOL   C37629038   0.187   2.125   6.585  0.0806 -0.4238 -0.2159
   52MOL   C37729039   0.094   2.015   6.535 -0.0627  0.3936 -0.4034
   52MOL   H37829040   7.419   1.673   6.612 -0.3726 -0.4005  0.5849
   52MOL   H37929041   7.567   1.683   6.716  0.4163 -1.2490 -3.0225
   52MOL   H38029042   7.604   1.788   6.496  0.9077  1.1799 -0.3272
   52MOL   H38129043   7.398   1.961   6.574  0.5384  0.1815 -0.1592
   52MOL   H38229044   0.096   1.873   6.685  1.4419  0.8908  0.4967
   52MOL   H38329045   7.499   2.089   6.727  1.0068  2.1754  0.1171
   52MOL   H38429046   7.569   1.971   6.842  1.5610 -1.7491 -0.7412
   52MOL   H38529047   0.131   2.053   6.857 -1.7044 -1.8375 -0.4049
   52MOL   H38629048   7.578   2.267   6.858 -0.4972 -2.0875  0.0766
   52MOL   H38729049   0.029   2.256   6.627 -0.8513  1.3857  1.6030
   52MOL   H38829050   0.142   2.398   6.800 -0.7645  0.8879 -0.9679
   52MOL   H38929051   0.284   2.290   6.796  0.6721  0.7476  0.2612
   52MOL   H39029052   0.275   2.081   6.632  0.4020  1.9063  1.4639
   52MOL   H39129053   0.224   2.188   6.504  2.0171 -4.0853 -2.2762
   52MOL   H39229054   0.157   1.940   6.488  1.0882  1.3629 -0.4596
   52MOL   H39329055   0.018   2.051   6.466  0.1313 -1.4993 -1.6338
   52MOL   O39429056   0.243   2.404   6.625  0.1131  0.1540  0.2279
   52MOL   C39529057   0.225   2.545   6.645 -0.1380  0.0078 -0.3800
   52MOL   C39629058   0.252   2.616   6.509  0.2935  0.0048 -0.5262
   52MOL   O39729059   0.171   2.556   6.416 -0.2358  0.0802  0.2791
   52MOL   C39829060   0.231   2.772   6.507 -0.8287  0.0442 -0.2500
   52MOL   C39929061   0.337   2.837   6.596 -0.5252 -0.3030 -0.2734
   52MOL   C40029062   0.321   2.989   6.601  0.2790  0.2538  0.4275
   52MOL   O40129063   0.415   3.042   6.688  0.3454 -0.0104  0.2156
   52MOL   C40229064   0.178   3.034   6.644  0.4207 -0.2156 -0.1268
   52MOL   C40329065   0.164   3.186   6.670  0.3559  0.2685  0.9629
   52MOL   C40429066   0.076   2.975   6.544  0.1126  0.0464  0.8847
   52MOL   C40529067   0.087   2.823   6.526 -0.1222 -0.2282 -0.0967
   52MOL   H40629068   0.305   2.578   6.711  0.8059 -0.3623 -1.3123
   52MOL   H40729069   0.130   2.578   6.686  0.6099  1.3201  0.3053
   52MOL   H40829070   0.355   2.603   6.475  0.7519 -2.3723  1.6121
   52MOL   H40929071   0.171   2.462   6.426 -0.9425 -0.0197 -0.6506
   52MOL   H41029072   0.255   2.805   6.407 -1.0854 -1.6312 -0.8865
   52MOL   H41129073   0.329   2.804   6.700 -1.8005  1.9668  0.3705
   52MOL   H41229074   0.438   2.817   6.561 -0.7712  0.2139 -1.2783
   52MOL   H41329075   0.335   3.038   6.504  0.7904 -1.5463 -0.4167
   52MOL   H41429076   0.390   3.021   6.777  0.8746  0.3109  0.4448
   52MOL   H41529077   0.166   2.996   6.745 -0.1321  1.4918  0.4659
   52MOL   H41629078   0.239   3.219   6.743  1.4245  0.2628 -0.1180
   52MOL   H41729079   0.195   3.245   6.584  0.1586  0.4081  0.9874
   52MOL   H41829080   0.081   3.020   6.445  0.1092  1.9704  1.7457
   52MOL   H41929081   7.604   2.989   6.580  0.5716  1.2020  1.7837
   52MOL   H42029082   0.032   2.789   6.438  0.1178 -3.3669  0.8997
   52MOL   H42129083   0.036   2.769   6.606  0.9973 -1.0861  0.0570
   52MOL   O42229084   0.027   3.218   6.720 -0.7247  0.3823  0.9553
   52MOL   C42329085   0.017   3.357   6.719  0.3293 -0.6186  0.0230
   52MOL   C42429086   7.495   3.386   6.743 -0.4201  0.1539 -0.4590
   52MOL   O42529087   7.456   3.318   6.854 -0.0479 -0.0911  0.4362
   52MOL   C42629088   7.449   3.527   6.759 -0.0520 -0.0869  0.4444
   52MOL   C42729089   7.297   3.535   6.738 -0.1363  0.8626 -0.7767
   52MOL   C42829090   7.245   3.677   6.777 -0.2413  0.0504 -0.5939
   52MOL   O42929091   7.111   3.688   6.745  0.6781 -0.0393  0.3592
   52MOL   C43029092   7.313   3.784   6.683  0.2223  0.5842  0.2294
   52MOL   C43129093   7.251   3.919   6.696  0.2251 -0.7297 -0.4453
   52MOL   C43229094   7.462   3.779   6.723  0.4096 -0.2337 -0.8608
   52MOL   C43329095   7.516   3.639   6.679  0.3799 -0.2056  0.4238
   52MOL   H43429096   0.041   3.386   6.617  1.0268 -1.0739  0.0548
   52MOL   H43529097   0.078   3.407   6.795 -0.7487  0.1638  0.4000
   52MOL   H43629098   7.437   3.339   6.664 -1.1180 -0.6264  0.5121
   52MOL   H43729099   7.484   3.230   6.832  2.3596  0.8614 -0.4052
   52MOL   H43829100   7.471   3.547   6.864 -0.8984 -2.7637  1.1593
   52MOL   H43929101   7.265   3.506   6.638 -0.4552  1.6251 -0.8983
   52MOL   H44029102   7.236   3.470   6.800 -0.5194  0.1703 -1.8703
   52MOL   H44129103   7.264   3.696   6.883 -1.5189  3.0817 -0.8548
   52MOL   H44229104   7.070   3.609   6.777 -0.6216  0.3240 -0.3400
   52MOL   H44329105   7.300   3.753   6.580  1.5428 -3.2785  1.1579
   52MOL   H44429106   7.148   3.912   6.662  0.6328 -2.5232 -1.3651
   52MOL   H44529107   7.240   3.959   6.797  1.1055 -1.3011 -0.1121
   52MOL   H44629108   7.470   3.781   6.832 -1.8228 -2.1414 -0.6057
   52MOL   H44729109   7.531   3.856   6.688 -0.3717  1.2325  0.7258
   52MOL   H44829110   7.623   3.645   6.700  0.7193  0.1110 -1.3455
   52MOL   H44929111   7.502   3.629   6.572  1.3389 -1.1393  0.3725
   52MOL   O45029112   7.327   4.018   6.619  0.1316  0.9392  0.4609
   52MOL   C45129113   7.255   4.126   6.561 -0.2477 -0.5814 -0.8197
   52MOL   C45229114   7.217   4.085   6.419 -0.1961  0.4195 -0.4004
   52MOL   O45329115   7.099   4.016   6.417  0.5365  0.2648  0.8595
   52MOL   C45429116   7.202   4.202   6.327  0.3629 -0.5241 -0.0747
   52MOL   C45529117   7.115   4.316   6.388  0.5160  0.6005  0.0836
   52MOL   C45629118   7.115   4.441   6.293  0.1970  0.6188  0.5605
   52MOL   O45729119   7.021   4.538   6.329 -0.0353 -0.1611  0.4608
   52MOL   C45829120   7.097   4.407   6.140 -0.6391 -0.1060 -0.3723
   52MOL   C45929121   7.117   4.525   6.047 -0.2930  0.6931 -0.1210
   52MOL   C46029122   7.179   4.284   6.093 -0.2906 -0.0964  0.2548
   52MOL   C46129123   7.160   4.165   6.182 -0.9166  1.1189  0.4133
   52MOL   H46229124   7.324   4.209   6.549 -0.8867  0.0267 -0.2939
   52MOL   H46329125   7.181   4.164   6.630  1.3521 -0.3028  0.7723
   52MOL   H46429126   7.300   4.029   6.377  0.5991  0.2034  1.4021
   52MOL   H46529127   7.113   3.928   6.386  1.7567 -0.1893  2.6603
   52MOL   H46629128   7.299   4.251   6.325  0.4128 -0.5468  1.2533
   52MOL   H46729129   7.016   4.271   6.396  1.3533 -1.1648  0.9194
   52MOL   H46829130   7.146   4.351   6.486  1.1356  0.9359 -0.2269
   52MOL   H46929131   7.212   4.490   6.304  0.0601  1.9346 -3.4639
   52MOL   H47029132   7.024   4.550   6.422  2.2259 -0.1041  0.4203
   52MOL   H47129133   6.994   4.381   6.116 -0.3309 -0.8797 -0.8571
   52MOL   H47229134   7.063   4.613   6.079 -2.0200 -0.1365 -0.6864
   52MOL   H47329135   7.224   4.544   6.047  0.5039 -3.2410 -0.3058
   52MOL   H47429136   7.287   4.301   6.100 -0.3084 -0.9470  3.2215
   52MOL   H47529137   7.159   4.261   5.989 -0.4248 -0.5020  0.3711
   52MOL   H47629138   7.242   4.097   6.158 -0.2056  1.0894  2.7961
   52MOL   H47729139   7.064   4.114   6.177 -1.3564  2.0188 -0.2663
   52MOL   O47829140   7.081   4.494   5.912  0.5028  0.6740 -0.2216
   52MOL   C47929141   7.113   4.599   5.821  0.0084  0.7789 -0.7586
   52MOL   C48029142   7.036   4.580   5.692  0.1569 -0.0680  0.2944
   52MOL   O48129143   7.096   4.484   5.611  0.2398  0.2947 -0.3458
   52MOL   C48229144   6.882   4.563   5.684 -0.4248  0.3003  0.0967
   52MOL   C48329145   6.845   4.598   5.547 -0.4109  0.5998  0.1673
   52MOL   C48429146   6.701   4.591   5.528  0.1583  1.0322  0.5394
   52MOL   O48529147   6.696   4.619   5.390  0.1841 -0.5785  0.8326
   52MOL   C48629148   6.621   4.691   5.619  0.0375  0.1588  0.1890
   52MOL   C48729149   6.469   4.692   5.599 -0.1046  0.9560  0.0790
   52MOL   C48829150   6.646   4.660   5.762 -0.6061 -0.3600  0.1039
   52MOL   C48929151   6.798   4.653   5.784  0.2816 -0.6777  0.3934
   52MOL   H49029152   7.221   4.616   5.818  0.4875 -2.1117 -1.0992
   52MOL   H49129153   7.069   4.686   5.870 -1.2518 -0.0367 -0.4271
   52MOL   H49229154   7.048   4.677   5.644 -1.6206 -0.0233 -0.0789
   52MOL   H49329155   7.110   4.410   5.668 -1.4096  0.5219  0.3579
   52MOL   H49429156   6.874   4.457   5.711 -0.4849  0.2990  0.0729
   52MOL   H49529157   6.877   4.700   5.523 -1.2165  0.3150 -2.2976
   52MOL   H49629158   6.902   4.547   5.470 -2.2585 -0.2795 -0.6675
   52MOL   H49729159   6.657   4.493   5.544  2.0590  0.1876  0.7964
   52MOL   H49829160   6.612   4.658   5.373  0.1285 -1.5185 -1.1366
   52MOL   H49929161   6.647   4.797   5.608 -1.4823  0.4886 -0.2585
   52MOL   H50029162   6.439   4.590   5.578  1.5874  0.6507 -0.9183
   52MOL   H50129163   6.404   4.731   5.678  1.7439  2.2347  1.0084
   52MOL   H50229164   6.594   4.566   5.781 -2.2420  0.2635 -1.1761
   52MOL   H50329165   6.606   4.740   5.824  1.8640 -0.5811  2.0532
   52MOL   H50429166   6.824   4.616   5.884  0.9547 -4.0759 -0.9756
   52MOL   H50529167   6.824   4.759   5.782 -0.0290 -0.5269  2.4443
   52MOL   O50629168   6.430   4.785   5.492 -0.4204 -0.1302 -0.7230
   52MOL   C50729169   6.307   4.759   5.435 -0.2630 -0.0544  0.4439
   52MOL   C50829170   6.251   4.883   5.365 -0.4106  0.0761  0.1656
   52MOL   O50929171   6.175   4.830   5.262 -0.2402  0.1829 -0.1083
   52MOL   C51029172   6.169   4.976   5.452  0.9361  0.3326  0.3365
   52MOL   C51129173   6.117   5.103   5.369  0.5584  0.4860  0.8247
   52MOL   C51229174   6.013   5.182   5.449  0.3150 -0.3761  0.0931
   52MOL   O51329175   5.978   5.288   5.356  0.2002 -0.2232  0.4120
   52MOL   C51429176   6.078   5.222   5.590 -0.2020  0.5074  0.3158
   52MOL   C51529177   5.964   5.290   5.669  0.3070  0.2032  0.4808
   52MOL   C51629178   6.127   5.097   5.668  0.4891  1.2225  0.0936
   52MOL   C51729179   6.237   5.026   5.580 -0.4201 -0.3660  0.2491
   52MOL   H51829180   6.233   4.714   5.502 -0.6542  1.2293  0.8949
   52MOL   H51929181   6.323   4.678   5.364 -1.0709  1.3835 -1.4009
   52MOL   H52029182   6.338   4.934   5.322 -0.5202  1.9936  2.1095
   52MOL   H52129183   6.085   4.817   5.289 -0.4088 -2.1052 -1.6592
   52MOL   H52229184   6.079   4.930   5.494  1.3189  0.6405  1.5066
   52MOL   H52329185   6.200   5.173   5.355  1.4060 -0.8183 -0.8073
   52MOL   H52429186   6.086   5.068   5.271 -1.4334  2.1950  0.8239
   52MOL   H52529187   5.918   5.129   5.463 -0.4333  0.7340 -0.6901
   52MOL   H52629188   5.953   5.243   5.277  2.8998 -1.0276 -0.0106
   52MOL   H52729189   6.158   5.294   5.573  4.5631 -4.5836 -0.1162
   52MOL   H52829190   5.921   5.366   5.604  0.1400  1.1889  1.7177
   52MOL   H52929191   5.884   5.223   5.699  0.7419 -0.4086  0.2922
   52MOL   H53029192   6.043   5.028   5.676  1.2267  0.1634 -1.1404
   52MOL   H53129193   6.174   5.096   5.766  2.8404 -1.1218 -0.9790
   52MOL   H53229194   6.271   4.939   5.636 -0.1038 -1.5268 -1.6750
   52MOL   H53329195   6.322   5.091   5.556 -0.1116 -0.9501 -0.2757
   52MOL   O53429196   6.019   5.354   5.782  0.2112  0.2072  0.2307
   52MOL   C53529197   5.919   5.390   5.876  0.5675 -0.1522  0.8591
   52MOL   C53629198   5.963   5.491   5.987  0.1850 -0.0551  0.1463
   52MOL   O53729199   5.848   5.576   6.013 -0.3399 -0.0555 -0.2658
   52MOL   C53829200   6.023   5.447   6.116 -0.2190 -0.1195 -0.4225
   52MOL   C53929201   5.919   5.378   6.205  0.6634  0.2075 -0.3171
   52MOL   C54029202   5.966   5.352   6.349 -0.3670 -0.6103 -0.2865
   52MOL   O54129203   5.853   5.301   6.412  0.0033  0.5054  0.3256
   52MOL   C54229204   6.014   5.477   6.421  0.1796 -0.5839 -0.4820
   52MOL   C54329205   6.047   5.451   6.567  0.2311  0.1685 -0.4210
   52MOL   C54429206   6.128   5.530   6.333 -0.2851  0.4814  0.0528
   52MOL   C54529207   6.077   5.570   6.192  0.5980 -0.3476 -0.1703
   52MOL   H54629208   5.878   5.303   5.926 -2.4298 -0.0233 -1.1961
   52MOL   H54729209   5.834   5.433   5.822  0.0428  0.2235  1.9793
   52MOL   H54829210   6.042   5.552   5.942 -0.1058 -0.5554 -1.0681
   52MOL   H54929211   5.803   5.613   5.938 -0.4647  1.2325  0.4295
   52MOL   H55029212   6.107   5.387   6.081 -1.4604 -1.2586 -1.4962
   52MOL   H55129213   5.824   5.432   6.211  0.7062  0.0689  2.3060
   52MOL   H55229214   5.892   5.284   6.158  0.7480  0.5855 -1.1231
   52MOL   H55329215   6.036   5.269   6.356 -1.5145 -1.6198 -0.5419
   52MOL   H55429216   5.768   5.314   6.372 -0.8381 -2.1358  1.1167
   52MOL   H55529217   5.932   5.549   6.418  0.9032  0.6725  4.5714
   52MOL   H55629218   6.113   5.528   6.607 -0.0507  0.6136 -0.8092
   52MOL   H55729219   5.954   5.453   6.624  0.3433  1.0338 -0.2686
   52MOL   H55829220   6.217   5.467   6.339 -0.8306 -0.5841 -2.6530
   52MOL   H55929221   6.165   5.621   6.379 -0.7235 -0.1735  1.7466
   52MOL   H56029222   6.164   5.618   6.147 -0.9285  2.0004 -0.7172
   52MOL   H56129223   6.002   5.648   6.194 -0.4842 -1.3868  0.4120
   52MOL   H56229224   6.111   5.364   6.583 -1.1122 -0.8912 -0.6975
   53MOL     O129225   1.394   5.956   4.235 -0.3387  0.4778 -0.0284
   53MOL     C229226   1.489   5.930   4.131 -0.1094  0.0118  0.1132
   53MOL     C329227   1.602   6.035   4.128 -0.4284 -0.3223  0.1156
   53MOL     O429228   1.683   6.009   4.239  0.2503  0.1393 -0.3170
   53MOL     C529229   1.685   6.026   4.001  0.6550  0.4464  0.6997
   53MOL     C629230   1.732   5.883   3.955  0.1020  0.0504 -0.2767
   53MOL     C729231   1.808   5.885   3.825  0.3421 -0.6607  0.0710
   53MOL     O829232   1.844   5.751   3.792 -0.1276 -0.0932 -0.4482
   53MOL     C929233   1.933   5.978   3.834 -0.2428 -0.0685  0.6566
   53MOL    C1029234   2.017   5.980   3.698  0.2504 -0.3758 -0.8166
   53MOL    C1129235   1.893   6.118   3.872 -0.8431  0.5411  0.4464
   53MOL    C1229236   1.802   6.122   3.997  0.2198 -0.6014 -0.3478
   53MOL    H1329237   1.443   5.945   4.034  0.1173 -1.3980 -0.2181
   53MOL    H1429238   1.525   5.828   4.147 -2.9941 -0.8471  1.6769
   53MOL    H1529239   1.543   6.127   4.136 -0.3007 -0.1470 -0.9004
   53MOL    H1629240   1.616   6.014   4.306  0.5423 -0.5810  0.0364
   53MOL    H1729241   1.617   6.057   3.922 -0.2527  0.5002  1.4936
   53MOL    H1829242   1.797   5.836   4.030 -0.5960 -1.1038 -0.3779
   53MOL    H1929243   1.644   5.818   3.957  1.7834 -2.2976 -0.7618
   53MOL    H2029244   1.746   5.924   3.744 -0.2981  2.1771  1.8468
   53MOL    H2129245   1.868   5.743   3.701  0.8163  0.3432 -0.2458
   53MOL    H2229246   1.997   5.938   3.913 -1.1717  0.2964  1.6012
   53MOL    H2329247   2.110   6.030   3.727 -1.1730  1.6515  0.3385
   53MOL    H2429248   2.051   5.877   3.686  2.3194 -0.0990  2.0615
   53MOL    H2529249   1.843   6.173   3.793 -0.5015 -0.0679 -0.2004
   53MOL    H2629250   1.986   6.167   3.899 -1.1535  0.7331  1.1842
   53MOL    H2729251   1.757   6.218   4.020  1.9828  0.0494  0.4986
   53MOL    H2829252   1.870   6.100   4.080 -1.3113 -1.1941  0.7737
   53MOL    H2929253   1.313   5.925   4.199  0.1590 -0.2144 -0.5708
   53MOL    O3029254   1.948   6.028   3.584 -0.4551 -0.3019 -0.6033
   53MOL    C3129255   2.029   6.105   3.494 -0.5888  0.1528 -0.5289
   53MOL    C3229256   1.919   6.171   3.418 -0.2178 -0.4540  0.5123
   53MOL    O3329257   1.844   6.239   3.519  0.2909 -0.5472  0.3819
   53MOL    C3429258   1.959   6.261   3.301 -0.1532  0.4693 -0.0064
   53MOL    C3529259   2.026   6.181   3.187  0.0921 -0.2548  0.1821
   53MOL    C3629260   2.049   6.264   3.058  0.1625 -0.6991 -0.5005
   53MOL    O3729261   2.134   6.185   2.976 -0.7569 -0.1958 -0.5551
   53MOL    C3829262   2.127   6.395   3.087  0.2054  0.0320  0.2072
   53MOL    C3929263   2.124   6.478   2.958 -0.5925  0.7395 -0.5269
   53MOL    C4029264   2.065   6.478   3.211 -0.3916  0.5054 -0.2119
   53MOL    C4129265   2.051   6.384   3.337 -0.4746 -0.5486  0.5194
   53MOL    H4229266   2.096   6.047   3.430  0.4714  0.6471  0.1131
   53MOL    H4329267   2.087   6.180   3.547  0.2302 -0.3342 -0.7247
   53MOL    H4429268   1.849   6.095   3.382 -2.1860  0.3572  2.5556
   53MOL    H4529269   1.850   6.188   3.599 -1.1654  2.8305  2.7933
   53MOL    H4629270   1.865   6.290   3.255 -0.2862 -2.5466 -1.7127
   53MOL    H4729271   2.123   6.145   3.219 -0.1588  0.9499  2.3787
   53MOL    H4829272   1.960   6.098   3.158  0.4194 -0.5822  0.3780
   53MOL    H4929273   1.956   6.292   3.010  1.3917  0.0042 -2.5630
   53MOL    H5029274   2.205   6.168   3.035 -1.7353 -1.8737  0.1783
   53MOL    H5129275   2.228   6.364   3.114 -0.2777  0.0465  2.1102
   53MOL    H5229276   2.166   6.427   2.871 -0.9861  0.0990 -0.3461
   53MOL    H5329277   2.019   6.493   2.933 -1.1474 -2.5626 -0.3424
   53MOL    H5429278   1.973   6.522   3.173 -2.3786 -1.1905  2.4001
   53MOL    H5529279   2.137   6.555   3.239  0.6230 -2.1107  5.1060
   53MOL    H5629280   2.008   6.446   3.415 -0.6991  0.5983 -0.4913
   53MOL    H5729281   2.142   6.346   3.381 -0.9447 -1.7019  0.5175
   53MOL    O5829282   2.192   6.599   2.984 -0.1153 -0.1063 -0.1320
   53MOL    C5929283   2.333   6.594   2.968  0.4662  0.3247 -0.2182
   53MOL    C6029284   2.412   6.645   3.096  0.4367  0.1043 -0.6018
   53MOL    O6129285   2.550   6.623   3.069  0.3497 -0.0852 -0.5914
   53MOL    C6229286   2.382   6.793   3.129 -0.0957  0.2967  0.1729
   53MOL    C6329287   2.424   6.886   3.010 -0.9534 -0.2243  0.5438
   53MOL    C6429288   2.422   7.034   3.053 -0.0678 -0.1263 -0.7122
   53MOL    O6529289   2.460   7.106   2.933 -0.2891 -0.1969  0.2223
   53MOL    C6629290   2.506   7.062   3.172 -0.2654 -0.2597  0.5311
   53MOL    C6729291   2.507   7.208   3.219  0.3600 -0.3836  0.1055
   53MOL    C6829292   2.471   6.968   3.287  0.3889  0.0111  0.4127
   53MOL    C6929293   2.474   6.822   3.258  0.2563  0.1394 -0.1617
   53MOL    H7029294   2.365   6.654   2.883 -2.0310 -0.3262 -1.6662
   53MOL    H7129295   2.381   6.498   2.946  0.7825  0.3573  0.3068
   53MOL    H7229296   2.372   6.590   3.181 -0.6405 -0.4102 -1.4174
   53MOL    H7329297   2.563   6.670   2.988  0.9247  1.0974  0.1777
   53MOL    H7429298   2.278   6.794   3.161  0.0010  0.1247  0.4910
   53MOL    H7529299   2.525   6.869   2.975 -1.1353 -0.1233 -0.0357
   53MOL    H7629300   2.366   6.868   2.920  0.1308  1.8580 -0.6222
   53MOL    H7729301   2.320   7.069   3.070  0.7021  1.7317  0.2201
   53MOL    H7829302   2.441   7.198   2.949  1.5972  0.3848 -0.7972
   53MOL    H7929303   2.609   7.036   3.149 -0.8181 -1.1695 -0.9949
   53MOL    H8029304   2.583   7.223   3.296  0.8770  0.3671 -0.5420
   53MOL    H8129305   2.542   7.271   3.137  1.3546 -0.0077  0.8039
   53MOL    H8229306   2.372   6.988   3.329  0.0503 -0.9571  0.0927
   53MOL    H8329307   2.529   6.983   3.378 -1.8316  2.0814  1.5460
   53MOL    H8429308   2.433   6.776   3.348 -0.5529 -0.4864 -0.8410
   53MOL    H8529309   2.579   6.792   3.249  0.1463 -0.3779  0.2505
   53MOL    O8629310   2.378   7.256   3.251  0.3197 -0.2243 -0.3055
   53MOL    C8729311   2.370   7.391   3.289 -0.0119  0.2559  0.6223
   53MOL    C8829312   2.221   7.436   3.310  0.4013 -0.0801  0.8342
   53MOL    O8929313   2.143   7.438   3.195 -0.5889 -0.2307 -0.6022
   53MOL    C9029314   2.139   7.378   3.425 -0.1899  0.2975  0.7106
   53MOL    C9129315   2.047   7.480   3.485 -0.1009  0.1650  0.5650
   53MOL    C9229316   1.939   7.419   3.578  0.5246 -0.3629 -0.3873
   53MOL    O9329317   1.864   7.516   3.637  0.9083 -0.5427 -0.1892
   53MOL    C9429318   2.011   7.345   3.696 -0.5952  0.1758  0.1659
   53MOL    C9529319   1.906   7.275   3.800  0.0810  0.2845 -0.2221
   53MOL    C9629320   2.123   7.245   3.637 -0.0515 -0.0367 -0.4322
   53MOL    C9729321   2.223   7.314   3.538 -0.2643 -0.2596  0.1184
   53MOL    H9829322   2.413   7.457   3.213 -1.4285  0.0480 -0.3937
   53MOL    H9929323   2.434   7.409   3.375  1.3822 -1.4750 -0.0368
   53MOL   H10029324   2.234   7.540   3.340 -2.0803  0.6913 -0.6204
   53MOL   H10129325   2.101   7.353   3.187  0.4098 -0.6319 -1.6661
   53MOL   H10229326   2.072   7.305   3.379 -0.3594  2.0999 -2.0259
   53MOL   H10329327   2.113   7.550   3.535 -0.4466  0.6334  0.3627
   53MOL   H10429328   2.004   7.535   3.401  2.5967 -0.7548 -1.5219
   53MOL   H10529329   1.870   7.354   3.525  0.3660  2.1692 -3.4100
   53MOL   H10629330   1.845   7.582   3.572 -1.5693  0.0565  1.0760
   53MOL   H10729331   2.057   7.425   3.753 -0.9316  0.4597  0.0441
   53MOL   H10829332   1.821   7.340   3.818 -1.0438 -0.8576 -1.2568
   53MOL   H10929333   1.871   7.182   3.754  0.5039  0.2912 -0.5654
   53MOL   H11029334   2.070   7.162   3.589 -0.1232  0.5892 -1.4568
   53MOL   H11129335   2.170   7.199   3.723 -0.2453  2.3686  1.0085
   53MOL   H11229336   2.289   7.248   3.483 -0.1913 -0.0730 -0.0209
   53MOL   H11329337   2.287   7.396   3.573 -0.0839 -0.3114 -0.0914
   53MOL   O11429338   1.978   7.249   3.926 -0.3059 -0.2153  0.1835
   53MOL   C11529339   1.882   7.227   4.032 -0.8730 -0.5505 -0.2821
   53MOL   C11629340   1.924   7.096   4.095 -0.2293 -0.1723  0.0909
   53MOL   O11729341   2.028   7.126   4.176 -0.2982  0.3614  0.6602
   53MOL   C11829342   1.800   7.040   4.173 -0.7900  0.0939 -0.2229
   53MOL   C11929343   1.836   6.920   4.265  0.2738 -0.2144  0.2542
   53MOL   C12029344   1.722   6.870   4.358  0.2519  0.0467  0.4412
   53MOL   O12129345   1.760   6.755   4.427 -0.1277  0.8767 -0.3072
   53MOL   C12229346   1.601   6.835   4.263 -0.4658 -0.8811  0.1317
   53MOL   C12329347   1.472   6.795   4.344 -0.2806 -0.1475  0.0208
   53MOL   C12429348   1.574   6.948   4.165 -0.2689  0.1273 -0.0785
   53MOL   C12529349   1.683   6.998   4.074  0.4961 -0.0494 -0.5021
   53MOL   H12629350   1.782   7.237   3.991  0.2096  0.5533 -2.7742
   53MOL   H12729351   1.886   7.307   4.105  1.8581 -0.0874 -0.8477
   53MOL   H12829352   1.958   7.025   4.020  1.0677  0.8423 -0.2901
   53MOL   H12929353   2.090   7.169   4.120  1.2133 -0.7324  1.4622
   53MOL   H13029354   1.770   7.125   4.235 -0.9684  1.3570 -1.9970
   53MOL   H13129355   1.877   6.839   4.205  0.1872  0.4240 -0.6648
   53MOL   H13229356   1.908   6.954   4.340  1.0074 -0.2341 -0.4373
   53MOL   H13329357   1.696   6.952   4.425  0.3502 -0.7940  1.5086
   53MOL   H13429358   1.825   6.701   4.386  0.1374  0.5776  0.4807
   53MOL   H13529359   1.623   6.747   4.203 -2.2447  0.0648 -1.9524
   53MOL   H13629360   1.387   6.744   4.299  0.1823 -2.6178  1.8376
   53MOL   H13729361   1.505   6.726   4.421  0.8907  0.1364 -0.2079
   53MOL   H13829362   1.542   7.034   4.225 -1.1647 -0.1672 -0.1277
   53MOL   H13929363   1.490   6.918   4.102 -0.5445  1.9124 -0.5946
   53MOL   H14029364   1.636   7.073   4.010  0.8004  1.2395  0.7522
   53MOL   H14129365   1.715   6.931   3.995  0.4911 -0.5167 -0.1101
   53MOL   O14229366   1.419   6.907   4.408 -0.0287 -0.1147 -0.0547
   53MOL   C14329367   1.312   6.877   4.495 -1.1405  0.6465 -0.4650
   53MOL   C14429368   1.321   6.979   4.609  0.3117 -0.6012 -0.4813
   53MOL   O14529369   1.442   6.957   4.674  0.0116 -0.5777  0.6116
   53MOL   C14629370   1.303   7.129   4.569  0.7056  0.7368  0.4443
   53MOL   C14729371   1.401   7.186   4.461 -0.1398  0.1245  0.4469
   53MOL   C14829372   1.399   7.346   4.450  0.0966 -0.1596  0.3063
   53MOL   O14929373   1.523   7.382   4.390 -0.1460  0.4045  0.0879
   53MOL   C15029374   1.385   7.420   4.587 -0.7615  0.5608  0.2411
   53MOL   C15129375   1.374   7.572   4.577  0.4192  0.4598 -0.0266
   53MOL   C15229376   1.271   7.359   4.663 -0.0557  0.1812 -0.0784
   53MOL   C15329377   1.298   7.212   4.700 -0.1799  0.0111 -0.4191
   53MOL   H15429378   1.322   6.779   4.541 -1.4835  1.1608  0.7010
   53MOL   H15529379   1.215   6.863   4.447 -1.1950 -4.5605  0.8092
   53MOL   H15629380   1.230   6.964   4.668 -0.7249  0.9186 -1.6582
   53MOL   H15729381   1.507   6.966   4.606  0.4239 -1.2167  0.9200
   53MOL   H15829382   1.206   7.146   4.521  1.4498  0.6333 -1.1166
   53MOL   H15929383   1.499   7.164   4.504  1.1245  4.3890 -0.0536
   53MOL   H16029384   1.393   7.137   4.364 -0.4287 -0.5409  0.8052
   53MOL   H16129385   1.310   7.372   4.395 -0.0901  1.6388  1.4241
   53MOL   H16229386   1.599   7.389   4.446  0.3053  1.5627 -0.6456
   53MOL   H16329387   1.471   7.396   4.650 -1.6296  1.2521  1.7157
   53MOL   H16429388   1.462   7.608   4.523 -0.8139  0.3540 -2.1534
   53MOL   H16529389   1.290   7.602   4.515 -1.7298 -0.4228  2.3986
   53MOL   H16629390   1.180   7.367   4.605  0.0079  2.2995  0.0882
   53MOL   H16729391   1.245   7.412   4.755 -1.8842 -0.6198 -0.1014
   53MOL   H16829392   1.215   7.182   4.765 -0.6239 -0.1389 -1.0567
   53MOL   H16929393   1.394   7.195   4.749  0.4794  0.7868 -1.4433
   53MOL   O17029394   1.363   7.629   4.706  0.5872 -0.1032 -0.0718
   53MOL   C17129395   1.330   0.137   4.705  0.3869 -0.2409 -0.4575
   53MOL   C17229396   1.394   0.223   4.810 -0.4468 -0.6528 -0.3925
   53MOL   O17329397   1.520   0.238   4.755  0.6596  0.0166  0.3471
   53MOL   C17429398   1.311   0.358   4.836  0.1394 -0.2273  0.9808
   53MOL   C17529399   1.384   0.451   4.935 -0.6064 -0.5252 -0.4004
   53MOL   C17629400   1.308   0.578   4.955 -0.0810  0.5794  0.3603
   53MOL   O17729401   1.381   0.667   5.033 -0.5889  0.3139  0.1521
   53MOL   C17829402   1.174   0.552   5.019 -0.6101 -0.2367 -0.2786
   53MOL   C17929403   1.089   0.680   5.058 -0.3996  0.9102  0.7123
   53MOL   C18029404   1.089   0.454   4.935  0.2359  0.0181 -0.0495
   53MOL   C18129405   1.164   0.324   4.895  1.2467  0.1882 -0.5527
   53MOL   H18229406   1.222   0.148   4.707  0.3703 -0.6082  0.6462
   53MOL   H18329407   1.353   0.179   4.607  1.2406 -0.8806 -0.5392
   53MOL   H18429408   1.398   0.161   4.899 -1.3059  0.6096  0.5512
   53MOL   H18529409   1.559   0.152   4.744  2.6236  0.9157  0.0560
   53MOL   H18629410   1.298   0.416   4.745  1.7172  0.0778  0.9321
   53MOL   H18729411   1.411   0.416   5.035 -1.1336 -0.7501 -0.3327
   53MOL   H18829412   1.484   0.460   4.894  0.5674 -0.7996  2.2895
   53MOL   H18929413   1.283   0.618   4.857  1.9980 -1.0868 -0.8915
   53MOL   H19029414   1.387   0.753   4.995 -1.6912 -0.2778 -1.3955
   53MOL   H19129415   1.204   0.492   5.105 -1.4820  2.7362  2.1763
   53MOL   H19229416   1.142   0.757   5.114 -0.1141  2.0324 -1.0443
   53MOL   H19329417   1.094   0.734   4.963 -2.5065  0.8103  0.5134
   53MOL   H19429418   1.054   0.511   4.850 -0.0249 -1.3698 -0.8938
   53MOL   H19529419   0.999   0.426   4.991  0.3613 -0.9504 -0.3126
   53MOL   H19629420   1.109   0.267   4.821  1.8672 -0.0304 -0.8488
   53MOL   H19729421   1.178   0.254   4.977  1.1260 -0.9707 -1.5244
   53MOL   O19829422   0.950   0.666   5.111 -0.0177  0.7594  0.0179
   53MOL   C19929423   0.915   0.791   5.165  0.4790  0.1978 -0.4875
   53MOL   C20029424   0.772   0.784   5.229 -0.4407  0.0346  0.1666
   53MOL   O20129425   0.734   0.910   5.282 -0.4067  0.0361  0.3379
   53MOL   C20229426   0.654   0.753   5.122 -0.7879  0.3158 -0.1374
   53MOL   C20329427   0.644   0.860   5.010  0.2633  0.4396 -0.6731
   53MOL   C20429428   0.532   0.829   4.915 -0.4606 -0.2684 -0.0831
   53MOL   O20529429   0.525   0.931   4.814  0.4466  0.3678  0.9327
   53MOL   C20629430   0.395   0.820   4.989  0.2148 -0.2061  0.4028
   53MOL   C20729431   0.282   0.792   4.882 -0.8191  0.3808 -0.3879
   53MOL   C20829432   0.399   0.707   5.094  0.3727  0.4824 -0.6256
   53MOL   C20929433   0.512   0.742   5.195  0.0734 -0.4106  0.0584
   53MOL   H21029434   0.928   0.866   5.087  0.7515  0.1931 -0.4471
   53MOL   H21129435   0.970   0.817   5.255  0.2297 -2.0647  0.3443
   53MOL   H21229436   0.762   0.703   5.301 -1.9586 -1.1190 -1.3193
   53MOL   H21329437   0.676   0.939   5.214  0.4336  0.4685 -0.2038
   53MOL   H21429438   0.675   0.659   5.071  0.7467  1.5747 -1.8845
   53MOL   H21529439   0.634   0.960   5.052 -0.3955  0.3064 -0.4918
   53MOL   H21629440   0.734   0.862   4.950  1.4751 -0.2776  1.0539
   53MOL   H21729441   0.552   0.732   4.869  0.1916 -0.2163  0.0910
   53MOL   H21829442   0.611   0.935   4.775 -0.4688  1.3628 -1.0612
   53MOL   H21929443   0.371   0.916   5.035  0.9568  0.2460 -0.1496
   53MOL   H22029444   0.284   0.856   4.794 -1.6764  0.7508 -0.1525
   53MOL   H22129445   0.298   0.695   4.835  1.3925  0.5461 -0.0179
   53MOL   H22229446   0.420   0.614   5.040  0.2159 -1.0147  1.7984
   53MOL   H22329447   0.302   0.687   5.140  0.9690 -0.9038  0.0806
   53MOL   H22429448   0.509   0.658   5.265  0.9881 -0.8687 -0.4484
   53MOL   H22529449   0.494   0.834   5.251  2.7955 -1.1255  2.2170
   53MOL   O22629450   0.152   0.795   4.954  0.4807 -0.2052 -0.0413
   53MOL   C22729451   0.049   0.751   4.860  0.2129  0.7148 -0.3787
   53MOL   C22829452   7.536   0.768   4.920 -0.4311  0.0820  0.7206
   53MOL   O22929453   7.514   0.653   5.001  0.6454  0.3984  0.3619
   53MOL   C23029454   7.530   0.899   5.002  0.1045 -0.9153 -0.2180
   53MOL   C23129455   7.394   0.909   5.082  0.0482  0.0737  0.3081
   53MOL   C23229456   7.379   1.036   5.165 -0.4904  0.3530 -0.0855
   53MOL   O23329457   7.242   1.054   5.207  0.3262  0.1938 -0.4176
   53MOL   C23429458   7.427   1.167   5.093  0.2705  0.3016 -0.3405
   53MOL   C23529459   7.440   1.280   5.188 -0.3205 -0.3532 -0.4856
   53MOL   C23629460   7.554   1.153   5.009 -0.3671  0.3388  0.6164
   53MOL   C23729461   7.542   1.027   4.910 -0.0305 -0.5370 -0.3780
   53MOL   H23829462   0.065   0.647   4.834  0.9912  0.1238  2.2438
   53MOL   H23929463   0.073   0.812   4.773  0.1303 -0.5267 -1.2725
   53MOL   H24029464   7.453   0.758   4.850  0.0426 -0.9298  0.2884
   53MOL   H24129465   7.430   0.617   4.977  0.7840 -1.1975  2.1195
   53MOL   H24229466   7.612   0.894   5.074 -0.0696  1.7908  0.2400
   53MOL   H24329467   7.307   0.905   5.017  0.8393 -1.4670 -0.7000
   53MOL   H24429468   7.384   0.817   5.139 -0.3098  1.1050  1.9324
   53MOL   H24529469   7.446   1.018   5.248 -0.4405  0.7164 -0.0476
   53MOL   H24629470   7.234   1.119   5.274 -2.4716  1.7238 -2.1017
   53MOL   H24729471   7.352   1.193   5.018  1.1859  0.4436 -1.2177
   53MOL   H24829472   7.516   1.245   5.258 -0.8473 -1.5307 -0.4839
   53MOL   H24929473   7.491   1.361   5.137  0.0244  0.7722  1.6021
   53MOL   H25029474   0.016   1.147   5.068  0.4233 -0.8538 -0.7131
   53MOL   H25129475   7.572   1.239   4.944 -0.3787 -0.4859 -0.4883
   53MOL   H25229476   0.007   1.035   4.856  0.3307  1.6348  0.5013
   53MOL   H25329477   7.462   1.037   4.837  0.1148  3.7000 -0.0829
   53MOL   O25429478   7.317   1.312   5.252 -0.4520  0.2403  0.4323
   53MOL   C25529479   7.336   1.410   5.357  0.6948  0.2838 -0.2487
   53MOL   C25629480   7.200   1.443   5.430 -0.2937  0.9265  0.6794
   53MOL   O25729481   7.155   1.321   5.493 -0.1655  0.5441 -0.3673
   53MOL   C25829482   7.219   1.555   5.545 -0.7154  0.5354 -0.0318
   53MOL   C25929483   7.077   1.571   5.603  0.0833  0.6088  0.5051
   53MOL   C26029484   7.074   1.671   5.718  0.6845  0.0504 -0.0112
   53MOL   O26129485   6.934   1.667   5.753 -0.2318  0.1036 -0.1068
   53MOL   C26229486   7.119   1.814   5.662  0.0027 -0.2234  0.2373
   53MOL   C26329487   7.122   1.915   5.771  1.1245  0.2107 -0.8608
   53MOL   C26429488   7.256   1.794   5.593  0.1642 -0.6174  0.9893
   53MOL   C26529489   7.269   1.682   5.495  0.3541  0.1780 -0.5851
   53MOL   H26629490   7.396   1.496   5.327 -0.7407  1.0087 -1.1138
   53MOL   H26729491   7.400   1.363   5.431  1.7977 -1.6878 -2.4036
   53MOL   H26829492   7.130   1.479   5.354 -2.0725 -0.5078  1.6027
   53MOL   H26929493   7.080   1.290   5.445 -1.8497  3.1048  0.5402
   53MOL   H27029494   7.278   1.509   5.624 -0.2951 -0.5969 -0.9828
   53MOL   H27129495   7.005   1.594   5.524 -0.4799  0.1483  0.8750
   53MOL   H27229496   7.054   1.475   5.649  0.0639  0.0426 -0.6760
   53MOL   H27329497   7.130   1.632   5.803 -0.3832 -0.3771  0.5138
   53MOL   H27429498   6.903   1.741   5.802  0.3451 -0.4818  1.1733
   53MOL   H27529499   7.048   1.838   5.584 -1.1507  2.1138  1.9398
   53MOL   H27629500   7.023   1.924   5.817  0.9493  0.8551 -1.3745
   53MOL   H27729501   7.196   1.877   5.843 -0.8596 -0.5744  0.8280
   53MOL   H27829502   7.331   1.794   5.672  0.2420  0.0675  0.9119
   53MOL   H27929503   7.273   1.888   5.542  2.4603 -0.5349  1.8400
   53MOL   H28029504   7.375   1.677   5.474  0.5839 -0.1434  0.6109
   53MOL   H28129505   7.214   1.703   5.403 -2.4840 -1.8486  0.5434
   53MOL   O28229506   7.144   2.045   5.714  0.4719 -0.7860  0.6533
   53MOL   C28329507   7.028   2.124   5.696 -0.0392  0.3680  0.2851
   53MOL   C28429508   7.012   2.198   5.829 -0.5062  0.0554 -0.3007
   53MOL   O28529509   7.108   2.305   5.824 -0.4323  0.3959 -0.0915
   53MOL   C28629510   6.876   2.270   5.859 -0.1337  0.0469 -0.3703
   53MOL   C28729511   6.831   2.380   5.758 -0.0236  0.6860 -0.1835
   53MOL   C28829512   6.684   2.426   5.774 -0.4148 -0.1261 -0.2134
   53MOL   O28929513   6.661   2.527   5.674 -0.1272 -0.0667 -0.4044
   53MOL   C29029514   6.672   2.490   5.910 -1.1071 -0.1682  0.0015
   53MOL   C29129515   6.519   2.537   5.934 -0.1489  0.1551  0.0665
   53MOL   C29229516   6.723   2.392   6.021 -0.1102 -0.2886  0.2277
   53MOL   C29329517   6.863   2.333   5.997 -0.0076 -0.7082 -0.5019
   53MOL   H29429518   6.938   2.068   5.670 -0.1763  1.2010 -1.0483
   53MOL   H29529519   7.026   2.196   5.615  0.3410 -0.2167 -0.2460
   53MOL   H29629520   7.042   2.140   5.916  1.8679 -0.5205 -1.4898
   53MOL   H29729521   7.123   2.336   5.912 -3.3752 -2.0356  1.3484
   53MOL   H29829522   6.797   2.197   5.850 -0.5051  0.4607 -0.5042
   53MOL   H29929523   6.894   2.469   5.763 -1.4325  1.7156 -0.5797
   53MOL   H30029524   6.842   2.342   5.657 -0.4150  2.6873 -0.9909
   53MOL   H30129525   6.616   2.342   5.763 -0.5120 -0.1483  0.5423
   53MOL   H30229526   6.738   2.579   5.656 -0.5521  0.1073 -1.7928
   53MOL   H30329527   6.721   2.586   5.900 -0.1607 -0.7332 -0.8510
   53MOL   H30429528   6.468   2.557   5.840 -1.0429  0.3523  0.5853
   53MOL   H30529529   6.459   2.452   5.967 -1.1169  0.7825 -0.0760
   53MOL   H30629530   6.653   2.311   6.042  0.5079 -0.1747  3.0097
   53MOL   H30729531   6.722   2.452   6.113  1.7881  1.4492 -0.8419
   53MOL   H30829532   6.889   2.259   6.073  1.2123 -1.1052 -1.2805
   53MOL   H30929533   6.939   2.411   6.005  0.1131 -0.6830 -1.8391
   53MOL   O31029534   6.539   2.655   6.015  0.2482 -0.2465  0.1001
   53MOL   C31129535   6.420   2.716   6.061 -0.1962  1.2614  0.5597
   53MOL   C31229536   6.457   2.858   6.098  0.2481 -0.6557  0.0840
   53MOL   O31329537   6.585   2.855   6.165  0.0385 -0.0322 -0.8491
   53MOL   C31429538   6.469   2.967   5.994 -0.3824  0.5269  0.8851
   53MOL   C31529539   6.336   2.995   5.927 -0.1024  0.1426  0.0529
   53MOL   C31629540   6.350   3.115   5.833 -0.8959 -0.3255  0.3125
   53MOL   O31729541   6.223   3.128   5.773  0.1059  0.3722  0.2068
   53MOL   C31829542   6.451   3.082   5.719  0.1833 -0.2142 -0.4476
   53MOL   C31929543   6.463   3.206   5.632  0.5937 -0.1798 -0.5300
   53MOL   C32029544   6.585   3.040   5.778  0.1408  0.0882  0.4739
   53MOL   C32129545   6.572   2.929   5.883 -0.4292 -1.1870  0.4260
   53MOL   H32229546   6.380   2.677   6.155  0.2335  0.8168  0.5634
   53MOL   H32329547   6.338   2.718   5.990 -0.4656  0.1868  0.8305
   53MOL   H32429548   6.386   2.889   6.174 -2.4024 -2.0878 -1.7395
   53MOL   H32529549   6.634   2.799   6.105  0.4229 -3.0409  2.1106
   53MOL   H32629550   6.500   3.057   6.048  0.6267  1.2927 -0.8936
   53MOL   H32729551   6.304   2.914   5.862 -0.2165  0.4801 -0.3129
   53MOL   H32829552   6.254   3.010   5.998 -0.3298  1.4585 -0.4727
   53MOL   H32929553   6.374   3.208   5.885 -0.1244  0.5223 -1.5139
   53MOL   H33029554   6.207   3.221   5.762 -1.6226 -0.1611 -2.3372
   53MOL   H33129555   6.409   3.006   5.653 -3.2724  2.0215 -0.9629
   53MOL   H33229556   6.365   3.255   5.624 -0.0824 -1.5632 -0.8284
   53MOL   H33329557   6.540   3.268   5.678 -0.6209  0.8020  0.2194
   53MOL   H33429558   6.621   3.135   5.819  0.3522  0.3677 -0.3593
   53MOL   H33529559   6.660   3.005   5.708 -0.2494 -1.8571  1.0161
   53MOL   H33629560   6.670   2.924   5.930  0.2272  1.2595 -0.5721
   53MOL   H33729561   6.547   2.834   5.836  2.3803 -1.4697 -0.6376
   53MOL   O33829562   6.525   3.177   5.508  0.2994  0.1749  0.4772
   53MOL   C33929563   6.494   3.265   5.400  0.3267 -0.1733  0.5351
   53MOL   C34029564   6.586   3.388   5.394 -0.0123 -0.4470  0.3970
   53MOL   O34129565   6.673   3.379   5.278 -0.1888 -0.2646  0.1487
   53MOL   C34229566   6.521   3.528   5.406 -0.0056  0.2435  0.2278
   53MOL   C34329567   6.432   3.551   5.535  0.0673 -0.3344 -0.1202
   53MOL   C34429568   6.361   3.680   5.549  0.4937  0.1850 -0.2514
   53MOL   O34529569   6.265   3.658   5.649  0.2976  0.4179  0.1336
   53MOL   C34629570   6.294   3.735   5.422 -0.7788 -0.1664  0.6647
   53MOL   C34729571   6.246   3.880   5.449 -0.0201 -0.6658  0.3686
   53MOL   C34829572   6.398   3.720   5.312  0.4531  0.3169  0.1725
   53MOL   C34929573   6.449   3.576   5.284 -0.5962 -0.6696 -0.2737
   53MOL   H35029574   6.386   3.280   5.396  0.5047  0.7314 -1.1919
   53MOL   H35129575   6.518   3.200   5.317  0.7161 -0.0424  0.5432
   53MOL   H35229576   6.661   3.394   5.473  0.7536  1.0172 -0.4196
   53MOL   H35329577   6.756   3.339   5.299  0.3865 -0.0608 -1.7170
   53MOL   H35429578   6.598   3.599   5.435 -0.1314  1.0912 -1.4577
   53MOL   H35529579   6.358   3.473   5.522  0.8482 -1.1083  0.0371
   53MOL   H35629580   6.492   3.537   5.625 -1.7616 -2.4011  0.7915
   53MOL   H35729581   6.438   3.747   5.587 -0.1691  1.8814 -1.7765
   53MOL   H35829582   6.208   3.733   5.658  1.6412  1.4699  0.0584
   53MOL   H35929583   6.211   3.674   5.387 -0.1577 -1.5533  1.5959
   53MOL   H36029584   6.322   3.940   5.498 -0.5483 -2.3943  3.4410
   53MOL   H36129585   6.215   3.920   5.352  1.1304  0.6322  0.5110
   53MOL   H36229586   6.490   3.778   5.327  0.2104  0.8720 -0.4684
   53MOL   H36329587   6.361   3.759   5.217  0.2547 -1.0712 -0.3317
   53MOL   H36429588   6.521   3.584   5.203 -0.3009 -2.1203 -0.1698
   53MOL   H36529589   6.362   3.523   5.246  1.2516 -2.9961 -1.4389
   53MOL   O36629590   6.138   3.866   5.540 -0.1703  0.1407  0.0294
   53MOL   C36729591   6.081   3.992   5.569  0.3562 -0.3887  0.0559
   53MOL   C36829592   5.956   3.974   5.659 -0.2443  0.6900 -0.5436
   53MOL   O36929593   5.935   4.105   5.697  0.1818 -0.0144 -0.6906
   53MOL   C37029594   5.834   3.911   5.584  1.0056 -0.4183 -0.3285
   53MOL   C37129595   5.844   3.762   5.582 -0.0031 -0.3039 -0.1043
   53MOL   C37229596   5.737   3.675   5.520 -0.5761 -0.9071 -0.7456
   53MOL   O37329597   5.787   3.543   5.510 -0.0059 -0.1078  0.0943
   53MOL   C37429598   5.692   3.734   5.382  0.0978  0.5928  0.2400
   53MOL   C37529599   5.563   3.658   5.329  0.0591 -1.0298  0.4915
   53MOL   C37629600   5.675   3.887   5.396 -0.1094 -0.1469  0.2427
   53MOL   C37729601   5.803   3.963   5.443 -0.0045  0.0620  0.3779
   53MOL   H37829602   6.050   4.033   5.473  1.5365 -2.1984 -1.1282
   53MOL   H37929603   6.157   4.059   5.608  0.0118  0.0237  0.0146
   53MOL   H38029604   5.985   3.915   5.746  2.5325 -1.1521 -2.6180
   53MOL   H38129605   5.890   4.106   5.780  0.7766 -2.2432 -0.3293
   53MOL   H38229606   5.753   3.934   5.653  1.0408  1.2648 -0.8015
   53MOL   H38329607   5.943   3.746   5.538 -0.4605 -0.4787 -1.0583
   53MOL   H38429608   5.855   3.721   5.683  0.1209 -0.3321 -0.1284
   53MOL   H38529609   5.645   3.678   5.579 -1.6229 -1.0562 -2.3467
   53MOL   H38629610   5.856   3.536   5.446 -0.2640  1.2472 -0.3298
   53MOL   H38729611   5.765   3.723   5.301 -1.6042  0.7318 -1.3272
   53MOL   H38829612   5.590   3.553   5.323 -0.4758 -1.0661 -1.3550
   53MOL   H38929613   5.478   3.662   5.397 -1.6812  1.4623 -1.7107
   53MOL   H39029614   5.590   3.911   5.461 -1.1385 -1.6829 -0.5138
   53MOL   H39129615   5.649   3.925   5.297  3.6451 -0.2696 -0.8561
   53MOL   H39229616   5.803   4.072   5.437 -0.1161  0.0596  0.3533
   53MOL   H39329617   5.889   3.937   5.381 -1.2597 -0.6379 -1.0829
   53MOL   O39429618   5.518   3.714   5.200  0.1882 -0.9150 -0.3633
   53MOL   C39529619   5.552   3.643   5.086 -0.1666 -0.0622  0.4734
   53MOL   C39629620   5.472   3.710   4.976  0.6261  0.0930 -0.1665
   53MOL   O39729621   5.503   3.853   4.980 -0.5929  0.0564 -0.0055
   53MOL   C39829622   5.509   3.665   4.834 -0.2265  0.1797 -0.1014
   53MOL   C39929623   5.431   3.737   4.724  0.1902 -0.1199 -0.2347
   53MOL   C40029624   5.469   3.685   4.583  0.1265 -0.1382  0.9452
   53MOL   O40129625   5.381   3.749   4.494  0.0219 -0.3366 -0.0320
   53MOL   C40229626   5.457   3.534   4.561  0.8833  0.1429  0.1635
   53MOL   C40329627   5.509   3.480   4.429  0.7446  0.8844  0.1325
   53MOL   C40429628   5.528   3.459   4.676  0.8533 -0.3348 -0.6166
   53MOL   C40529629   5.488   3.512   4.817 -0.2834  0.8097 -0.4268
   53MOL   H40629630   5.522   3.540   5.100  3.5661 -1.4790 -1.2613
   53MOL   H40729631   5.658   3.636   5.061 -0.5731  1.8508 -1.9981
   53MOL   H40829632   5.365   3.697   4.992  0.6002 -0.1647 -0.5377
   53MOL   H40929633   5.449   3.900   5.042 -0.3551 -0.7863  0.8575
   53MOL   H41029634   5.617   3.677   4.825 -0.0424 -1.9377 -0.7543
   53MOL   H41129635   5.324   3.744   4.744  0.6367  1.6897  1.7211
   53MOL   H41229636   5.450   3.844   4.732  1.0998 -0.1489 -1.8989
   53MOL   H41329637   5.570   3.723   4.569 -0.1312  0.4696  0.7379
   53MOL   H41429638   5.383   3.838   4.526  0.1696 -0.9777  1.7332
   53MOL   H41529639   5.351   3.508   4.566  0.9194 -0.3260 -1.2807
   53MOL   H41629640   5.479   3.550   4.351 -2.9893 -0.2431  0.4794
   53MOL   H41729641   5.617   3.479   4.415  0.5875 -0.1340 -1.0796
   53MOL   H41829642   5.636   3.451   4.668  0.8288  0.1853 -1.5850
   53MOL   H41929643   5.485   3.359   4.674 -0.8066  0.2994  1.2400
   53MOL   H42029644   5.546   3.464   4.897  0.5689 -0.6237 -1.8821
   53MOL   H42129645   5.382   3.491   4.834 -0.0737 -0.2818 -0.3923
   53MOL   O42229646   5.443   3.361   4.397 -0.2880 -0.2584  0.2984
   53MOL   C42329647   5.524   3.244   4.389 -0.5778 -0.3462  0.2092
   53MOL   C42429648   5.440   3.117   4.370  0.6137 -0.7586  0.0517
   53MOL   O42529649   5.416   3.095   4.233 -0.3635  0.2498 -0.2861
   53MOL   C42629650   5.507   2.989   4.432 -0.2505  0.1587  0.0627
   53MOL   C42729651   5.633   2.945   4.355  0.2026 -0.4098  0.1310
   53MOL   C42829652   5.681   2.800   4.402 -0.7564 -0.7400  0.1494
   53MOL   O42929653   5.775   2.754   4.307 -0.1065  0.5078 -0.3724
   53MOL   C43029654   5.568   2.701   4.419  0.3476  0.0099  0.3961
   53MOL   C43129655   5.606   2.562   4.460  0.0397  0.4797  0.1376
   53MOL   C43229656   5.460   2.766   4.509  0.4619 -0.5870 -0.5813
   53MOL   C43329657   5.396   2.883   4.447  0.1212  0.5159 -0.1675
   53MOL   H43429658   5.579   3.247   4.483  2.0738 -0.0226 -1.3041
   53MOL   H43529659   5.598   3.255   4.309  0.1802  1.1000  1.0759
   53MOL   H43629660   5.340   3.133   4.412  1.1248  0.7404  0.7155
   53MOL   H43729661   5.356   3.165   4.212  0.6219  0.8522 -1.1400
   53MOL   H43829662   5.542   3.010   4.533  3.1981 -2.5899 -0.4699
   53MOL   H43929663   5.606   2.941   4.250  1.1860  0.8899 -0.1870
   53MOL   H44029664   5.715   3.016   4.360 -0.9035  1.3300 -3.9604
   53MOL   H44129665   5.727   2.804   4.501 -0.6262  1.6999  0.0316
   53MOL   H44229666   5.852   2.809   4.302  0.4163 -0.2298 -0.5401
   53MOL   H44329667   5.530   2.699   4.317 -1.3919 -1.6518  1.0340
   53MOL   H44429668   5.531   2.487   4.437  0.0324  0.1546  1.1814
   53MOL   H44529669   5.701   2.532   4.417  0.1701 -1.5358  1.7603
   53MOL   H44629670   5.511   2.797   4.600 -0.4690  0.8327 -0.5363
   53MOL   H44729671   5.385   2.689   4.533 -1.6499  1.6739  0.2916
   53MOL   H44829672   5.324   2.919   4.521  1.2354  0.5276  0.9351
   53MOL   H44929673   5.343   2.860   4.355 -1.3987  2.7632  0.0964
   53MOL   O45029674   5.627   2.558   4.604 -0.8977 -0.0542  0.4581
   53MOL   C45129675   5.536   2.475   4.679  0.3402 -0.5135  0.0309
   53MOL   C45229676   5.561   2.491   4.830 -1.0733 -0.3693  0.1543
   53MOL   O45329677   5.690   2.440   4.855  0.3379  0.0557 -0.0584
   53MOL   C45429678   5.529   2.638   4.872  0.6246 -0.8495  0.1614
   53MOL   C45529679   5.573   2.648   5.022 -0.5405 -0.1685  0.5114
   53MOL   C45629680   5.541   2.797   5.075  0.7378  0.7776  0.4070
   53MOL   O45729681   5.574   2.807   5.215 -0.2657 -0.3193  0.3212
   53MOL   C45829682   5.395   2.835   5.061 -0.2722  0.1083 -0.1396
   53MOL   C45929683   5.376   2.983   5.101 -0.5157 -0.6664  0.0972
   53MOL   C46029684   5.346   2.812   4.916  0.2447  0.5023 -0.0159
   53MOL   C46129685   5.378   2.675   4.864 -0.0686 -0.2634 -0.6142
   53MOL   H46229686   5.540   2.372   4.644 -1.8331 -0.6615  0.1316
   53MOL   H46329687   5.435   2.507   4.653  1.1009  1.3674 -0.7247
   53MOL   H46429688   5.488   2.432   4.885  0.7795 -1.8639  1.0786
   53MOL   H46529689   5.750   2.496   4.808  2.1633 -0.8860  1.0831
   53MOL   H46629690   5.587   2.706   4.810  1.8703 -0.5234  1.6354
   53MOL   H46729691   5.526   2.563   5.070  0.0945 -1.5837 -1.3361
   53MOL   H46829692   5.682   2.638   5.018 -0.5777 -0.3874  0.0066
   53MOL   H46929693   5.612   2.865   5.029  0.4889  0.2479 -0.7705
   53MOL   H47029694   5.655   2.760   5.228  1.9120  2.8382 -1.3435
   53MOL   H47129695   5.337   2.767   5.123 -0.6627  0.4417 -0.1375
   53MOL   H47229696   5.382   2.983   5.210 -1.4083  0.4896  0.1624
   53MOL   H47329697   5.453   3.050   5.062 -1.0790  0.5053  0.9474
   53MOL   H47429698   5.393   2.877   4.842  1.6041 -0.3812  0.0415
   53MOL   H47529699   5.238   2.816   4.908  0.0344 -0.8176  1.9222
   53MOL   H47629700   5.355   2.679   4.757  2.3530 -1.1112 -1.2105
   53MOL   H47729701   5.315   2.606   4.920 -0.7625  0.7322 -0.1541
   53MOL   O47829702   5.248   3.038   5.070 -0.0285 -0.4866  0.1050
   53MOL   C47929703   5.247   3.169   5.139 -0.2540  0.4469  0.9004
   53MOL   C48029704   5.101   3.222   5.131 -0.4759 -0.3668  0.1513
   53MOL   O48129705   5.023   3.141   5.210  0.6117  0.2537  0.6778
   53MOL   C48229706   5.086   3.368   5.189 -0.8778 -0.1577 -1.2587
   53MOL   C48329707   4.955   3.433   5.141  0.4277  0.5703 -0.1643
   53MOL   C48429708   4.943   3.579   5.177 -0.2795 -0.4618  0.0264
   53MOL   O48529709   4.822   3.621   5.120 -0.4980 -0.5575 -0.9730
   53MOL   C48629710   5.069   3.667   5.148 -0.7946  0.2474  0.7172
   53MOL   C48729711   5.055   3.816   5.198 -0.6593 -0.1723 -0.3018
   53MOL   C48829712   5.196   3.603   5.216 -0.3589 -0.5456 -0.0551
   53MOL   C48929713   5.213   3.457   5.152  0.6912 -0.0035 -0.3624
   53MOL   H49029714   5.312   3.225   5.072  0.3819 -1.6900 -0.3276
   53MOL   H49129715   5.295   3.165   5.237  1.1645 -1.3650  0.1591
   53MOL   H49229716   5.069   3.219   5.026  0.0607 -0.2340 -0.0207
   53MOL   H49329717   5.051   3.051   5.203 -0.2262 -0.1003  1.6701
   53MOL   H49429718   5.088   3.362   5.298  1.7457  0.5083 -1.2396
   53MOL   H49529719   4.953   3.425   5.032  1.6744  1.6690 -0.2847
   53MOL   H49629720   4.872   3.375   5.181  0.3275 -0.7709 -2.2339
   53MOL   H49729721   4.921   3.592   5.283 -0.6279 -0.8948  0.0076
   53MOL   H49829722   4.784   3.548   5.072 -0.9184 -0.8734 -0.1716
   53MOL   H49929723   5.076   3.676   5.040 -0.7895  0.2443  0.7169
   53MOL   H50029724   4.979   3.869   5.140  0.8114  0.7963 -1.3661
   53MOL   H50129725   5.016   3.818   5.300 -0.5821 -0.0560 -0.2742
   53MOL   H50229726   5.200   3.597   5.325  1.4119  2.3893  0.0707
   53MOL   H50329727   5.279   3.665   5.183  0.5687 -0.2556  2.7206
   53MOL   H50429728   5.303   3.410   5.190  0.6917 -1.2433 -1.8265
   53MOL   H50529729   5.226   3.449   5.044  0.2585  3.8509 -0.7771
   53MOL   O50629730   5.178   3.882   5.196 -0.6533 -0.3198  0.2220
   53MOL   C50729731   5.184   4.001   5.271  0.8861  0.7532 -0.7982
   53MOL   C50829732   5.326   4.058   5.261 -0.5761  0.9128  0.2738
   53MOL   O50929733   5.338   4.091   5.126 -0.3121  0.5178 -0.2215
   53MOL   C51029734   5.353   4.182   5.353 -0.1746 -0.2187  0.4684
   53MOL   C51129735   5.504   4.221   5.353  0.5977 -0.1393  0.4991
   53MOL   C51229736   5.537   4.329   5.446  0.0789 -0.2377  0.0077
   53MOL   O51329737   5.672   4.359   5.422  0.4019 -0.6017 -0.4312
   53MOL   C51429738   5.503   4.297   5.599 -0.2514  0.2264  0.1289
   53MOL   C51529739   5.535   4.406   5.696  0.2598  0.3418 -0.6407
   53MOL   C51629740   5.357   4.260   5.592 -0.1254 -0.0378  0.6812
   53MOL   C51729741   5.318   4.141   5.497  0.2882 -0.2771 -0.0920
   53MOL   H51829742   5.171   3.959   5.370 -1.5186  1.1022 -0.9429
   53MOL   H51929743   5.100   4.069   5.259 -0.5482 -0.4374  1.9989
   53MOL   H52029744   5.404   3.983   5.274  1.4041  2.6649 -0.9986
   53MOL   H52129745   5.263   4.045   5.092  0.4626 -2.9336  2.4133
   53MOL   H52229746   5.285   4.259   5.318 -0.1390 -0.4370 -0.0864
   53MOL   H52329747   5.577   4.144   5.378  2.4297  0.5563 -2.4194
   53MOL   H52429748   5.537   4.240   5.251  2.4988 -1.3258  0.8668
   53MOL   H52529749   5.482   4.422   5.429 -0.4597 -0.1550  2.0530
   53MOL   H52629750   5.712   4.280   5.390  1.1911  0.0178 -1.0135
   53MOL   H52729751   5.553   4.207   5.634  0.3259  1.0366  1.4543
   53MOL   H52829752   5.644   4.409   5.697  0.3147 -1.2863  0.5069
   53MOL   H52929753   5.502   4.504   5.663 -1.6126 -0.7201 -2.0207
   53MOL   H53029754   5.301   4.350   5.567  0.4235  0.3852  0.9731
   53MOL   H53129755   5.326   4.240   5.695 -0.1717  1.4717  0.9693
   53MOL   H53229756   5.217   4.107   5.517  0.1010  0.9127  1.0513
   53MOL   H53329757   5.370   4.051   5.530  0.3154 -0.1211  0.2978
   53MOL   O53429758   5.491   4.359   5.823  0.3472  0.1430 -0.2863
   53MOL   C53529759   5.481   4.457   5.927 -0.2389 -0.3611 -0.2755
   53MOL   C53629760   5.615   4.515   5.972  0.4859  0.5199 -0.2062
   53MOL   O53729761   5.601   4.630   6.050  0.3109  0.1140 -0.3903
   53MOL   C53829762   5.712   4.417   6.049  0.1159 -0.1348 -0.2697
   53MOL   C53929763   5.731   4.286   5.970  0.4110 -0.4423 -0.4065
   53MOL   C54029764   5.818   4.181   6.035 -0.3135  0.1136 -0.1530
   53MOL   O54129765   5.800   4.062   5.954 -0.3158 -0.0094 -0.0139
   53MOL   C54229766   5.751   4.158   6.180 -0.1071  0.4411 -0.2089
   53MOL   C54329767   5.825   4.050   6.253 -0.1392  0.5661 -0.4560
   53MOL   C54429768   5.747   4.289   6.264  0.3919  0.4431 -0.4453
   53MOL   C54529769   5.666   4.402   6.199  0.1793  0.0670  0.1758
   53MOL   H54629770   5.426   4.410   6.008 -0.4122  1.1256  0.4873
   53MOL   H54729771   5.428   4.542   5.884  3.1023  2.5916  1.1831
   53MOL   H54829772   5.666   4.547   5.881  0.0745  0.2736 -0.5290
   53MOL   H54929773   5.521   4.630   6.100  1.3723 -0.6585  1.3905
   53MOL   H55029774   5.806   4.473   6.046 -0.1561  0.2550 -1.5975
   53MOL   H55129775   5.633   4.244   5.950 -0.6622  0.8490  1.9309
   53MOL   H55229776   5.761   4.306   5.867 -1.2444 -1.5694 -1.1265
   53MOL   H55329777   5.925   4.200   6.044 -0.7668  2.1791  1.3727
   53MOL   H55429778   5.708   4.048   5.966 -0.4164  0.7534  0.1122
   53MOL   H55529779   5.651   4.119   6.164  0.3791 -0.5488 -0.9008
   53MOL   H55629780   5.779   4.037   6.351 -0.2870  0.7458 -0.5002
   53MOL   H55729781   5.836   3.956   6.199  2.3956  2.0659 -2.6800
   53MOL   H55829782   5.848   4.311   6.297  0.8436 -0.5337 -1.1672
   53MOL   H55929783   5.696   4.270   6.359  0.9654  0.3813 -0.1494
   53MOL   H56029784   5.683   4.499   6.245  0.3103  0.7106 -1.1940
   53MOL   H56129785   5.561   4.373   6.198 -0.0653  0.9216  0.9602
   53MOL   H56229786   5.924   4.088   6.280  0.0006 -1.8282  2.5975
   54MOL     O129787   0.097   7.170   6.227 -0.6584  0.6658  0.1454
   54MOL     C229788   0.232   7.166   6.189  0.3046 -0.1008  0.1039
   54MOL     C329789   0.234   7.124   6.041 -0.0678 -0.2209  0.0342
   54MOL     O429790   0.206   7.239   5.966 -0.4835  0.6136 -0.1508
   54MOL     C529791   0.372   7.076   5.978 -0.0612  0.2098 -0.1241
   54MOL     C629792   0.402   6.936   6.030 -0.0640  1.2215  0.0327
   54MOL     C729793   0.525   6.867   5.967 -0.6633 -0.3132  0.4508
   54MOL     O829794   0.522   6.741   6.027  0.2541  0.5276 -0.0149
   54MOL     C929795   0.653   6.953   5.976  0.5007 -0.0219  0.3710
   54MOL    C1029796   0.761   6.901   5.882 -0.2179  0.9563  0.4091
   54MOL    C1129797   0.622   7.103   5.932  0.3669 -0.1260 -0.5805
   54MOL    C1229798   0.495   7.162   5.994 -0.5037 -0.1451  0.4078
   54MOL    H1329799   0.270   7.084   6.250  2.2456  0.8177  0.1796
   54MOL    H1429800   0.288   7.255   6.218 -1.6994  1.4631 -0.7632
   54MOL    H1529801   0.156   7.052   6.015 -0.2391  0.2580 -0.7846
   54MOL    H1629802   0.142   7.287   6.015 -2.1016 -1.0666 -0.5796
   54MOL    H1729803   0.337   7.068   5.875 -0.2768  0.3313 -0.0581
   54MOL    H1829804   0.408   6.943   6.138  1.2810 -1.1183  0.1401
   54MOL    H1929805   0.311   6.879   6.010 -0.0276  0.6001  1.5803
   54MOL    H2029806   0.515   6.849   5.860 -1.3330  0.3862  0.3951
   54MOL    H2129807   0.590   6.690   5.985 -1.3156 -0.2905 -1.5905
   54MOL    H2229808   0.674   6.943   6.083 -2.9797  0.1301  1.1258
   54MOL    H2329809   0.721   6.898   5.780  0.6048  1.5672  0.0601
   54MOL    H2429810   0.848   6.966   5.871 -0.2452  1.0997  1.0258
   54MOL    H2529811   0.603   7.087   5.826 -2.0861  1.2328 -0.4140
   54MOL    H2629812   0.711   7.165   5.944  1.7227 -2.3104  0.9119
   54MOL    H2729813   0.472   7.266   5.970 -0.1722 -0.1010  0.2851
   54MOL    H2829814   0.508   7.178   6.101 -3.1824  2.2254  0.4421
   54MOL    H2929815   0.070   7.080   6.235  0.7867  0.2593  0.6423
   54MOL    O3029816   0.793   6.773   5.937 -0.0449  0.1825  0.4980
   54MOL    C3129817   0.853   6.691   5.847  0.0934 -0.3819  0.5064
   54MOL    C3229818   0.841   6.559   5.921  0.0312  0.8667  0.4414
   54MOL    O3329819   0.706   6.524   5.894  0.8900 -0.2234 -0.4776
   54MOL    C3429820   0.936   6.443   5.870  0.0701 -0.1730  0.3102
   54MOL    C3529821   0.922   6.407   5.726 -0.8805  0.1697  0.0872
   54MOL    C3629822   1.021   6.295   5.691  0.1820  0.0704 -0.8382
   54MOL    O3729823   1.003   6.259   5.559  0.0981 -0.4623  0.0572
   54MOL    C3829824   1.018   6.163   5.780 -0.3517  0.7115  0.5841
   54MOL    C3929825   1.123   6.071   5.734  0.2513  1.0049  0.1341
   54MOL    C4029826   1.039   6.215   5.925 -0.1807  0.1184 -0.2321
   54MOL    C4129827   0.931   6.321   5.957  0.3028 -0.2035  0.7146
   54MOL    H4229828   0.956   6.725   5.835 -0.3801  0.8150 -0.2252
   54MOL    H4329829   0.817   6.685   5.745  1.6760 -0.3097 -0.0664
   54MOL    H4429830   0.857   6.572   6.028  1.5693  0.0736  0.3222
   54MOL    H4529831   0.684   6.555   5.808  1.2517  0.7125 -0.2362
   54MOL    H4629832   1.035   6.489   5.875 -0.0723  0.2769 -0.8677
   54MOL    H4729833   0.826   6.357   5.716 -1.4409  0.8713  1.7161
   54MOL    H4829834   0.927   6.491   5.656 -2.0443 -1.7205 -2.3726
   54MOL    H4929835   1.119   6.342   5.703  0.1455 -0.3469  1.3534
   54MOL    H5029836   1.024   6.336   5.508 -1.0970  0.0815  0.3580
   54MOL    H5129837   0.922   6.112   5.777  0.9032 -2.2283  4.8273
   54MOL    H5229838   1.081   6.028   5.643  3.0948  1.0010 -1.2103
   54MOL    H5329839   1.211   6.128   5.705  1.1588  0.0016  0.8481
   54MOL    H5429840   1.143   6.239   5.944 -0.2622  1.0719 -0.9810
   54MOL    H5529841   1.013   6.142   6.003 -0.2851 -0.3417 -0.6921
   54MOL    H5629842   0.921   6.339   6.064  2.5698 -1.6101  1.1868
   54MOL    H5729843   0.839   6.264   5.939  0.9217 -0.9474 -0.1453
   54MOL    O5829844   1.164   5.962   5.826 -0.1456 -0.1660  0.0920
   54MOL    C5929845   1.278   5.892   5.803  0.2955  0.4429  0.0709
   54MOL    C6029846   1.303   5.825   5.660 -0.4200  0.0235  0.5504
   54MOL    O6129847   1.439   5.787   5.651  0.4355  0.2548 -0.6414
   54MOL    C6229848   1.208   5.708   5.624  0.6082  0.1074  0.0091
   54MOL    C6329849   1.213   5.591   5.723  0.7979  0.7309  0.2619
   54MOL    C6429850   1.130   5.469   5.676  0.0600 -0.7776  0.0453
   54MOL    O6529851   1.157   5.361   5.756  0.0117  0.0886  0.2146
   54MOL    C6629852   1.165   5.428   5.529  0.1161  0.7362  0.0039
   54MOL    C6729853   1.074   5.312   5.479 -0.1836  0.2416  0.8271
   54MOL    C6829854   1.149   5.547   5.436  0.7657  0.7698 -0.7313
   54MOL    C6929855   1.244   5.667   5.479 -0.0700  0.0974 -0.1219
   54MOL    H7029856   1.286   5.809   5.874 -1.7545  0.5343  0.4379
   54MOL    H7129857   1.347   5.970   5.832  0.6344  0.8635 -1.8382
   54MOL    H7229858   1.278   5.908   5.594 -0.5128 -0.1493  0.3663
   54MOL    H7329859   1.446   5.708   5.702  0.2641 -0.2366 -1.3753
   54MOL    H7429860   1.106   5.744   5.609 -0.1809 -1.6862  0.8941
   54MOL    H7529861   1.315   5.553   5.734  0.2548 -1.3535 -1.4137
   54MOL    H7629862   1.175   5.630   5.817  0.3675 -3.0346  1.7181
   54MOL    H7729863   1.022   5.482   5.685  0.0549 -0.9407  0.2283
   54MOL    H7829864   1.107   5.369   5.836 -1.3492 -1.0391 -0.5023
   54MOL    H7929865   1.270   5.398   5.535 -0.4528 -1.6160 -1.4552
   54MOL    H8029866   1.072   5.228   5.548  1.3219  1.0615  1.8890
   54MOL    H8129867   0.973   5.353   5.472  0.3209  1.5792  1.2645
   54MOL    H8229868   1.045   5.580   5.445  0.6626  0.0482  0.8790
   54MOL    H8329869   1.182   5.513   5.338  0.0774 -2.4777  0.1015
   54MOL    H8429870   1.223   5.753   5.416 -2.8631  0.9217  1.8130
   54MOL    H8529871   1.351   5.647   5.472 -0.1359 -0.8502  1.4600
   54MOL    O8629872   1.114   5.261   5.353  0.5141 -0.0204 -0.8641
   54MOL    C8729873   1.245   5.197   5.352  0.5235 -0.6132 -0.2973
   54MOL    C8829874   1.256   5.099   5.233  0.8410 -0.2879  0.3206
   54MOL    O8929875   1.201   5.174   5.122  1.0417 -0.2932 -0.1553
   54MOL    C9029876   1.396   5.026   5.211 -0.3509  0.1230  0.3614
   54MOL    C9129877   1.501   5.125   5.174  0.1820  0.8455 -0.0594
   54MOL    C9229878   1.639   5.062   5.148 -0.3793 -0.0911  0.2120
   54MOL    O9329879   1.726   5.165   5.115 -0.4465 -0.0174 -0.2188
   54MOL    C9429880   1.638   4.948   5.042  0.5295 -0.0693 -0.9548
   54MOL    C9529881   1.777   4.884   5.038 -0.3609 -0.3883  0.7534
   54MOL    C9629882   1.528   4.848   5.074 -0.1050  0.3603 -0.5706
   54MOL    C9729883   1.395   4.919   5.104 -0.3567  0.2640  0.3938
   54MOL    H9829884   1.263   5.145   5.445  0.0873  1.7394  1.1475
   54MOL    H9929885   1.318   5.276   5.334  0.1278 -0.2485 -0.3396
   54MOL   H10029886   1.168   5.034   5.244 -0.4212  1.3174 -0.1018
   54MOL   H10129887   1.133   5.225   5.164  1.7228  0.0698  0.5244
   54MOL   H10229888   1.430   4.984   5.306 -3.9826  0.3804  1.8776
   54MOL   H10329889   1.465   5.174   5.084  1.5097 -1.6394 -2.0037
   54MOL   H10429890   1.518   5.186   5.263 -0.2837 -2.3115  2.2835
   54MOL   H10529891   1.672   5.021   5.243 -0.8608 -1.4086 -0.1686
   54MOL   H10629892   1.688   5.200   5.035  0.5031 -1.6878 -1.4436
   54MOL   H10729893   1.625   4.998   4.947  0.8340 -1.0397 -1.5150
   54MOL   H10829894   1.838   4.958   4.987 -2.0596  0.5871  0.1161
   54MOL   H10929895   1.820   4.866   5.137 -0.0367  0.1498  0.7147
   54MOL   H11029896   1.555   4.793   5.164 -0.5007  0.8263 -0.1636
   54MOL   H11129897   1.511   4.776   4.994  1.1949  0.6214 -1.0845
   54MOL   H11229898   1.316   4.845   5.116  1.0470 -1.2646  0.2430
   54MOL   H11329899   1.365   4.961   5.008 -0.6558  1.9059  1.1841
   54MOL   O11429900   1.770   4.764   4.958  0.4613  0.3198  0.8616
   54MOL   C11529901   1.889   4.699   4.951  0.3419 -0.1860 -0.3454
   54MOL   C11629902   1.886   4.610   4.832  0.0545  0.6732 -0.4452
   54MOL   O11729903   2.018   4.569   4.798  0.0719  0.2880  0.2484
   54MOL   C11829904   1.803   4.476   4.851  0.5379  0.1649 -0.1121
   54MOL   C11929905   1.776   4.427   4.709  0.8033 -0.2087  0.0679
   54MOL   C12029906   1.696   4.292   4.705 -0.3861  1.0115 -0.2309
   54MOL   O12129907   1.663   4.252   4.575  0.0176  0.1286 -0.5129
   54MOL   C12229908   1.570   4.304   4.792 -0.2480  0.2965  0.6039
   54MOL   C12329909   1.495   4.174   4.793  1.1821 -0.4867 -0.0305
   54MOL   C12429910   1.604   4.353   4.933  0.0759 -0.1540 -0.0949
   54MOL   C12529911   1.680   4.485   4.936  0.3427 -0.0728  0.0427
   54MOL   H12629912   1.914   4.636   5.037 -1.0320 -0.8305 -0.4090
   54MOL   H12729913   1.970   4.768   4.926  1.0356 -0.7624  0.2714
   54MOL   H12829914   1.838   4.659   4.747  0.3869  0.9984 -0.4458
   54MOL   H12929915   2.057   4.655   4.790  0.8661 -0.0363  0.6109
   54MOL   H13029916   1.866   4.404   4.903  2.8098  1.3535 -1.1889
   54MOL   H13129917   1.716   4.493   4.647 -1.0699  0.9076  2.9194
   54MOL   H13229918   1.875   4.405   4.670  1.3323 -0.0106  1.2720
   54MOL   H13329919   1.763   4.224   4.758  0.5987  0.6353 -1.9164
   54MOL   H13429920   1.644   4.327   4.520  1.0361  1.9403  1.5227
   54MOL   H13529921   1.503   4.379   4.750 -0.0693 -0.1970 -0.5827
   54MOL   H13629922   1.446   4.148   4.699 -1.2165  1.2679  0.6759
   54MOL   H13729923   1.559   4.089   4.819 -0.3807 -1.2795  1.3505
   54MOL   H13829924   1.651   4.270   4.988 -0.7509  0.2632  1.2583
   54MOL   H13929925   1.514   4.369   4.993 -2.1724 -0.2688 -3.3240
   54MOL   H14029926   1.708   4.526   5.033 -1.4975  0.5757  0.3264
   54MOL   H14129927   1.615   4.549   4.877  0.0440 -2.1381 -1.9225
   54MOL   O14229928   1.389   4.181   4.888 -0.1186 -0.0482 -0.4590
   54MOL   C14329929   1.341   4.050   4.917  0.4337 -0.5511 -0.4535
   54MOL   C14429930   1.219   4.057   5.006  0.4396 -0.0385  0.3297
   54MOL   O14529931   1.131   3.946   4.976  0.0683  0.0269  0.0173
   54MOL   C14629932   1.255   4.077   5.152  0.4310  0.2554 -0.2545
   54MOL   C14729933   1.331   3.958   5.219 -0.0523 -0.0663  0.0574
   54MOL   C14829934   1.356   3.975   5.369  0.0868 -0.2669  0.1336
   54MOL   O14929935   1.412   3.857   5.411  0.0179  0.2208 -0.3642
   54MOL   C15029936   1.227   4.003   5.446  0.5881  0.3644 -0.8454
   54MOL   C15129937   1.244   4.024   5.598  0.0602  0.6958  0.4926
   54MOL   C15229938   1.154   4.129   5.386  0.1098 -0.6256  0.9786
   54MOL   C15329939   1.135   4.127   5.234  0.2189 -0.3465 -1.0559
   54MOL   H15429940   1.411   3.980   4.963 -1.2994 -0.5919  2.2081
   54MOL   H15529941   1.324   3.991   4.827 -2.2909 -0.6033  0.0620
   54MOL   H15629942   1.163   4.147   4.979 -1.2695 -0.2137  3.1130
   54MOL   H15729943   1.171   3.864   5.001  2.4200  0.5411 -1.8946
   54MOL   H15829944   1.318   4.164   5.167 -0.8471  0.8444  2.0444
   54MOL   H15929945   1.283   3.865   5.190  2.6158 -1.0026 -1.5295
   54MOL   H16029946   1.431   3.945   5.178  0.6185  2.2500  0.8614
   54MOL   H16129947   1.431   4.053   5.387 -0.4195  0.3543 -0.4117
   54MOL   H16229948   1.456   3.866   5.494  2.3418 -4.0214 -1.0142
   54MOL   H16329949   1.171   3.911   5.430  0.6803  0.3485 -1.0786
   54MOL   H16429950   1.155   3.983   5.645  0.4579  0.7026  1.2686
   54MOL   H16529951   1.313   3.951   5.641  0.1994 -0.0856 -1.0095
   54MOL   H16629952   1.213   4.218   5.408  0.6449 -0.6266 -0.3959
   54MOL   H16729953   1.057   4.143   5.433 -0.0874 -0.3146  0.4918
   54MOL   H16829954   1.124   4.231   5.203  0.4383  0.9809  3.0798
   54MOL   H16929955   1.049   4.068   5.201 -0.5823 -0.1219  0.5874
   54MOL   O17029956   1.270   4.160   5.633  0.0089  0.2966 -0.0527
   54MOL   C17129957   1.268   4.177   5.775  0.0913  0.0350  0.3174
   54MOL   C17229958   1.259   4.330   5.803 -0.2228 -0.0502 -0.3259
   54MOL   O17329959   1.187   4.341   5.926 -0.2154 -0.4199 -0.0130
   54MOL   C17429960   1.391   4.421   5.810  0.0738  0.8185 -0.1983
   54MOL   C17529961   1.480   4.375   5.929  0.4669  0.2460  0.3326
   54MOL   C17629962   1.602   4.466   5.936 -0.0459 -0.0191  0.2459
   54MOL   O17729963   1.695   4.415   6.030 -0.6058  0.3271 -0.0314
   54MOL   C17829964   1.565   4.622   5.954  0.8460  0.0601  0.0440
   54MOL   C17929965   1.688   4.707   5.955  0.5160  0.0294 -0.1068
   54MOL   C18029966   1.483   4.657   5.824 -0.1147 -0.2205  0.1993
   54MOL   C18129967   1.357   4.572   5.810 -0.0519  0.8720 -0.3231
   54MOL   H18229968   1.357   4.129   5.816 -0.2248  0.7963  1.9230
   54MOL   H18329969   1.178   4.126   5.809  0.4497 -0.6621  0.2345
   54MOL   H18429970   1.195   4.365   5.722 -0.1143 -0.3034 -0.5223
   54MOL   H18529971   1.129   4.266   5.923 -0.3950 -0.3271  1.0327
   54MOL   H18629972   1.450   4.397   5.721 -0.3465  3.3214 -1.1871
   54MOL   H18729973   1.427   4.366   6.024  1.5607  1.2310  1.0468
   54MOL   H18829974   1.504   4.273   5.899  2.5280  1.4373 -2.2349
   54MOL   H18929975   1.655   4.458   5.841 -2.1155 -1.9687 -0.7798
   54MOL   H19029976   1.771   4.389   5.981  1.4875  1.6790  2.3462
   54MOL   H19129977   1.507   4.635   6.045 -1.6012 -0.6246 -1.3946
   54MOL   H19229978   1.759   4.687   6.035 -1.4182  1.6624  2.0665
   54MOL   H19329979   1.744   4.690   5.863  0.6192 -1.3979  0.2177
   54MOL   H19429980   1.551   4.627   5.744 -1.6623  0.5550 -1.4438
   54MOL   H19529981   1.463   4.764   5.825  0.4559 -0.1206  0.7506
   54MOL   H19629982   1.304   4.579   5.714 -1.5787 -1.4871  0.3081
   54MOL   H19729983   1.285   4.596   5.888 -1.3984 -0.2019 -1.2070
   54MOL   O19829984   1.658   4.847   5.957 -0.2530 -0.3882  0.0917
   54MOL   C19929985   1.658   4.916   6.087  1.2129 -0.8109  0.2701
   54MOL   C20029986   1.795   4.943   6.138  0.2942  0.2991 -1.2127
   54MOL   O20129987   1.846   5.042   6.054 -0.0999 -0.0865  0.2785
   54MOL   C20229988   1.803   4.998   6.282  0.5480  0.2485 -0.2505
   54MOL   C20329989   1.946   5.038   6.328  0.2457  0.5325  0.3955
   54MOL   C20429990   1.939   5.106   6.467 -0.6667  0.1477  0.2396
   54MOL   O20529991   2.077   5.119   6.504  0.0084 -0.3718 -0.3639
   54MOL   C20629992   1.880   5.013   6.576 -0.1239 -0.1571 -0.3660
   54MOL   C20729993   1.863   5.081   6.717  0.0366 -0.1525  0.3050
   54MOL   C20829994   1.741   4.948   6.535 -0.0289 -0.5258 -0.5783
   54MOL   C20929995   1.738   4.906   6.387 -0.2904  0.1812 -0.1584
   54MOL   H21029996   1.602   4.857   6.160 -0.4419 -1.5909 -1.5651
   54MOL   H21129997   1.599   5.008   6.079 -0.2710 -1.7930 -0.3688
   54MOL   H21229998   1.857   4.854   6.130 -0.6069 -0.7696  2.6745
   54MOL   H21329999   1.781   5.059   5.987  1.5495  0.7494 -1.1337
   54MOL   H21430000   1.736   5.084   6.293 -1.3601 -1.4232  1.5439
   54MOL   H21530001   2.011   4.951   6.326  0.0978  0.3754  1.6934
   54MOL   H21630002   1.976   5.111   6.253 -2.4213 -0.0945 -1.3659
   54MOL   H21730003   1.889   5.203   6.461 -1.4742 -0.3558 -1.1304
   54MOL   H21830004   2.058   5.151   6.591 -0.4598 -0.3989 -0.4544
   54MOL   H21930005   1.935   4.921   6.600 -1.2930 -0.7789 -0.0366
   54MOL   H22030006   1.786   5.159   6.716 -0.6567 -0.8319 -1.6083
   54MOL   H22130007   1.826   5.002   6.782 -0.9706  0.6580  0.7435
   54MOL   H22230008   1.675   5.032   6.558  0.1095 -0.4825 -0.3292
   54MOL   H22330009   1.707   4.874   6.606 -1.1134 -0.8970 -1.4828
   54MOL   H22430010   1.636   4.872   6.370  0.3972 -1.5883 -0.9428
   54MOL   H22530011   1.798   4.815   6.384 -0.9323 -0.2270 -0.8913
   54MOL   O22630012   1.989   5.135   6.766 -0.0614  0.1111 -0.2846
   54MOL   C22730013   1.972   5.228   6.871 -0.7625  0.0564  0.1237
   54MOL   C22830014   2.104   5.305   6.908  0.5476 -0.2072 -0.0748
   54MOL   O22930015   2.082   5.432   6.969  0.1162 -0.0633 -0.3052
   54MOL   C23030016   2.227   5.217   6.951 -0.3398 -0.0505  0.4707
   54MOL   C23130017   2.223   5.171   7.099 -0.0452  0.0899  0.6197
   54MOL   C23230018   2.327   5.065   7.144  1.0743 -0.0759 -0.1730
   54MOL   O23330019   2.316   5.045   7.281  0.2055  0.6350  0.2109
   54MOL   C23430020   2.468   5.116   7.100 -0.9771  0.2086 -0.5174
   54MOL   C23530021   2.576   5.000   7.124 -0.1360  0.0617 -0.2659
   54MOL   C23630022   2.473   5.178   6.955  0.0683 -0.0195 -0.5215
   54MOL   C23730023   2.365   5.287   6.936  0.1341 -0.3962  0.4980
   54MOL   H23830024   1.935   5.177   6.960  0.9879 -1.2388  0.1534
   54MOL   H23930025   1.896   5.302   6.844  0.6047  1.2908 -0.4393
   54MOL   H24030026   2.140   5.337   6.810 -1.4127  1.5790 -0.2318
   54MOL   H24130027   1.990   5.437   6.988  0.0029  0.0762 -0.8961
   54MOL   H24230028   2.214   5.131   6.885  0.0403 -0.8215  1.3818
   54MOL   H24330029   2.246   5.258   7.160  3.5632  0.0137 -0.4916
   54MOL   H24430030   2.119   5.144   7.119 -0.9954  1.3065 -2.3482
   54MOL   H24530031   2.292   4.976   7.093  0.5173  0.3303 -0.5013
   54MOL   H24630032   2.244   4.985   7.294 -0.6895  1.8615  1.1175
   54MOL   H24730033   2.501   5.203   7.157  0.1688  0.3858 -1.4513
   54MOL   H24830034   2.591   4.989   7.232 -4.2231 -2.4320  0.1312
   54MOL   H24930035   2.535   4.908   7.084 -2.4964  0.5125  1.0526
   54MOL   H25030036   2.452   5.106   6.876  0.7472  1.0215 -1.6957
   54MOL   H25130037   2.572   5.222   6.940 -0.0814  1.4327  2.4655
   54MOL   H25230038   2.373   5.331   6.837  0.6826 -0.2284  0.6147
   54MOL   H25330039   2.366   5.374   7.002 -0.5294 -0.7776  1.0181
   54MOL   O25430040   2.697   5.043   7.053  0.0938  0.2290  0.1805
   54MOL   C25530041   2.815   4.978   7.096 -0.1223  0.4433  0.0690
   54MOL   C25630042   2.927   5.036   7.005  0.2255  0.5644 -0.0488
   54MOL   O25730043   2.917   4.983   6.870  0.7632  0.0554  0.0980
   54MOL   C25830044   2.938   5.185   7.013  0.1547 -0.3135 -0.9990
   54MOL   C25930045   3.047   5.239   6.919  0.4967  0.7143 -0.2537
   54MOL   C26030046   3.049   5.391   6.930  0.1689  0.5833  0.5584
   54MOL   O26130047   3.166   5.417   6.856  0.7675  0.1844 -0.0448
   54MOL   C26230048   3.071   5.447   7.067 -0.0704 -0.6010  0.0009
   54MOL   C26330049   3.076   5.607   7.063  0.1658  0.7837 -0.2569
   54MOL   C26430050   2.963   5.389   7.163 -0.0285  0.0297  0.1228
   54MOL   C26530051   2.958   5.234   7.161 -0.3165  0.3571 -0.3247
   54MOL   H26630052   2.805   4.874   7.066 -3.9132  0.7439  0.1098
   54MOL   H26730053   2.826   4.993   7.204  0.3316 -0.5755  0.1683
   54MOL   H26830054   3.017   4.992   7.048 -0.1636 -0.1995  0.0004
   54MOL   H26930055   2.826   5.005   6.856  0.3776 -0.5802  1.4853
   54MOL   H27030056   2.844   5.227   6.977  0.0352  0.2610 -0.0225
   54MOL   H27130057   3.138   5.182   6.939  0.2352 -0.7980 -3.0231
   54MOL   H27230058   3.013   5.206   6.821 -0.0771  2.3405 -0.6271
   54MOL   H27330059   2.962   5.432   6.879  0.1100 -0.9618 -0.6315
   54MOL   H27430060   3.186   5.509   6.858  1.6728  0.0613 -1.9536
   54MOL   H27530061   3.164   5.406   7.106 -0.1261 -1.4107 -0.7027
   54MOL   H27630062   2.991   5.636   7.001 -0.3703 -4.3676 -2.1915
   54MOL   H27730063   3.067   5.646   7.164  0.2962 -0.9698  0.4464
   54MOL   H27830064   2.864   5.426   7.138  0.3251  0.1348 -1.1750
   54MOL   H27930065   2.984   5.422   7.264 -2.4695  0.9350  0.3660
   54MOL   H28030066   2.877   5.203   7.227 -0.5899  0.5663 -0.5618
   54MOL   H28130067   3.055   5.197   7.196 -0.8611 -2.1082 -1.3603
   54MOL   O28230068   3.208   5.646   7.005 -0.0570 -0.2059 -0.2003
   54MOL   C28330069   3.206   5.785   6.955 -0.3182  0.4103  0.3756
   54MOL   C28430070   3.342   5.825   6.884  0.1528  0.1389  1.1625
   54MOL   O28530071   3.317   5.923   6.782 -0.3313  1.1687 -0.3433
   54MOL   C28630072   3.458   5.867   6.977 -0.0104 -0.6886  0.0690
   54MOL   C28730073   3.434   6.017   7.019 -1.2523  1.0906 -0.3312
   54MOL   C28830074   3.546   6.066   7.119 -0.0617  0.3676 -0.6902
   54MOL   O28930075   3.527   6.193   7.171  0.4710 -0.2298 -0.3694
   54MOL   C29030076   3.689   6.053   7.060 -0.6069  0.3038  0.1624
   54MOL   C29130077   3.787   6.096   7.172 -0.3043 -0.2170  1.0804
   54MOL   C29230078   3.713   5.908   7.006 -0.3234 -0.3224 -0.8379
   54MOL   C29330079   3.596   5.851   6.924 -0.2825  0.4922 -0.6537
   54MOL   H29430080   3.181   5.845   7.043  3.8653  0.5824  1.5707
   54MOL   H29530081   3.126   5.805   6.885  0.4504 -1.2900 -1.0109
   54MOL   H29630082   3.379   5.734   6.838 -0.4151  0.5483 -0.1348
   54MOL   H29730083   3.256   5.880   6.724 -1.3444  1.1152  0.7271
   54MOL   H29830084   3.459   5.806   7.068 -0.2028  0.5501  0.9264
   54MOL   H29930085   3.442   6.071   6.924 -0.4481 -0.2119 -1.0104
   54MOL   H30030086   3.338   6.033   7.068 -0.5167  2.4880  0.6891
   54MOL   H30130087   3.534   6.000   7.206  0.3836 -1.7413 -2.1725
   54MOL   H30230088   3.578   6.251   7.116  0.4359 -3.5869 -4.0987
   54MOL   H30330089   3.696   6.110   6.967 -1.7208 -1.8267 -1.2695
   54MOL   H30430090   3.891   6.094   7.139  0.5418  1.2687  3.5016
   54MOL   H30530091   3.774   6.204   7.183  1.1464 -0.0369  1.1630
   54MOL   H30630092   3.701   5.842   7.092  0.9361 -2.2444 -2.0823
   54MOL   H30730093   3.813   5.894   6.966 -0.0907  1.4178 -0.8808
   54MOL   H30830094   3.612   5.747   6.894  0.9031  0.8515 -1.3015
   54MOL   H30930095   3.589   5.897   6.825  0.1157 -0.9533 -1.3746
   54MOL   O31030096   3.770   6.023   7.292 -0.4510  0.1767  0.3204
   54MOL   C31130097   3.876   6.048   7.382 -0.6701 -0.0664  0.0220
   54MOL   C31230098   3.826   6.025   7.532 -0.7355  0.3225  0.2842
   54MOL   O31330099   3.741   6.136   7.560 -0.2889 -0.3391  0.1683
   54MOL   C31430100   3.751   5.895   7.563 -0.0020  0.0862  0.4750
   54MOL   C31530101   3.747   5.865   0.086  0.0278 -0.4390  0.0724
   54MOL   C31630102   3.667   5.739   0.120 -0.2017  0.6335  0.0015
   54MOL   O31730103   3.658   5.734   0.263  0.4879  0.3027 -0.1969
   54MOL   C31830104   3.728   5.613   0.058  0.4688  0.0836  0.8454
   54MOL   C31930105   3.640   5.483   0.080 -1.0110 -0.7147  0.1656
   54MOL   C32030106   3.736   5.637   7.537  0.4740  0.6138 -0.4819
   54MOL   C32130107   3.812   5.767   7.496 -0.5001  0.2370 -0.4614
   54MOL   H32230108   3.917   6.149   7.370  1.4257 -0.9100 -0.0202
   54MOL   H32330109   3.961   5.984   7.362  0.3635  1.2313  0.1932
   54MOL   H32430110   3.917   6.033   7.592  0.7528  1.9726 -2.0955
   54MOL   H32530111   3.663   6.102   7.518  0.1340 -0.9314 -0.1507
   54MOL   H32630112   3.651   5.908   7.523 -0.8130 -0.0449  2.4230
   54MOL   H32730113   3.849   5.878   0.125  0.1439  1.0704 -0.6918
   54MOL   H32830114   3.686   5.945   0.128 -0.4314 -0.6274 -0.2380
   54MOL   H32930115   3.565   5.759   0.089  0.4417  0.5396 -2.2732
   54MOL   H33030116   3.638   5.644   0.284 -0.2725  0.5220  0.0316
   54MOL   H33130117   3.825   5.607   0.108  0.9200  0.4037  0.0289
   54MOL   H33230118   3.594   5.484   0.179  0.1638  1.0580  0.7086
   54MOL   H33330119   3.554   5.479   0.013 -0.6991 -0.7467 -0.2348
   54MOL   H33430120   3.634   5.636   7.498  0.1928 -0.4326  0.2474
   54MOL   H33530121   3.790   5.552   7.494  0.9087 -0.1810  1.5636
   54MOL   H33630122   3.815   5.784   7.388 -0.5387 -1.6907 -0.7723
   54MOL   H33730123   3.908   5.762   7.548 -0.4998 -0.1928 -0.5041
   54MOL   O33830124   3.719   5.362   0.050 -0.1948 -0.8426 -0.0767
   54MOL   C33930125   3.637   5.243   0.074  0.1532 -0.9835  0.2682
   54MOL   C34030126   3.726   5.119   0.106 -0.1622 -0.6284  0.4933
   54MOL   O34130127   3.650   5.016   0.157 -0.2494 -0.3460  0.4381
   54MOL   C34230128   3.814   5.067   7.620 -0.0461 -0.3116  0.4837
   54MOL   C34330129   3.736   5.009   7.496  0.4553  0.5957 -0.2866
   54MOL   C34430130   3.825   4.937   7.385  0.0316 -0.0994  0.3180
   54MOL   O34530131   3.748   4.845   7.314  0.0581 -0.2373  0.3113
   54MOL   C34630132   3.949   4.854   7.439 -0.3899 -0.2956  0.3374
   54MOL   C34730133   4.050   4.838   7.319  0.1104  0.2267  0.4501
   54MOL   C34830134   4.015   4.914   7.558 -0.2168  0.4556 -0.5740
   54MOL   C34930135   3.912   4.961   0.041  0.1616 -0.0258  0.1013
   54MOL   H35030136   3.571   5.231   7.618 -1.1254 -1.6127  1.3233
   54MOL   H35130137   3.569   5.259   0.158 -1.0472  0.1749 -0.9006
   54MOL   H35230138   3.796   5.155   0.181 -2.2207 -0.0104  2.1906
   54MOL   H35330139   3.604   5.050   0.232  0.9348 -0.2334  1.1391
   54MOL   H35430140   3.867   5.157   7.589 -0.5954  0.2190  1.0359
   54MOL   H35530141   3.658   4.938   7.527 -0.5482  0.6162 -2.6966
   54MOL   H35630142   3.674   5.086   7.449 -2.0862 -0.3853  1.3349
   54MOL   H35730143   3.857   5.012   7.312  0.4923 -1.5073 -0.9494
   54MOL   H35830144   3.803   4.789   7.262  0.2851  1.2143 -1.0828
   54MOL   H35930145   3.912   4.753   7.459  1.8753 -1.3130 -0.4743
   54MOL   H36030146   4.059   4.936   7.272 -0.3011  0.3002  0.5173
   54MOL   H36130147   4.148   4.807   7.355  2.2103  4.4795 -1.2393
   54MOL   H36230148   4.064   5.007   7.529  1.8404 -0.6918 -0.9014
   54MOL   H36330149   4.093   4.850   7.600  1.2871  0.3881 -3.3258
   54MOL   H36430150   3.972   4.995   0.125 -2.1003  1.5870  1.1156
   54MOL   H36530151   3.853   4.876   0.075 -1.2607  1.1380  0.6126
   54MOL   O36630152   4.001   4.748   7.216 -0.3894  0.5319  0.3211
   54MOL   C36730153   4.079   4.736   7.104  0.1038 -0.0814 -0.5013
   54MOL   C36830154   4.011   4.828   6.997  0.3650  0.1698 -0.1675
   54MOL   O36930155   4.085   4.950   7.006 -0.8653 -0.2109  0.4724
   54MOL   C37030156   4.002   4.761   6.862 -0.4727 -0.1500 -0.0702
   54MOL   C37130157   4.127   4.788   6.772 -0.4122 -0.1491 -0.5754
   54MOL   C37230158   4.096   4.728   6.629 -0.1578 -0.0008 -0.3648
   54MOL   O37330159   4.211   4.753   6.544  0.6475 -0.3894 -0.3042
   54MOL   C37430160   3.964   4.770   6.565 -0.2516 -0.3246  0.8495
   54MOL   C37530161   3.933   4.701   6.433 -0.6041 -0.0393 -0.4674
   54MOL   C37630162   3.845   4.751   6.668  0.4653 -0.0250  0.0054
   54MOL   C37730163   3.874   4.823   6.800 -0.4911  0.2936 -0.3129
   54MOL   H37830164   4.082   4.632   7.072 -1.3320  0.2193 -1.6454
   54MOL   H37930165   4.182   4.765   7.128 -0.1114 -0.1665  0.5253
   54MOL   H38030166   3.911   4.840   7.039  0.3745 -1.8867  0.5265
   54MOL   H38130167   4.024   5.021   7.018  1.4380  1.9563 -0.4258
   54MOL   H38230168   3.989   4.653   6.874  3.5214 -0.8365 -1.0827
   54MOL   H38330169   4.135   4.897   6.764  1.2828 -0.2148 -0.0663
   54MOL   H38430170   4.213   4.752   6.828 -1.9771  1.8289  3.2989
   54MOL   H38530171   4.075   4.621   6.628  0.1911 -0.1092  1.6285
   54MOL   H38630172   4.238   4.680   6.491  1.3627  0.5986 -1.3283
   54MOL   H38730173   3.966   4.877   6.542 -1.8495 -0.7463 -1.5538
   54MOL   H38830174   3.998   4.734   6.351  0.6707  0.8861  0.9002
   54MOL   H38930175   3.925   4.594   6.449  1.4245  0.0952  1.7093
   54MOL   H39030176   3.824   4.645   6.682  0.7383 -0.2943 -1.5828
   54MOL   H39130177   3.752   4.791   6.629  0.7430 -0.6358 -1.2970
   54MOL   H39230178   3.783   4.801   6.856 -0.7558 -1.9886 -1.5895
   54MOL   H39330179   3.893   4.929   6.781 -0.7819  1.0625  3.4226
   54MOL   O39430180   3.799   4.723   6.397  0.4799 -0.1072 -0.8918
   54MOL   C39530181   3.755   4.659   6.279  0.6327  0.2452 -0.0593
   54MOL   C39630182   3.609   4.704   6.248  0.0349  0.4272  0.1254
   54MOL   O39730183   3.622   4.832   6.194  0.2650  0.9145  0.0358
   54MOL   C39830184   3.525   4.605   6.159  0.0831  0.9304  0.0826
   54MOL   C39930185   3.508   4.469   6.240  0.3839  0.3159 -0.1064
   54MOL   C40030186   3.445   4.357   6.159 -0.0889 -0.5058 -0.1548
   54MOL   O40130187   3.457   4.239   6.235 -0.6508  0.0567 -0.5795
   54MOL   C40230188   3.508   4.334   6.013  0.3133  0.2153 -0.3849
   54MOL   C40330189   3.432   4.238   5.911 -0.4643  0.3398  0.3590
   54MOL   C40430190   3.511   4.472   5.946  0.5268  0.2800 -0.3782
   54MOL   C40530191   3.592   4.576   6.023 -0.0070  0.3103 -0.4428
   54MOL   H40630192   3.760   4.550   6.273  0.2146  0.2309 -0.1788
   54MOL   H40730193   3.820   4.690   6.197 -0.7348 -3.4153 -2.6752
   54MOL   H40830194   3.572   4.692   6.350 -1.3765 -0.6572 -0.4974
   54MOL   H40930195   3.542   4.882   6.197 -0.9808 -1.0902  1.1254
   54MOL   H41030196   3.424   4.640   6.137  0.2320 -0.2319 -2.6427
   54MOL   H41130197   3.600   4.430   6.285  0.8531  1.5359  0.0177
   54MOL   H41230198   3.446   4.494   6.327 -0.6798 -0.9722 -0.4836
   54MOL   H41330199   3.340   4.377   6.135 -0.7074 -2.3701  0.9211
   54MOL   H41430200   3.519   4.248   6.305  0.3070 -1.3274 -1.2342
   54MOL   H41530201   3.610   4.301   6.032  0.3016  0.0594 -0.5933
   54MOL   H41630202   3.437   4.137   5.952 -1.3241  0.3029  0.3757
   54MOL   H41730203   3.325   4.257   5.903 -0.7136 -1.0479  0.1189
   54MOL   H41830204   3.406   4.495   5.929  0.7797  1.6604 -0.1026
   54MOL   H41930205   3.561   4.466   5.850 -1.4425 -0.3035 -1.3908
   54MOL   H42030206   3.603   4.676   5.979  3.7499  1.3649  2.7005
   54MOL   H42130207   3.688   4.540   6.059  0.4131  1.6755 -0.1547
   54MOL   O42230208   3.504   4.243   5.785 -0.3062 -0.2415  0.8135
   54MOL   C42330209   3.437   4.186   5.669  0.7261  0.3132  0.4191
   54MOL   C42430210   3.339   4.299   5.613  0.0170  0.3023  0.0621
   54MOL   O42530211   3.422   4.411   5.585  0.3278  0.0179 -0.3916
   54MOL   C42630212   3.252   4.255   5.495  0.1407 -0.2540  0.5603
   54MOL   C42730213   3.155   4.366   5.452 -0.9617  0.2967 -1.0154
   54MOL   C42830214   3.055   4.318   5.345  0.1965 -0.3808  0.1669
   54MOL   O42930215   2.965   4.426   5.321  0.3043 -0.4092  0.6202
   54MOL   C43030216   2.988   4.190   5.388 -0.2724 -0.0236  0.8542
   54MOL   C43130217   2.883   4.148   5.283 -0.0090  0.3868  0.0145
   54MOL   C43230218   3.086   4.069   5.413 -0.2783 -0.3111  0.1781
   54MOL   C43330219   3.175   4.121   5.524 -0.0726 -0.1496  0.1882
   54MOL   H43430220   3.390   4.094   5.703  2.4120 -0.2500  1.2799
   54MOL   H43530221   3.519   4.164   5.601  1.1665 -2.1715  1.7163
   54MOL   H43630222   3.275   4.320   5.699 -1.2231  2.4079 -1.3195
   54MOL   H43730223   3.506   4.390   5.621 -0.1948 -0.6654  0.4224
   54MOL   H43830224   3.318   4.249   5.408 -2.4043 -2.8476 -1.2914
   54MOL   H43930225   3.108   4.398   5.546 -0.5796  0.4936 -0.8868
   54MOL   H44030226   3.218   4.445   5.410  1.1575 -0.6235  0.3071
   54MOL   H44130227   3.107   4.316   5.249 -0.1038 -0.4251  0.0064
   54MOL   H44230228   2.898   4.434   5.387  0.9219 -0.0351  1.1919
   54MOL   H44330229   2.937   4.211   5.482 -1.4508 -0.9552  0.4347
   54MOL   H44430230   2.810   4.226   5.262  1.0313  1.0124 -1.3631
   54MOL   H44530231   2.943   4.133   5.193  2.0604  2.1989  1.0505
   54MOL   H44630232   3.135   4.042   5.319 -0.4145 -0.7091  0.2204
   54MOL   H44730233   3.036   3.982   5.455 -0.9656 -0.4144 -0.8540
   54MOL   H44830234   3.250   4.044   5.541 -0.5052 -0.6409 -0.1122
   54MOL   H44930235   3.111   4.134   5.611 -1.6188  1.0190 -1.0985
   54MOL   O45030236   2.816   4.028   5.319 -0.3637  0.1104 -0.6780
   54MOL   C45130237   2.699   4.044   5.395 -0.4008  0.0078  0.2324
   54MOL   C45230238   2.646   3.912   5.457 -0.3113 -0.4413 -0.7454
   54MOL   O45330239   2.587   3.839   5.355  0.2778  0.7360 -0.5116
   54MOL   C45430240   2.751   3.829   5.538  0.4367  0.4719  0.5179
   54MOL   C45530241   2.691   3.698   5.597 -0.2820  1.1243 -0.7283
   54MOL   C45630242   2.801   3.604   5.670  0.2882  0.4167  0.1922
   54MOL   O45730243   2.724   3.502   5.733  0.9271 -0.4342 -0.7843
   54MOL   C45830244   2.877   3.693   5.774 -0.2103  0.3511 -0.5673
   54MOL   C45930245   2.994   3.613   5.836 -0.0029  0.0778  0.5920
   54MOL   C46030246   2.918   3.838   5.728 -0.5289  0.1187  0.2779
   54MOL   C46130247   2.805   3.914   5.658 -0.3425  0.1198 -0.5269
   54MOL   H46230248   2.619   4.072   5.326 -1.2322  2.6009  2.1673
   54MOL   H46330249   2.706   4.131   5.460  1.5726 -0.3533  0.5163
   54MOL   H46430250   2.567   3.944   5.525  0.6287  0.3611 -0.0272
   54MOL   H46530251   2.634   3.833   5.273 -0.0693 -0.4529 -0.6287
   54MOL   H46630252   2.835   3.802   5.474  1.4693  0.4371  1.8756
   54MOL   H46730253   2.609   3.710   5.668 -0.0175 -1.0405 -0.0314
   54MOL   H46830254   2.646   3.629   5.526 -2.6162 -0.1894  1.9041
   54MOL   H46930255   2.869   3.561   5.597 -1.0093 -0.7601 -0.3747
   54MOL   H47030256   2.764   3.417   5.745  1.6567 -0.0943 -0.8084
   54MOL   H47130257   2.808   3.710   5.856  0.6875  1.7298 -0.0817
   54MOL   H47230258   2.950   3.533   5.896 -0.5123 -0.5748 -0.6090
   54MOL   H47330259   3.059   3.561   5.766  0.5235  2.3542 -0.6522
   54MOL   H47430260   3.002   3.835   5.659 -0.8176  0.9753 -0.1076
   54MOL   H47530261   2.969   3.896   5.804  0.8957  0.0329 -0.6071
   54MOL   H47630262   2.847   4.006   5.617 -0.0515 -0.5389 -1.7258
   54MOL   H47730263   2.724   3.932   5.728  1.0077  1.9315  0.6171
   54MOL   O47830264   3.067   3.701   5.924 -0.5166 -0.3311 -0.1486
   54MOL   C47930265   3.207   3.703   5.918 -0.2683  0.6010  0.4584
   54MOL   C48030266   3.254   3.843   5.956 -0.6356 -0.6788 -0.2255
   54MOL   O48130267   3.263   3.935   5.849  0.1623  0.5894 -0.4225
   54MOL   C48230268   3.176   3.901   6.083 -0.2376 -0.2375  0.1352
   54MOL   C48330269   3.204   4.045   6.114  0.7816 -0.7592 -0.1096
   54MOL   C48430270   3.136   4.105   6.244  0.0588 -0.2215 -0.1907
   54MOL   O48530271   3.181   4.243   6.267 -0.4626  0.3348  0.2439
   54MOL   C48630272   3.168   4.016   6.370  0.0309  0.7255  0.1806
   54MOL   C48730273   3.062   4.048   6.480  0.0794  0.0464  0.1441
   54MOL   C48830274   3.148   3.867   6.329 -0.7742  0.2021  0.6686
   54MOL   C48930275   3.222   3.828   6.207 -0.5442 -0.0582  0.4435
   54MOL   H49030276   3.246   3.669   5.822  1.0694  1.1759  0.7899
   54MOL   H49130277   3.245   3.627   5.986 -1.2039  1.6737  2.2081
   54MOL   H49230278   3.359   3.856   5.980 -0.9459 -2.1915  2.0238
   54MOL   H49330279   3.292   3.884   5.775  2.7857  1.8149 -0.2788
   54MOL   H49430280   3.069   3.898   6.065 -0.4411  1.0596  1.0597
   54MOL   H49530281   3.311   4.058   6.129  0.3245  2.8592  0.4349
   54MOL   H49630282   3.171   4.106   6.030  1.4441 -1.9969 -1.2678
   54MOL   H49730283   3.030   4.116   6.222  0.3563  0.3993 -1.3484
   54MOL   H49830284   3.274   4.233   6.272 -0.5238 -0.1991  0.3499
   54MOL   H49930285   3.271   4.032   6.404  0.4072  1.3818 -1.2449
   54MOL   H50030286   3.056   4.156   6.499 -1.4774  0.3016 -1.6376
   54MOL   H50130287   2.958   4.021   6.461 -0.2522  1.8124 -0.6550
   54MOL   H50230288   3.043   3.852   6.305 -0.8156  1.3018  0.1448
   54MOL   H50330289   3.171   3.804   6.414  4.4204 -1.8794 -2.0264
   54MOL   H50430290   3.219   3.720   6.193  2.9821 -0.3235  1.2091
   54MOL   H50530291   3.331   3.839   6.212 -0.7697  2.4994  0.1373
   54MOL   O50630292   3.090   4.002   6.606 -0.1706  0.4604 -0.2121
   54MOL   C50730293   3.005   4.048   6.715 -0.0754  0.3836 -0.3916
   54MOL   C50830294   3.079   4.011   6.849 -0.3673 -0.1219 -0.1502
   54MOL   O50930295   3.093   3.874   6.860  0.3566 -0.0564  0.4372
   54MOL   C51030296   3.224   4.068   6.863  0.7051 -0.1218 -0.3766
   54MOL   C51130297   3.292   4.010   6.983  0.4047 -0.3078 -0.5630
   54MOL   C51230298   3.423   4.086   7.017 -0.4442  0.4494 -0.0143
   54MOL   O51330299   3.451   4.041   7.152 -0.0672 -0.1105  0.3281
   54MOL   C51430300   3.423   4.240   7.019 -0.0981  0.9593  0.2276
   54MOL   C51530301   3.562   4.301   7.047 -0.7946  0.6461 -0.4696
   54MOL   C51630302   3.359   4.291   6.887 -0.1824  0.5954 -0.0869
   54MOL   C51730303   3.223   4.224   6.867  0.2724  0.2767  0.1988
   54MOL   H51830304   2.914   3.992   6.695  0.8240 -0.9130 -0.9442
   54MOL   H51930305   2.984   4.155   6.710 -0.6949  0.5446  3.5802
   54MOL   H52030306   3.021   4.032   6.938  0.8455  1.6971  0.2280
   54MOL   H52130307   3.074   3.845   6.772  0.8316  0.4014  0.1781
   54MOL   H52230308   3.286   4.043   6.776  0.6018  1.3680 -0.8808
   54MOL   H52330309   3.219   4.016   7.063 -0.2477 -1.3015 -1.0768
   54MOL   H52430310   3.312   3.903   6.974 -2.7233 -1.2972  2.8565
   54MOL   H52530311   3.501   4.058   6.946  1.6084 -0.4523  2.5160
   54MOL   H52630312   3.484   3.953   7.141 -0.5471 -0.4954  1.9060
   54MOL   H52730313   3.360   4.268   7.103 -0.8586 -1.9479  0.6782
   54MOL   H52830314   3.563   4.404   7.081  0.6758 -0.1350  2.0259
   54MOL   H52930315   3.613   4.243   7.125 -1.6213 -0.5522 -0.8062
   54MOL   H53030316   3.425   4.270   6.802  1.0926  2.2489  0.4595
   54MOL   H53130317   3.352   4.399   6.898  1.9024  0.5273  2.3602
   54MOL   H53230318   3.183   4.246   6.768  0.4881  0.8195  0.2270
   54MOL   H53330319   3.151   4.254   6.943  0.1437 -1.8705  0.9533
   54MOL   O53430320   3.627   4.287   6.929 -0.0675  0.9094  0.0439
   54MOL   C53530321   3.755   4.339   6.910  0.0781  1.0817 -0.3167
   54MOL   C53630322   3.792   4.325   6.761 -0.2514  0.0534  0.2659
   54MOL   O53730323   3.714   4.420   6.696  0.0021  0.0398 -0.1002
   54MOL   C53830324   3.942   4.335   6.725  0.6889 -0.6042 -0.2551
   54MOL   C53930325   3.963   4.303   6.580 -0.4878 -0.6418  0.6197
   54MOL   C54030326   4.110   4.324   6.540  0.7831  0.1474  0.0370
   54MOL   O54130327   4.124   4.291   6.406 -0.2368 -0.0442  0.1878
   54MOL   C54230328   4.195   4.232   6.624 -0.2897  0.0448  0.7292
   54MOL   C54330329   4.341   4.256   6.585 -0.3555 -0.2801  0.4719
   54MOL   C54430330   4.178   4.263   6.770 -0.9705 -0.1176 -0.6523
   54MOL   C54530331   4.036   4.250   6.808  0.5587  0.1791  0.4576
   54MOL   H54630332   3.821   4.282   6.975 -0.7139  1.5385  0.9063
   54MOL   H54730333   3.755   4.444   6.941  1.5104  0.2952  2.5027
   54MOL   H54830334   3.768   4.226   6.722  1.7931 -0.2027 -0.3897
   54MOL   H54930335   3.663   4.466   6.761  1.2674 -0.3857  1.2180
   54MOL   H55030336   3.976   4.437   6.742 -0.0890 -0.3007 -0.5239
   54MOL   H55130337   3.937   4.199   6.562 -1.5077  0.0388 -2.0372
   54MOL   H55230338   3.910   4.373   6.515  1.9347  0.9603  0.3144
   54MOL   H55330339   4.136   4.430   6.545 -0.0838  0.5981 -3.7212
   54MOL   H55430340   4.086   4.204   6.398 -1.0639  0.3449 -0.1180
   54MOL   H55530341   4.165   4.129   6.603 -0.4436  0.5681 -1.7479
   54MOL   H55630342   4.370   4.356   6.619  0.3243 -0.7836  1.3891
   54MOL   H55730343   4.399   4.180   6.636  1.0239 -0.0342 -0.6871
   54MOL   H55830344   4.214   4.364   6.790 -0.7795  0.4950 -3.7462
   54MOL   H55930345   4.249   4.197   6.819  1.2900  1.4434 -1.7079
   54MOL   H56030346   4.020   4.278   6.913 -0.8854  2.0930 -0.2494
   54MOL   H56130347   4.011   4.144   6.810 -1.2045  0.5941  1.6073
   54MOL   H56230348   4.382   4.250   6.484  2.8119 -1.2927  1.7593
   55MOL     O130349   4.451   4.445   3.240  0.1278 -0.4061 -0.2696
   55MOL     C230350   4.590   4.431   3.225  0.3881 -0.5022 -0.5920
   55MOL     C330351   4.665   4.567   3.216 -0.1277 -0.0284  1.5413
   55MOL     O430352   4.595   4.642   3.119 -0.0035 -0.0521  0.1046
   55MOL     C530353   4.677   4.640   3.356  0.1501  0.4834  0.1105
   55MOL     C630354   4.739   4.777   3.337  0.2164  0.5223  0.5525
   55MOL     C730355   4.782   4.844   3.468  0.0606  0.5419  0.8225
   55MOL     O830356   4.850   4.964   3.448 -0.2458  0.4343 -0.0150
   55MOL     C930357   4.867   4.751   3.554  0.4523 -0.7704 -0.2062
   55MOL    C1030358   4.910   4.813   3.682 -0.3636  0.3299  0.1147
   55MOL    C1130359   4.790   4.624   3.577 -0.2885 -0.3749 -0.4498
   55MOL    C1230360   4.757   4.547   3.447 -0.6264  0.3805  0.2863
   55MOL    H1330361   4.589   4.386   3.125 -0.4710  1.5432 -1.5308
   55MOL    H1430362   4.628   4.353   3.290  0.1856 -0.4126 -0.3691
   55MOL    H1530363   4.765   4.555   3.174 -1.1996 -0.0005 -1.0896
   55MOL    H1630364   4.503   4.619   3.115 -0.2486  0.6925  1.1737
   55MOL    H1730365   4.579   4.654   3.402 -0.1313 -1.6912  0.2066
   55MOL    H1830366   4.825   4.772   3.270 -1.8249 -1.0964 -2.0000
   55MOL    H1930367   4.667   4.847   3.296  1.6963  1.7017 -0.1066
   55MOL    H2030368   4.694   4.865   3.528  0.1138  0.7558  0.8280
   55MOL    H2130369   4.869   4.993   3.536 -0.3262  1.3315 -0.2839
   55MOL    H2230370   4.953   4.713   3.499 -0.4667 -0.4853 -1.8855
   55MOL    H2330371   4.955   4.734   3.741 -1.6062 -0.4529  0.0466
   55MOL    H2430372   4.995   4.881   3.685  1.0775 -1.4714  1.3125
   55MOL    H2530373   4.702   4.638   3.639  0.4821 -0.0625  0.5734
   55MOL    H2630374   4.862   4.567   3.636  0.1082  0.0253 -0.5446
   55MOL    H2730375   4.698   4.461   3.479  0.3808 -0.0390  1.0167
   55MOL    H2830376   4.848   4.502   3.406 -0.3388  0.5128  0.7787
   55MOL    H2930377   4.402   4.377   3.196 -1.5030  0.8898 -0.4993
   55MOL    O3030378   4.798   4.867   3.757  0.0300 -0.0562 -0.0645
   55MOL    C3130379   4.835   4.939   3.880  0.1573  0.4057  0.0880
   55MOL    C3230380   4.876   5.083   3.855  0.1239  0.2251  0.2319
   55MOL    O3330381   4.762   5.165   3.897 -0.2818 -0.0958  0.4417
   55MOL    C3430382   5.004   5.131   3.933  0.0829  0.0445  0.1525
   55MOL    C3530383   5.042   5.281   3.896 -0.0927 -0.1285 -0.3379
   55MOL    C3630384   5.173   5.330   3.970 -0.0733 -0.0052  0.1737
   55MOL    O3730385   5.193   5.464   3.928  0.7802  0.6912 -0.1898
   55MOL    C3830386   5.283   5.235   3.939 -0.2280 -0.0258 -0.2873
   55MOL    C3930387   5.409   5.284   4.013  0.1777 -0.1081  0.9190
   55MOL    C4030388   5.255   5.088   3.969 -0.6245  0.7372 -0.0267
   55MOL    C4130389   5.124   5.040   3.908 -0.3793 -0.5805  0.0540
   55MOL    H4230390   4.910   4.876   3.927  0.1561  1.9391  2.2223
   55MOL    H4330391   4.746   4.935   3.942 -0.9783  2.0575 -1.3711
   55MOL    H4430392   4.885   5.102   3.748  0.9698  0.9291  0.4190
   55MOL    H4530393   4.687   5.137   3.847 -0.5834 -0.0188  0.8465
   55MOL    H4630394   4.981   5.114   4.038 -1.1215 -0.2415 -0.1494
   55MOL    H4730395   5.052   5.299   3.789 -1.2674  0.4032 -0.3613
   55MOL    H4830396   4.959   5.349   3.917  1.2487  0.8949  1.8345
   55MOL    H4930397   5.146   5.340   4.075 -1.9230  0.4971 -0.3322
   55MOL    H5030398   5.142   5.517   3.988  1.1206  1.4667 -0.5833
   55MOL    H5130399   5.296   5.233   3.831  0.3093 -1.5933 -0.2090
   55MOL    H5230400   5.498   5.226   3.988  0.2093  0.0327  0.7008
   55MOL    H5330401   5.425   5.391   4.006 -2.6576  0.2291 -1.2706
   55MOL    H5430402   5.244   5.074   4.077 -1.9257  0.5143 -0.1713
   55MOL    H5530403   5.340   5.035   3.927 -0.6889  0.6069  0.0061
   55MOL    H5630404   5.111   4.934   3.932 -1.0662 -0.8065 -1.2464
   55MOL    H5730405   5.137   5.039   3.800  0.1384  0.5017  0.1093
   55MOL    O5830406   5.384   5.261   4.150 -0.0444 -0.0982 -0.3219
   55MOL    C5930407   5.480   5.316   4.237 -0.5505  0.4453 -0.2154
   55MOL    C6030408   5.472   5.245   4.367 -0.5323 -0.3752 -1.0413
   55MOL    O6130409   5.342   5.256   4.415  0.3085 -0.4063  0.3185
   55MOL    C6230410   5.531   5.097   4.383 -0.5666 -0.0227  0.1494
   55MOL    C6330411   5.444   4.989   4.326 -0.4207  0.6401 -0.1399
   55MOL    C6430412   5.512   4.852   4.334 -0.3882 -0.3767  0.0182
   55MOL    O6530413   5.439   4.750   4.271 -0.1987 -0.3677 -0.1817
   55MOL    C6630414   5.544   4.818   4.473 -0.8006 -0.2568  0.3233
   55MOL    C6730415   5.619   4.684   4.476 -0.3914  0.0819  0.3471
   55MOL    C6830416   5.625   4.935   4.541 -0.2722  0.3103  0.5432
   55MOL    C6930417   5.560   5.069   4.525  0.2745 -0.3975  0.5687
   55MOL    H7030418   5.465   5.421   4.264 -1.7307  0.3220 -0.3872
   55MOL    H7130419   5.584   5.317   4.203 -0.8633  1.3805 -1.1727
   55MOL    H7230420   5.534   5.310   4.429 -3.7117  2.1103 -0.3384
   55MOL    H7330421   5.281   5.242   4.344 -0.2376  1.4225  0.3908
   55MOL    H7430422   5.626   5.087   4.330 -0.0334  1.1396  0.8683
   55MOL    H7530423   5.348   4.990   4.377 -0.5825  0.7083 -0.4403
   55MOL    H7630424   5.412   5.017   4.225  0.3574  3.2930  0.3018
   55MOL    H7730425   5.603   4.857   4.273 -1.2261  2.3721 -1.0867
   55MOL    H7830426   5.490   4.708   4.203 -0.6314  0.5483 -1.1052
   55MOL    H7930427   5.454   4.832   4.534 -0.6019 -0.1418  0.5936
   55MOL    H8030428   5.559   4.602   4.436 -1.5552 -0.2931  2.8069
   55MOL    H8130429   5.717   4.689   4.427  0.0262 -0.5837  1.0892
   55MOL    H8230430   5.724   4.939   4.497 -0.5056 -1.4280 -0.1614
   55MOL    H8330431   5.655   4.922   4.645  0.2331 -0.9090  0.2486
   55MOL    H8430432   5.630   5.146   4.558  1.3165 -0.0416 -2.3343
   55MOL    H8530433   5.468   5.077   4.583  1.0829 -0.8968  1.9408
   55MOL    O8630434   5.666   4.649   4.605 -0.3100  0.1874  0.1041
   55MOL    C8730435   5.565   4.589   4.677  0.3934  0.0504 -0.2970
   55MOL    C8830436   5.608   4.539   4.822  0.1169  0.4938  0.0782
   55MOL    O8930437   5.523   4.592   4.921  0.2133 -0.3451 -0.2784
   55MOL    C9030438   5.620   4.386   4.844 -0.1961  0.7512  0.0555
   55MOL    C9130439   5.666   4.343   4.990  0.3990  0.6734 -0.5676
   55MOL    C9230440   5.688   4.185   5.001  0.5787  0.2990  0.0695
   55MOL    O9330441   5.730   4.143   5.127 -0.8362 -0.0114  0.5638
   55MOL    C9430442   5.791   4.142   4.904 -1.2406 -0.4360 -0.0660
   55MOL    C9530443   5.823   3.990   4.909 -0.0858  0.0111  0.2449
   55MOL    C9630444   5.744   4.180   4.762  0.1904 -0.7524 -0.2835
   55MOL    C9730445   5.719   4.330   4.745 -0.0845  0.5053 -0.1290
   55MOL    H9830446   5.514   4.501   4.637 -0.3078  0.2759  0.0993
   55MOL    H9930447   5.488   4.665   4.684  0.0159 -0.3110 -0.4908
   55MOL   H10030448   5.701   4.590   4.848  0.3522  0.8411 -1.3751
   55MOL   H10130449   5.436   4.557   4.909  0.1454 -0.5731  0.7914
   55MOL   H10230450   5.529   4.335   4.812  0.2371  1.2480 -2.0447
   55MOL   H10330451   5.759   4.393   5.018  1.5689 -0.9001 -1.5383
   55MOL   H10430452   5.591   4.390   5.053 -0.9296 -2.2737  0.1208
   55MOL   H10530453   5.594   4.133   4.979 -0.1331  1.2948  0.6977
   55MOL   H10630454   5.769   4.057   5.115 -0.5181 -0.2165  2.8253
   55MOL   H10730455   5.877   4.207   4.918 -2.1149  0.3004  2.1589
   55MOL   H10830456   5.726   3.941   4.898 -1.9623  2.8508  3.1208
   55MOL   H10930457   5.881   3.964   4.820 -0.6705 -0.7480  0.0775
   55MOL   H11030458   5.654   4.124   4.737  0.3903  0.1121 -3.0959
   55MOL   H11130459   5.820   4.157   4.687 -1.0968 -3.2066 -0.8670
   55MOL   H11230460   5.680   4.345   4.644  0.6406 -0.3495 -0.5407
   55MOL   H11330461   5.819   4.370   4.761  0.8970 -1.2300 -1.6634
   55MOL   O11430462   5.891   3.940   5.027 -0.3404  0.3273 -0.5195
   55MOL   C11530463   5.921   3.807   5.035  0.2256 -0.1105 -0.0688
   55MOL   C11630464   6.052   3.776   4.967  0.6183 -0.1932 -0.3809
   55MOL   O11730465   6.153   3.757   5.069  0.7943 -0.2050 -0.0722
   55MOL   C11830466   6.051   3.650   4.872 -0.1198 -0.5680  0.8893
   55MOL   C11930467   6.187   3.602   4.827 -0.3427  0.2368  0.5205
   55MOL   C12030468   6.175   3.473   4.743  0.8789 -0.1060 -0.3010
   55MOL   O12130469   6.302   3.435   4.705  0.4307  0.3746  0.1177
   55MOL   C12230470   6.078   3.486   4.627 -0.5342 -0.3384  0.4623
   55MOL   C12330471   6.062   3.356   4.544  0.0450  0.7763  0.4425
   55MOL   C12430472   5.941   3.535   4.672  0.0737 -0.4008 -0.2325
   55MOL   C12530473   5.961   3.665   4.743  0.0582 -0.5092 -0.0506
   55MOL   H12630474   5.834   3.751   5.000  0.3415 -1.6473  1.9928
   55MOL   H12730475   5.914   3.781   5.141 -1.3998 -1.5353 -0.5091
   55MOL   H12830476   6.089   3.855   4.900  1.1260  0.6754  0.8889
   55MOL   H12930477   6.173   3.842   5.107 -1.0376 -0.0962  0.6888
   55MOL   H13030478   6.008   3.572   4.935 -2.5207  0.3100  0.3522
   55MOL   H13130479   6.243   3.681   4.777 -0.4619 -1.1489 -1.8598
   55MOL   H13230480   6.247   3.578   4.915  0.4349 -1.2497 -0.4079
   55MOL   H13330481   6.141   3.392   4.808  1.1023  0.8482  1.0197
   55MOL   H13430482   6.359   3.504   4.734 -1.7707  2.8171 -1.2455
   55MOL   H13530483   6.122   3.565   4.566 -0.5174 -1.1896 -0.6403
   55MOL   H13630484   6.010   3.369   4.448  0.1788 -0.7948  0.1513
   55MOL   H13730485   6.161   3.320   4.518  0.3302  0.3612  2.1071
   55MOL   H13830486   5.891   3.458   4.730 -0.2003  0.8865  1.2603
   55MOL   H13930487   5.861   3.539   4.597  1.2094 -1.5577 -1.5349
   55MOL   H14030488   5.862   3.701   4.773  1.1147  1.6007  1.0232
   55MOL   H14130489   6.001   3.738   4.673 -2.3867  0.8904 -0.0534
   55MOL   O14230490   6.001   3.255   4.630 -0.3718 -0.0479  0.5164
   55MOL   C14330491   6.016   3.125   4.556  0.4687  0.2479  0.1464
   55MOL   C14430492   5.993   3.016   4.654  0.5153  0.0275  0.2002
   55MOL   O14530493   5.864   3.033   4.700  0.6489 -0.0797 -0.4539
   55MOL   C14630494   5.998   2.875   4.584 -0.2780  0.3144  0.2217
   55MOL   C14730495   5.943   2.767   4.678 -0.2376 -0.1328  0.3871
   55MOL   C14830496   5.950   2.627   4.610  0.2298  0.0985 -0.3417
   55MOL   O14930497   5.913   2.526   4.702 -0.1236  0.8711  0.0530
   55MOL   C15030498   6.089   2.597   4.554 -0.8128  0.9548  0.1929
   55MOL   C15130499   6.099   2.475   4.465  0.1510  0.4598 -0.1437
   55MOL   C15230500   6.151   2.714   4.464  0.2424  0.2674  0.1111
   55MOL   C15330501   6.144   2.847   4.543  0.4021 -0.3331 -0.0746
   55MOL   H15430502   6.114   3.122   4.510  0.2267 -2.2741 -0.2602
   55MOL   H15530503   5.956   3.123   4.464 -0.9342  1.2805  1.0057
   55MOL   H15630504   6.067   3.037   4.731  0.3974 -0.2461  0.3890
   55MOL   H15730505   5.859   3.126   4.714 -0.4204  0.0298 -1.4814
   55MOL   H15830506   5.939   2.876   4.492 -0.5561 -2.4659  0.3193
   55MOL   H15930507   5.991   2.761   4.776 -0.2719  0.3552  0.4336
   55MOL   H16030508   5.842   2.794   4.708 -0.2777  1.2435 -0.9285
   55MOL   H16130509   5.880   2.610   4.527 -0.1493 -1.3065  0.2451
   55MOL   H16230510   5.951   2.448   4.666  0.2834  2.5684 -3.3372
   55MOL   H16330511   6.144   2.571   4.644 -1.0640  1.2817  0.4381
   55MOL   H16430512   6.056   2.388   4.515  1.3809  0.4552  0.9427
   55MOL   H16530513   6.036   2.477   4.377  0.0205 -1.3310 -0.1090
   55MOL   H16630514   6.083   2.720   4.379  1.2153 -0.3847 -0.7257
   55MOL   H16730515   6.245   2.687   4.415 -0.5680 -0.5027 -1.0466
   55MOL   H16830516   6.185   2.928   4.483 -0.0489 -0.0524 -0.0038
   55MOL   H16930517   6.201   2.836   4.635 -0.8668 -2.7199  0.4606
   55MOL   O17030518   6.228   2.441   4.424  0.0976  0.2965 -0.2814
   55MOL   C17130519   6.235   2.331   4.328  0.6682 -0.0102  0.3164
   55MOL   C17230520   6.371   2.327   4.261 -0.1279  0.2813  0.3216
   55MOL   O17330521   6.384   2.203   4.197 -0.6055  0.5117  0.2554
   55MOL   C17430522   6.405   2.456   4.173  0.3233  0.1542 -0.0729
   55MOL   C17530523   6.381   2.442   4.022  0.8751 -0.1900 -0.8719
   55MOL   C17630524   6.407   2.574   3.949 -0.1914 -0.0636  0.3097
   55MOL   O17730525   6.385   2.550   3.810 -0.0272 -0.1110 -0.1199
   55MOL   C17830526   6.551   2.626   3.978 -0.0156  0.7748  0.5587
   55MOL   C17930527   6.575   2.765   3.905  0.6281  0.1047 -0.8792
   55MOL   C18030528   6.578   2.631   4.127 -0.3033  0.2868  0.5984
   55MOL   C18130529   6.551   2.497   4.196  0.3731  0.4359  0.9501
   55MOL   H18230530   6.164   2.349   4.248 -1.1339  0.7629  2.0386
   55MOL   H18330531   6.217   2.233   4.372  2.9814 -1.0608 -0.9624
   55MOL   H18430532   6.451   2.317   4.335  0.9057  3.4782 -0.2869
   55MOL   H18530533   6.377   2.140   4.266  0.5775 -2.7708 -2.4638
   55MOL   H18630534   6.351   2.543   4.210 -0.8538 -0.4818 -0.2464
   55MOL   H18730535   6.452   2.369   3.983  0.8544 -1.8421  1.9695
   55MOL   H18830536   6.282   2.397   4.010  1.4071 -1.1874 -1.5908
   55MOL   H18930537   6.333   2.643   3.990 -0.9751 -1.0278  0.5486
   55MOL   H19030538   6.408   2.461   3.789  1.2919  0.4710 -1.2427
   55MOL   H19130539   6.609   2.553   3.922 -0.2052  1.9801 -1.2230
   55MOL   H19230540   6.676   2.790   3.937  0.0295 -0.7008  1.7824
   55MOL   H19330541   6.567   2.760   3.797  0.6962 -2.0513 -0.8049
   55MOL   H19430542   6.517   2.707   4.176 -2.2292 -1.3960  0.8786
   55MOL   H19530543   6.687   2.639   4.138 -0.2712  0.7707 -0.0648
   55MOL   H19630544   6.569   2.503   4.304  0.4088 -0.8802  1.0244
   55MOL   H19730545   6.626   2.425   4.163  0.4079  1.6159 -1.6347
   55MOL   O19830546   6.492   2.872   3.937  0.2036 -0.2887 -0.0079
   55MOL   C19930547   6.539   2.996   3.890 -0.3312 -0.2262 -0.1266
   55MOL   C20030548   6.413   3.090   3.907 -0.5501 -0.6117  0.2358
   55MOL   O20130549   6.405   3.115   4.048 -0.0624 -0.0121  0.1150
   55MOL   C20230550   6.435   3.220   3.820 -0.0109 -0.2095 -0.0089
   55MOL   C20330551   6.556   3.309   3.856 -0.0902 -0.4283  0.3228
   55MOL   C20430552   6.555   3.447   3.783 -0.8770  0.7737 -0.0043
   55MOL   O20530553   6.653   3.527   3.848  0.3154 -0.4706  0.1090
   55MOL   C20630554   6.422   3.525   3.798 -0.4625  0.0488  0.3575
   55MOL   C20730555   6.411   3.649   3.705  0.3066 -0.3105  0.5577
   55MOL   C20830556   6.304   3.429   3.758 -0.1752  0.3575  0.1457
   55MOL   C20930557   6.306   3.298   3.832  0.0920 -0.1554  0.3369
   55MOL   H21030558   6.571   3.004   3.786  0.9243  0.5832  0.3195
   55MOL   H21130559   6.624   3.034   3.947 -1.4296  0.4870  1.0590
   55MOL   H21230560   6.320   3.041   3.877 -1.1788  0.8388 -0.2058
   55MOL   H21330561   6.429   3.030   4.082  0.5354  0.3420  0.5975
   55MOL   H21430562   6.440   3.186   3.717 -0.5732 -0.3347  0.0047
   55MOL   H21530563   6.564   3.306   3.964  0.1330 -0.4362  0.3051
   55MOL   H21630564   6.643   3.246   3.839  1.2087  1.7900 -1.4828
   55MOL   H21730565   6.582   3.432   3.678  0.9960 -0.3089  0.6180
   55MOL   H21830566   6.676   3.481   3.928  2.4470 -1.0934 -0.8286
   55MOL   H21930567   6.422   3.548   3.905  0.1571 -2.0582  0.8452
   55MOL   H22030568   6.483   3.724   3.738  1.0556  0.4715 -2.6757
   55MOL   H22130569   6.429   3.618   3.602 -1.1690  0.1582  0.1442
   55MOL   H22230570   6.306   3.393   3.655  0.7845 -0.3361  0.4072
   55MOL   H22330571   6.210   3.481   3.775 -0.5734 -0.6619  1.0896
   55MOL   H22430572   6.230   3.226   3.802  1.7266 -2.0240  0.6158
   55MOL   H22530573   6.278   3.309   3.937 -2.2214  0.0288 -0.2580
   55MOL   O22630574   6.282   3.695   3.720 -0.2207 -0.3389 -0.0067
   55MOL   C22730575   6.252   3.805   3.634  0.3751 -0.3482 -0.2316
   55MOL   C22830576   6.101   3.842   3.651  0.0987  0.3481 -0.1950
   55MOL   O22930577   6.093   3.982   3.629  0.3697  1.0443  0.3518
   55MOL   C23030578   6.004   3.760   3.560 -0.4619  0.0164  0.2534
   55MOL   C23130579   5.855   3.787   3.593 -0.2338 -0.5407 -0.2558
   55MOL   C23230580   5.754   3.702   3.517  0.7341  0.2730 -0.2452
   55MOL   O23330581   5.619   3.732   3.558 -0.0371 -0.2219  0.9914
   55MOL   C23430582   5.787   3.551   3.520 -0.3291 -0.1823 -0.7236
   55MOL   C23530583   5.697   3.469   3.427  0.0758 -0.3311  0.3666
   55MOL   C23630584   5.939   3.526   3.490  0.7305 -0.4739  0.0318
   55MOL   C23730585   6.032   3.612   3.577  1.0845  1.3219 -0.2939
   55MOL   H23830586   6.277   3.796   3.528 -0.2483  2.1597 -0.6214
   55MOL   H23930587   6.308   3.886   3.679 -0.4694  0.1779 -0.1093
   55MOL   H24030588   6.081   3.838   3.758  1.4245 -1.2476  0.0214
   55MOL   H24130589   6.002   4.006   3.619  0.4860  0.8882 -1.2099
   55MOL   H24230590   6.021   3.791   3.457 -0.2689  1.9327  0.8504
   55MOL   H24330591   5.841   3.784   3.701 -1.6519  0.4577 -0.3959
   55MOL   H24430592   5.828   3.887   3.559  1.2744  0.0859  0.3954
   55MOL   H24530593   5.756   3.730   3.412  1.2895  2.0086  0.2090
   55MOL   H24630594   5.593   3.668   3.623  1.2093 -0.7971  0.9368
   55MOL   H24730595   5.771   3.510   3.620  0.0175  1.6723  0.1338
   55MOL   H24830596   5.592   3.496   3.415 -0.0551 -1.3170 -0.9116
   55MOL   H24930597   5.748   3.498   3.336 -0.8157 -1.0862 -0.3897
   55MOL   H25030598   5.957   3.548   3.385  0.2987  0.7351  0.2052
   55MOL   H25130599   5.961   3.419   3.499  0.4239 -0.5946 -0.6376
   55MOL   H25230600   6.134   3.582   3.552 -0.3062 -2.4132 -1.8554
   55MOL   H25330601   6.018   3.593   3.683  1.2488  0.9104 -0.3457
   55MOL   O25430602   5.713   3.329   3.448 -0.3815 -0.2722  0.2314
   55MOL   C25530603   5.645   3.271   3.555 -0.6565  0.7282 -0.0668
   55MOL   C25630604   5.648   3.111   3.539 -0.1714  0.4370 -0.1535
   55MOL   O25730605   5.659   3.044   3.668 -0.3110 -0.0939 -0.2563
   55MOL   C25830606   5.529   3.056   3.463  0.4806  0.4186 -0.6466
   55MOL   C25930607   5.557   2.908   3.426 -0.2926  0.1687 -0.0834
   55MOL   C26030608   5.436   2.850   3.357 -0.2262 -0.0904 -0.1362
   55MOL   O26130609   5.493   2.722   3.322 -0.6597  0.1581  0.1007
   55MOL   C26230610   5.383   2.933   3.232 -0.2663 -0.2950  0.1888
   55MOL   C26330611   5.251   2.868   3.183  0.3250  0.0995 -0.3348
   55MOL   C26430612   5.364   3.080   3.265 -0.0250 -0.0560  0.4007
   55MOL   C26530613   5.492   3.129   3.336 -0.0858  0.5021  0.3714
   55MOL   H26630614   5.547   3.306   3.587 -0.6806  0.2501  0.4054
   55MOL   H26730615   5.686   3.288   3.654 -3.7679 -0.6794  1.5478
   55MOL   H26830616   5.740   3.091   3.485 -0.7233  0.4653 -1.1036
   55MOL   H26930617   5.576   3.058   3.712 -1.3808 -0.1307 -2.2033
   55MOL   H27030618   5.442   3.048   3.528 -0.0740  1.3384 -1.2590
   55MOL   H27130619   5.652   2.905   3.372 -0.2061  1.5813 -0.0181
   55MOL   H27230620   5.581   2.858   3.520  1.4741  1.0978 -0.0118
   55MOL   H27330621   5.356   2.835   3.430 -1.0170  2.2262 -0.4903
   55MOL   H27430622   5.585   2.723   3.301 -0.6309 -1.5285  0.0483
   55MOL   H27530623   5.442   2.932   3.140 -2.7195  0.1689 -1.4504
   55MOL   H27630624   5.261   2.784   3.115  0.3283 -0.0772 -0.1141
   55MOL   H27730625   5.208   2.839   3.278  1.9550 -0.4082  0.2612
   55MOL   H27830626   5.285   3.098   3.338 -1.0902  0.6638 -0.9052
   55MOL   H27930627   5.340   3.140   3.177  0.4296  0.1626  0.4285
   55MOL   H28030628   5.470   3.226   3.381  2.7116  0.6591  1.4687
   55MOL   H28130629   5.577   3.150   3.271 -0.0840  2.2673  0.9276
   55MOL   O28230630   5.164   2.974   3.127  0.5073 -0.4611 -0.3633
   55MOL   C28330631   5.032   2.928   3.115  0.2398 -0.2014 -0.6538
   55MOL   C28430632   4.962   3.016   3.006 -0.0300 -0.4837 -0.2211
   55MOL   O28530633   4.861   2.938   2.943  0.1594  0.4228  0.0418
   55MOL   C28630634   4.908   3.150   3.063 -0.1739  0.0203 -0.3473
   55MOL   C28730635   4.837   3.234   2.951  0.5035  0.1891  0.1599
   55MOL   C28830636   4.775   3.358   3.020 -0.1942 -0.3115 -0.1914
   55MOL   O28930637   4.722   3.430   2.909 -0.1033 -0.2129 -0.0778
   55MOL   C29030638   4.889   3.437   3.088  0.3745 -0.2451 -0.7274
   55MOL   C29130639   4.832   3.562   3.150 -0.4846 -0.0972 -0.3619
   55MOL   C29230640   4.980   3.365   3.184 -0.1497  0.0075  0.0774
   55MOL   C29330641   5.026   3.228   3.128  0.1018  0.8022  0.1541
   55MOL   H29430642   4.991   2.923   3.215 -0.7229 -1.2580 -1.0910
   55MOL   H29530643   5.051   2.829   3.072 -0.6110 -0.1003 -1.2645
   55MOL   H29630644   5.034   3.039   2.928  0.3350  0.7398  0.4544
   55MOL   H29730645   4.799   2.918   3.012  2.3445  1.3664  2.3766
   55MOL   H29830646   4.837   3.116   3.139 -1.2013  0.7748 -0.9526
   55MOL   H29930647   4.905   3.270   2.874  0.8926 -0.8671 -0.0136
   55MOL   H30030648   4.768   3.171   2.895 -0.3922  0.7086  0.6821
   55MOL   H30130649   4.696   3.327   3.089 -0.3724  0.8678  0.1501
   55MOL   H30230650   4.794   3.478   2.870  1.2922  0.3969  3.1217
   55MOL   H30330651   4.946   3.470   3.001  0.1244  2.7946  0.2300
   55MOL   H30430652   4.782   3.632   3.083  0.1164 -0.8401 -1.5923
   55MOL   H30530653   4.750   3.534   3.216 -0.2457 -2.8433 -1.1839
   55MOL   H30630654   4.934   3.340   3.279  0.0683 -2.8806 -0.5466
   55MOL   H30730655   5.063   3.432   3.210  0.3031 -0.0355 -1.2067
   55MOL   H30830656   5.062   3.175   3.216 -3.2720 -0.3745  0.9031
   55MOL   H30930657   5.110   3.248   3.061 -0.2473 -1.1216 -0.9070
   55MOL   O31030658   4.935   3.641   3.210 -0.3024  0.3211 -0.1488
   55MOL   C31130659   4.990   3.751   3.138  0.3618 -0.1527 -0.5079
   55MOL   C31230660   5.145   3.761   3.148  0.2475  0.1485 -0.2236
   55MOL   O31330661   5.191   3.806   3.018 -0.1630  0.7994 -0.2109
   55MOL   C31430662   5.200   3.859   3.257 -0.1319 -0.0968  0.2745
   55MOL   C31530663   5.351   3.858   3.262 -0.8789 -0.1139 -0.2744
   55MOL   C31630664   5.415   3.958   3.359  0.0592 -0.5718  0.7442
   55MOL   O31730665   5.558   3.940   3.373  0.2604 -0.5065  0.2106
   55MOL   C31830666   5.341   3.963   3.503  0.5691 -0.1530  0.6449
   55MOL   C31930667   5.380   4.092   3.579  0.1565  0.0425 -0.4247
   55MOL   C32030668   5.193   3.954   3.488  0.8528  0.7368  0.3373
   55MOL   C32130669   5.147   3.834   3.403 -0.9822  0.1717  0.0965
   55MOL   H32230670   4.952   3.838   3.191 -1.4746 -0.3096 -1.5459
   55MOL   H32330671   4.959   3.727   3.037 -0.0919 -0.1594 -0.3661
   55MOL   H32430672   5.173   3.657   3.163 -0.8544  0.2539  2.9116
   55MOL   H32530673   5.143   3.886   3.011 -0.5029  0.3908 -2.8270
   55MOL   H32630674   5.170   3.962   3.236 -0.8204 -0.1929  0.7665
   55MOL   H32730675   5.377   3.756   3.286 -2.7650 -0.5640 -0.0496
   55MOL   H32830676   5.405   3.867   3.167  1.8548 -2.3615  1.0019
   55MOL   H32930677   5.402   4.056   3.314  1.2272 -1.1098 -0.7958
   55MOL   H33030678   5.570   3.881   3.447 -1.8474 -2.3171 -0.8194
   55MOL   H33130679   5.379   3.881   3.565 -0.3478 -0.3925  0.9012
   55MOL   H33230680   5.488   4.097   3.564  0.4199 -0.5919  1.2517
   55MOL   H33330681   5.326   4.177   3.537 -0.2289  0.7801  1.5128
   55MOL   H33430682   5.158   4.047   3.444 -0.4308 -0.2969 -0.8809
   55MOL   H33530683   5.133   3.941   3.578  0.3423  1.1911  0.0655
   55MOL   H33630684   5.038   3.827   3.405 -0.9555 -0.8396 -1.3433
   55MOL   H33730685   5.179   3.736   3.438 -0.2430  0.7662  1.0970
   55MOL   O33830686   5.357   4.076   3.718 -0.4835  0.3942  0.5960
   55MOL   C33930687   5.470   4.128   3.793  0.1739  0.6127  0.6257
   55MOL   C34030688   5.429   4.083   3.937  0.5853 -0.3783 -0.4141
   55MOL   O34130689   5.288   4.103   3.952  0.1361 -0.0911 -1.0174
   55MOL   C34230690   5.469   3.939   3.972 -0.1274 -0.3393 -0.1191
   55MOL   C34330691   5.465   3.840   3.854 -0.3539  0.4205 -0.0557
   55MOL   C34430692   5.510   3.697   3.887 -0.2784  0.2700 -0.1263
   55MOL   O34530693   5.491   3.597   3.784 -0.1334  0.2241 -0.4642
   55MOL   C34630694   5.438   3.641   4.012 -0.0380  0.5028  0.2364
   55MOL   C34730695   5.473   3.498   4.056 -0.3795  0.4854  0.0008
   55MOL   C34830696   5.456   3.738   4.129 -0.4679  0.1663  0.7045
   55MOL   C34930697   5.401   3.880   4.099 -0.0166  0.6190  0.2256
   55MOL   H35030698   5.472   4.237   3.782 -1.4339  0.7077  1.1875
   55MOL   H35130699   5.570   4.091   3.771  0.9829  2.8292  0.3904
   55MOL   H35230700   5.467   4.158   4.007 -1.2592 -0.3319  0.5849
   55MOL   H35330701   5.243   4.079   3.873  0.8936 -0.9682 -1.1848
   55MOL   H35430702   5.574   3.938   4.001 -0.1945 -3.0337  0.1539
   55MOL   H35530703   5.362   3.835   3.819 -0.5486 -1.8749  0.7854
   55MOL   H35630704   5.523   3.870   3.767  1.4747 -2.1755  0.2169
   55MOL   H35730705   5.616   3.714   3.905 -0.0820 -1.6656  0.6168
   55MOL   H35830706   5.401   3.567   3.780 -0.1031  0.2497 -1.6848
   55MOL   H35930707   5.330   3.632   3.998  0.4216 -0.5185 -3.1377
   55MOL   H36030708   5.448   3.474   4.159  1.8483  2.0599  0.9451
   55MOL   H36130709   5.423   3.420   3.999  0.2284  0.6491 -0.7708
   55MOL   H36230710   5.558   3.745   4.165  0.1876 -1.9075 -0.6323
   55MOL   H36330711   5.403   3.699   4.215  0.7841 -0.3321  1.2607
   55MOL   H36430712   5.425   3.945   4.183  2.3814  0.2135 -0.1220
   55MOL   H36530713   5.293   3.886   4.081  0.2765  0.7648 -1.5636
   55MOL   O36630714   5.615   3.488   4.057  0.1720 -0.5389 -0.4031
   55MOL   C36730715   5.653   3.351   4.047 -0.2769 -0.0189 -0.1723
   55MOL   C36830716   5.799   3.337   4.085  0.0980 -0.3163  1.0946
   55MOL   O36930717   5.809   3.396   4.211 -0.8125 -0.1542  0.2901
   55MOL   C37030718   5.860   3.191   4.090 -0.3122  0.0479 -0.5164
   55MOL   C37130719   5.998   3.181   4.146 -0.1195  0.5376 -0.2310
   55MOL   C37230720   6.046   3.038   4.164  1.0766 -0.3030  0.5417
   55MOL   O37330721   6.163   3.032   4.238  0.2676 -0.1839 -0.0086
   55MOL   C37430722   6.057   2.981   4.030  0.7194 -0.1390  0.3579
   55MOL   C37530723   6.102   2.829   4.036  0.7617  0.5307 -0.8228
   55MOL   C37630724   5.922   2.992   3.949  0.6137  0.3812  0.8729
   55MOL   C37730725   5.865   3.128   3.954 -0.4065 -0.5013  0.3515
   55MOL   H37830726   5.642   3.306   3.948  1.1220 -1.3292  0.2431
   55MOL   H37930727   5.586   3.292   4.109  0.1647 -1.0885 -0.6831
   55MOL   H38030728   5.858   3.403   4.020  1.2369 -1.1173  1.3004
   55MOL   H38130729   5.760   3.475   4.199 -0.1189 -0.0434 -2.0847
   55MOL   H38230730   5.795   3.128   4.151  0.1023 -0.2528 -0.3857
   55MOL   H38330731   6.062   3.243   4.084 -1.3073  1.5257 -0.4847
   55MOL   H38430732   6.003   3.233   4.241 -1.4276  0.5120 -0.1375
   55MOL   H38530733   5.972   2.983   4.222  0.0809 -0.1376 -0.5505
   55MOL   H38630734   6.225   3.092   4.199 -0.4840  0.9943  0.5902
   55MOL   H38730735   6.137   3.041   3.987 -1.5962  1.9695 -1.1532
   55MOL   H38830736   6.115   2.785   3.937 -0.2144 -3.2522  0.6205
   55MOL   H38930737   6.192   2.810   4.093 -0.4652 -2.0329  0.3483
   55MOL   H39030738   5.841   2.927   3.979  2.2476 -2.9427 -1.6011
   55MOL   H39130739   5.925   2.962   3.845  0.8350  0.8255  0.7478
   55MOL   H39230740   5.765   3.120   3.911  0.0633 -2.6658 -0.3648
   55MOL   H39330741   5.926   3.196   3.895 -0.0958  0.5460  1.8352
   55MOL   O39430742   5.992   2.747   4.089 -0.1599  0.5321  0.6587
   55MOL   C39530743   6.014   2.606   4.073 -0.2880  0.2925  0.1253
   55MOL   C39630744   5.878   2.530   4.085 -0.0564  0.0837 -0.0645
   55MOL   O39730745   5.851   2.512   4.218 -0.5059 -0.1344 -0.1253
   55MOL   C39830746   5.758   2.594   4.009 -0.5550  0.2521  0.2209
   55MOL   C39930747   5.633   2.511   4.035 -0.4853 -0.2991 -0.2631
   55MOL   C40030748   5.506   2.567   3.966  0.2353 -0.4444 -0.4928
   55MOL   O40130749   5.393   2.486   4.000  0.2197 -0.7846 -0.1184
   55MOL   C40230750   5.528   2.595   3.811  0.4808  0.3160  0.6182
   55MOL   C40330751   5.399   2.657   3.754 -0.3524  0.5208  0.5760
   55MOL   C40430752   5.658   2.679   3.801 -0.1534 -0.0317 -0.3242
   55MOL   C40530753   5.782   2.611   3.861 -0.0167  0.3563  0.1982
   55MOL   H40630754   6.088   2.574   4.146 -0.4280  1.2371  0.6903
   55MOL   H40730755   6.058   2.585   3.975  2.0096  0.7787  1.0120
   55MOL   H40830756   5.890   2.428   4.047  0.9033  0.3275 -0.4243
   55MOL   H40930757   5.824   2.596   4.252 -0.4504 -0.1876  0.0492
   55MOL   H41030758   5.739   2.690   4.059 -1.2120 -0.6603  1.7582
   55MOL   H41130759   5.645   2.405   4.011  0.2387  0.1202 -1.8224
   55MOL   H41230760   5.615   2.509   4.142  0.0995  0.2599 -0.1528
   55MOL   H41330761   5.485   2.662   4.015  1.0949 -1.0207  1.0307
   55MOL   H41430762   5.325   2.525   3.947  1.6905  1.2947 -0.5393
   55MOL   H41530763   5.544   2.501   3.759 -0.6306  0.1557  0.5571
   55MOL   H41630764   5.427   2.669   3.650 -0.2310 -0.0174  0.5432
   55MOL   H41730765   5.319   2.585   3.769  0.3215 -0.7718 -1.8061
   55MOL   H41830766   5.662   2.775   3.853  2.3457  0.0903 -0.6603
   55MOL   H41930767   5.678   2.689   3.694 -0.4306  2.2841 -0.1860
   55MOL   H42030768   5.870   2.671   3.839 -0.9336  1.6710  0.0800
   55MOL   H42130769   5.797   2.510   3.822 -1.3738 -0.1802  1.0116
   55MOL   O42230770   5.375   2.777   3.823 -0.0585  0.0338  0.1092
   55MOL   C42330771   5.283   2.863   3.756  0.6905 -0.1870 -0.2225
   55MOL   C42430772   5.301   3.002   3.824  0.9402 -0.0715 -0.3736
   55MOL   O42530773   5.442   3.030   3.830 -0.2310  0.8795 -0.0356
   55MOL   C42630774   5.238   3.123   3.760  0.3033 -0.3301  0.2908
   55MOL   C42730775   5.280   3.262   3.820 -0.3956  0.0227 -0.0783
   55MOL   C42830776   5.212   3.377   3.735 -0.9796 -0.1108 -0.8868
   55MOL   O42930777   5.235   3.484   3.813 -0.9125  0.3244 -0.5811
   55MOL   C43030778   5.056   3.359   3.707  0.0070  0.1774  0.0021
   55MOL   C43130779   5.014   3.461   3.595  0.0779 -0.2728 -0.4146
   55MOL   C43230780   5.025   3.210   3.664  0.0241 -0.0536  0.5351
   55MOL   C43330781   5.082   3.104   3.753  0.0391 -0.2585  0.0479
   55MOL   H43430782   5.182   2.822   3.758 -0.2593  2.0785 -0.9666
   55MOL   H43530783   5.326   2.880   3.657 -0.6052  1.4268 -0.5120
   55MOL   H43630784   5.263   2.990   3.926  0.1181  2.6309 -0.3091
   55MOL   H43730785   5.477   2.954   3.873 -1.0002  1.7848  2.2899
   55MOL   H43830786   5.277   3.117   3.658 -0.8427  1.0423 -0.2351
   55MOL   H43930787   5.256   3.262   3.926 -0.0618 -1.2947  0.0036
   55MOL   H44030788   5.388   3.274   3.818 -0.4235  0.1962 -0.7273
   55MOL   H44130789   5.266   3.399   3.643 -0.2568  0.0599 -0.4226
   55MOL   H44230790   5.181   3.474   3.890  0.6259  1.0212  0.6189
   55MOL   H44330791   4.992   3.374   3.794 -1.1190 -1.5927 -0.5091
   55MOL   H44430792   5.058   3.556   3.625  0.1957  0.3248 -2.4418
   55MOL   H44530793   5.071   3.441   3.504  1.9068 -0.2530  0.6856
   55MOL   H44630794   5.041   3.194   3.557  0.6064  0.1709  0.5882
   55MOL   H44730795   4.916   3.202   3.666 -0.0398 -0.7409 -2.4419
   55MOL   H44830796   5.052   3.007   3.716  1.9638 -1.1725  0.8336
   55MOL   H44930797   5.037   3.114   3.852 -1.5729  0.1007 -0.6981
   55MOL   O45030798   4.869   3.485   3.582  0.1926  0.0566 -0.1098
   55MOL   C45130799   4.843   3.606   3.520 -0.0837 -0.1822  0.5363
   55MOL   C45230800   4.817   3.712   3.629  0.5162  0.7087  0.5915
   55MOL   O45330801   4.939   3.765   3.672  0.5760  0.4199  0.3609
   55MOL   C45430802   4.712   3.825   3.581 -0.0824  0.2384  0.5307
   55MOL   C45530803   4.767   3.915   3.475  0.3595  0.2416  0.1361
   55MOL   C45630804   4.664   4.026   3.430  0.0832 -1.0719  0.1281
   55MOL   O45730805   4.734   4.114   3.349  0.1136  0.0110  0.2598
   55MOL   C45830806   4.606   4.109   3.550  0.5874 -0.2230 -0.2683
   55MOL   C45930807   4.492   4.204   3.510 -0.6677 -0.1292 -0.5168
   55MOL   C46030808   4.564   4.023   3.665 -0.0708 -0.3785 -0.0152
   55MOL   C46130809   4.679   3.919   3.699 -0.1466 -0.0105  0.3829
   55MOL   H46230810   4.753   3.581   3.464  0.2385  4.3016 -2.1716
   55MOL   H46330811   4.918   3.636   3.446  0.6900  1.5183  1.9801
   55MOL   H46430812   4.764   3.671   3.715 -1.9107  0.8428 -0.8124
   55MOL   H46530813   4.964   3.711   3.745 -1.0296 -2.5397 -1.1706
   55MOL   H46630814   4.626   3.763   3.554 -0.3447  1.2930 -1.1401
   55MOL   H46730815   4.850   3.978   3.507  0.1202  0.2087  0.8146
   55MOL   H46830816   4.812   3.854   3.396  0.6983  1.5771 -0.7300
   55MOL   H46930817   4.575   3.977   3.390  0.1142 -1.4391  0.4994
   55MOL   H47030818   4.726   4.085   3.259 -2.0938  0.1123  0.3900
   55MOL   H47130819   4.685   4.178   3.580  1.5820 -1.8663  0.9661
   55MOL   H47230820   4.487   4.282   3.586 -1.9657 -0.2965 -0.4224
   55MOL   H47330821   4.500   4.248   3.410  1.0643  0.2847 -0.2169
   55MOL   H47430822   4.478   3.957   3.656  0.6784 -1.4491  0.4116
   55MOL   H47530823   4.527   4.080   3.750 -0.2853 -1.3516  0.5505
   55MOL   H47630824   4.635   3.870   3.786 -0.4028  0.0287  0.2747
   55MOL   H47730825   4.763   3.981   3.732  1.7949 -1.2893 -2.0448
   55MOL   O47830826   4.369   4.125   3.512 -0.0266 -0.6545 -0.2172
   55MOL   C47930827   4.262   4.208   3.477 -0.2480 -0.2090  0.1513
   55MOL   C48030828   4.144   4.174   3.559  1.0030  0.0525 -0.2429
   55MOL   O48130829   4.188   4.191   3.694  0.0811  0.4736 -0.0684
   55MOL   C48230830   4.028   4.270   3.523 -0.6605  0.8031 -0.0905
   55MOL   C48330831   3.911   4.266   3.621  0.0258 -0.5019 -0.0845
   55MOL   C48430832   3.805   4.370   3.587  0.4801 -0.3417  0.2248
   55MOL   O48530833   3.702   4.373   3.684  0.6303 -0.1605 -0.3582
   55MOL   C48630834   3.739   4.347   3.447 -0.3691  0.2283 -0.0443
   55MOL   C48730835   3.642   4.458   3.409 -0.6607  0.2105  0.4647
   55MOL   C48830836   3.854   4.347   3.346 -0.7205  0.5405  0.4672
   55MOL   C48930837   3.967   4.250   3.381 -0.3021 -0.3541 -0.0198
   55MOL   H49030838   4.238   4.193   3.372 -1.7228 -1.0895  0.5919
   55MOL   H49130839   4.284   4.315   3.477  0.0636 -0.2477 -2.5551
   55MOL   H49230840   4.101   4.075   3.544 -0.0186  0.7463 -1.9615
   55MOL   H49330841   4.264   4.135   3.702  0.8730  1.4822 -0.4237
   55MOL   H49430842   4.075   4.368   3.520  1.6760 -0.2577  1.1280
   55MOL   H49530843   3.871   4.164   3.622  0.6644 -0.8090 -2.0914
   55MOL   H49630844   3.954   4.289   3.718  1.6943  0.7008 -1.0775
   55MOL   H49730845   3.856   4.465   3.574 -0.4786  0.0318 -0.9801
   55MOL   H49830846   3.659   4.289   3.685  1.5749 -0.6465 -0.9999
   55MOL   H49930847   3.681   4.255   3.451 -0.3135  0.1180 -1.4737
   55MOL   H50030848   3.572   4.458   3.493  0.8128 -1.3363  1.7395
   55MOL   H50130849   3.685   4.555   3.386 -0.4268 -0.2679 -1.1721
   55MOL   H50230850   3.900   4.446   3.345 -0.7810  0.5831  1.3739
   55MOL   H50330851   3.825   4.338   3.241  0.5263 -0.6250  0.1966
   55MOL   H50430852   4.045   4.257   3.305  0.9352 -0.3649  1.2319
   55MOL   H50530853   3.914   4.155   3.369 -1.0368 -0.1013  1.1324
   55MOL   O50630854   3.572   4.421   3.292 -0.3688  0.4104 -0.0333
   55MOL   C50730855   3.469   4.514   3.255  0.6921  0.3434 -0.5201
   55MOL   C50830856   3.373   4.432   3.166  0.3928  0.3081 -0.1134
   55MOL   O50930857   3.441   4.409   3.041 -0.4097  0.5540  0.3512
   55MOL   C51030858   3.326   4.295   3.213  0.7106  0.1603 -0.2399
   55MOL   C51130859   3.207   4.245   3.128 -0.1840  0.5802 -0.0729
   55MOL   C51230860   3.165   4.102   3.164 -0.1892 -0.3387  0.3608
   55MOL   O51330861   3.059   4.065   3.078  0.0231 -0.4453  0.0884
   55MOL   C51430862   3.123   4.099   3.313  0.5895 -0.3603  0.0973
   55MOL   C51530863   3.080   3.959   3.353 -0.2279 -0.2375  0.2394
   55MOL   C51630864   3.236   4.150   3.399  0.6686 -0.4192 -0.2384
   55MOL   C51730865   3.286   4.290   3.366 -0.5198 -0.2315 -0.3048
   55MOL   H51830866   3.525   4.599   3.216  0.5856  1.9859  2.7167
   55MOL   H51930867   3.414   4.539   3.345 -1.5956 -1.3601 -1.4155
   55MOL   H52030868   3.284   4.495   3.168 -0.3320 -0.7447  1.1641
   55MOL   H52130869   3.508   4.343   3.054 -2.2622 -1.1903  1.3774
   55MOL   H52230870   3.407   4.222   3.214  1.4928  1.0068  1.5140
   55MOL   H52330871   3.117   4.306   3.133 -0.7712 -0.4527  2.8129
   55MOL   H52430872   3.243   4.253   3.025  1.2630  1.7006  0.4980
   55MOL   H52530873   3.257   4.048   3.140  0.4868  1.1764 -0.5764
   55MOL   H52630874   3.097   4.001   3.019 -0.3081 -0.9478  0.4183
   55MOL   H52730875   3.045   4.174   3.331  1.1986  0.6079 -1.2242
   55MOL   H52830876   2.998   3.927   3.288  1.2682 -1.0222 -1.2958
   55MOL   H52930877   3.160   3.885   3.351  0.3045  0.2982  1.2556
   55MOL   H53030878   3.313   4.073   3.391 -0.4034 -1.6511  0.9455
   55MOL   H53130879   3.209   4.152   3.505  0.5330 -3.5740 -0.1657
   55MOL   H53230880   3.370   4.325   3.426 -0.0195 -2.1996  0.1834
   55MOL   H53330881   3.203   4.359   3.376  0.0710  0.6923 -1.6524
   55MOL   O53430882   3.014   3.948   3.477 -0.1804 -0.0900 -0.3240
   55MOL   C53530883   2.909   3.842   3.483 -0.2397 -0.1574  0.0056
   55MOL   C53630884   2.884   3.811   3.632  0.3327 -0.0053  0.0535
   55MOL   O53730885   2.781   3.891   3.683 -0.4268 -0.1501 -0.5767
   55MOL   C53830886   2.840   3.663   3.652 -0.4903 -0.0551  0.4858
   55MOL   C53930887   2.701   3.626   3.593  1.4733 -0.4269  0.6776
   55MOL   C54030888   2.682   3.474   3.597 -0.5758  0.7108  0.1795
   55MOL   O54130889   2.546   3.456   3.553  0.6347 -0.3879 -0.2052
   55MOL   C54230890   2.700   3.417   3.735  0.1708 -0.4626  0.4925
   55MOL   C54330891   2.682   3.267   3.738  0.3531  0.0796  0.5440
   55MOL   C54430892   2.826   3.459   3.802 -0.1937  0.9301  0.0044
   55MOL   C54530893   2.849   3.612   3.796 -0.1284 -0.3425 -0.5758
   55MOL   H54630894   2.961   3.749   3.461 -2.3772 -0.8845 -2.2212
   55MOL   H54730895   2.817   3.856   3.427  0.3555 -0.1288 -0.9777
   55MOL   H54830896   2.974   3.842   3.685  1.1428 -0.2623 -1.1633
   55MOL   H54930897   2.812   3.980   3.693 -0.9848 -0.1430  1.3519
   55MOL   H55030898   2.913   3.604   3.595 -0.3965  0.1321  0.4106
   55MOL   H55130899   2.627   3.681   3.651 -1.6698 -3.3679 -0.3751
   55MOL   H55230900   2.701   3.667   3.492  0.2191  0.7362  1.1305
   55MOL   H55330901   2.743   3.418   3.527 -2.5237 -1.9240  0.5233
   55MOL   H55430902   2.528   3.495   3.468 -3.4858 -1.5732  0.0029
   55MOL   H55530903   2.615   3.456   3.791 -1.7406  0.3076 -2.8286
   55MOL   H55630904   2.702   3.221   3.835  0.5985 -0.1794  0.3715
   55MOL   H55730905   2.580   3.242   3.710 -0.5865  3.0556  1.1518
   55MOL   H55830906   2.911   3.409   3.756 -0.5454  1.2565 -1.0027
   55MOL   H55930907   2.822   3.442   3.910 -0.4031  1.5865  0.1042
   55MOL   H56030908   2.941   3.642   3.847  0.5341 -0.7507 -1.5268
   55MOL   H56130909   2.774   3.663   3.856 -1.2251  0.2551 -2.4239
   55MOL   H56230910   2.749   3.212   3.672  0.1013 -0.0148  0.3643
   56MOL     O130911   4.280   1.476   2.950 -0.8331 -0.0111 -0.3284
   56MOL     C230912   4.408   1.413   2.950 -0.3493  0.2046 -0.2904
   56MOL     C330913   4.494   1.486   3.050  0.3162  0.0076 -0.3404
   56MOL     O430914   4.424   1.497   3.174  0.6946 -0.3312 -0.0110
   56MOL     C530915   4.634   1.417   3.073  0.6298  0.1723 -0.3537
   56MOL     C630916   4.615   1.280   3.145  0.2313 -0.4281 -0.2293
   56MOL     C730917   4.754   1.223   3.171  0.4190  0.3325 -0.2481
   56MOL     O830918   4.737   1.099   3.226 -0.0809  0.2193 -0.4286
   56MOL     C930919   4.850   1.304   3.264  0.3068 -0.8639  0.0527
   56MOL    C1030920   4.990   1.242   3.275  0.1648 -0.4136 -0.8442
   56MOL    C1130921   4.865   1.446   3.197  0.1738 -0.2018 -0.0847
   56MOL    C1230922   4.730   1.511   3.160 -0.0439  1.0682 -0.4407
   56MOL    H1330923   4.456   1.428   2.853 -0.3977 -1.4452 -0.5818
   56MOL    H1430924   4.401   1.306   2.966  0.4775  0.2102  0.1611
   56MOL    H1530925   4.509   1.589   3.019  1.5362  0.4391  1.6703
   56MOL    H1630926   4.369   1.421   3.185  0.1826 -0.2440 -1.8381
   56MOL    H1730927   4.691   1.405   2.981  0.3305  0.9938 -0.6469
   56MOL    H1830928   4.563   1.305   3.238 -0.5471  0.3719 -0.8731
   56MOL    H1930929   4.558   1.205   3.091 -1.1101 -0.9405  1.8300
   56MOL    H2030930   4.806   1.212   3.076 -0.8446  0.0597 -0.9226
   56MOL    H2130931   4.818   1.086   3.273 -0.9510 -1.9090  0.5599
   56MOL    H2230932   4.809   1.319   3.364 -0.3888  1.2232 -0.5090
   56MOL    H2330933   5.039   1.239   3.177  2.1203 -1.9115  0.1614
   56MOL    H2430934   5.043   1.318   3.331 -0.6605 -0.8042  0.4842
   56MOL    H2530935   4.926   1.431   3.108  0.4752 -0.8218  0.2208
   56MOL    H2630936   4.924   1.511   3.261 -1.1921  1.3789 -0.4057
   56MOL    H2730937   4.744   1.608   3.113  1.5515  0.9790 -0.1841
   56MOL    H2830938   4.686   1.531   3.258 -0.7275  1.1600 -0.7609
   56MOL    H2930939   4.291   1.559   2.996  2.3938  0.1068 -1.1871
   56MOL    O3030940   4.988   1.110   3.331  0.4484 -0.1074  0.0504
   56MOL    C3130941   5.118   1.050   3.321  0.2200 -0.3763  0.2588
   56MOL    C3230942   5.127   0.933   3.416  0.4254  0.4624  0.5020
   56MOL    O3330943   5.166   0.978   3.545 -0.1259  0.2522  0.2616
   56MOL    C3430944   5.007   0.845   3.424  0.1711 -0.5816  0.3573
   56MOL    C3530945   5.028   0.730   3.526 -0.1498 -0.1094  1.0065
   56MOL    C3630946   4.896   0.664   3.561  0.2638  0.2951 -0.1500
   56MOL    O3730947   4.914   0.559   3.660 -0.0818 -0.3758 -0.3968
   56MOL    C3830948   4.839   0.589   3.434  0.1067  0.5247  0.2132
   56MOL    C3930949   4.695   0.533   3.459  0.9258  0.0684 -0.7889
   56MOL    C4030950   4.833   0.687   3.313 -0.5114 -0.7734 -0.6891
   56MOL    C4130951   4.962   0.775   3.292 -0.2761  0.9068  0.0326
   56MOL    H4230952   5.195   1.126   3.334 -1.5259  1.4217  0.3820
   56MOL    H4330953   5.138   1.008   3.222  0.7019 -0.6769  0.4784
   56MOL    H4430954   5.211   0.871   3.382 -1.9806 -3.0094  0.6543
   56MOL    H4530955   5.249   1.023   3.542 -1.4194  2.7692  1.2154
   56MOL    H4630956   4.921   0.900   3.460 -0.0615 -0.3435 -0.5319
   56MOL    H4730957   5.106   0.659   3.498 -2.7966 -2.2209 -1.3059
   56MOL    H4830958   5.065   0.768   3.621  1.3166  1.4034 -0.1436
   56MOL    H4930959   4.819   0.735   3.591 -0.7085 -1.9446  2.7661
   56MOL    H5030960   4.980   0.506   3.619 -2.2723 -2.1694 -1.7445
   56MOL    H5130961   4.900   0.504   3.404  1.0701  2.6055 -4.0098
   56MOL    H5230962   4.650   0.508   3.363 -1.5086  0.0617  0.3312
   56MOL    H5330963   4.712   0.448   3.525  1.6089  0.6397 -0.2277
   56MOL    H5430964   4.756   0.762   3.328  1.5762  1.4044 -0.4834
   56MOL    H5530965   4.814   0.641   3.217  0.9221 -1.8561 -0.4767
   56MOL    H5630966   4.931   0.845   3.214 -1.6241 -0.0658 -0.3319
   56MOL    H5730967   5.044   0.712   3.258 -0.8477 -0.1326  0.5474
   56MOL    O5830968   4.614   0.641   3.516 -0.2562 -0.2480  0.0447
   56MOL    C5930969   4.486   0.591   3.527  0.2258  0.0465  0.3204
   56MOL    C6030970   4.395   0.689   3.604  0.1356  0.1085 -0.0063
   56MOL    O6130971   4.456   0.704   3.729  0.2487  0.5829  0.6977
   56MOL    C6230972   4.364   0.827   3.536  0.2722  0.5572  0.7148
   56MOL    C6330973   4.477   0.928   3.529 -0.5129 -0.0154 -0.0296
   56MOL    C6430974   4.437   1.057   3.445 -0.1036  0.7852 -0.0323
   56MOL    O6530975   4.551   1.135   3.425  0.2330 -0.2828  0.3093
   56MOL    C6630976   4.321   1.129   3.514  0.1382 -0.3196  0.8359
   56MOL    C6730977   4.249   1.238   3.436  0.0009 -0.4402 -0.0045
   56MOL    C6830978   4.201   1.028   3.543  0.0190 -0.3741  0.0208
   56MOL    C6930979   4.250   0.894   3.612  0.0591 -0.1491 -0.0445
   56MOL    H7030980   4.496   0.498   3.584 -0.5132  0.2376  0.7613
   56MOL    H7130981   4.448   0.572   3.426  0.2844  1.4936  0.0113
   56MOL    H7230982   4.300   0.637   3.617  0.2663  0.2601  1.5828
   56MOL    H7330983   4.503   0.627   3.758  0.9264  0.2153 -1.2472
   56MOL    H7430984   4.346   0.805   3.430 -0.7882 -2.1802  1.4193
   56MOL    H7530985   4.512   0.959   3.627 -0.0676 -5.0463  1.5858
   56MOL    H7630986   4.555   0.874   3.476  0.2108 -1.9801  2.9001
   56MOL    H7730987   4.391   1.031   3.350  0.9744 -0.0331 -0.3424
   56MOL    H7830988   4.604   1.113   3.350  0.5043  0.1753  0.3625
   56MOL    H7930989   4.356   1.162   3.612  0.1131  1.6762  0.2022
   56MOL    H8030990   4.222   1.208   3.334 -1.0336  1.7920 -0.4214
   56MOL    H8130991   4.157   1.271   3.484  0.5943  0.3736  0.5801
   56MOL    H8230992   4.141   0.991   3.460 -0.0688 -0.1338 -0.0231
   56MOL    H8330993   4.121   1.076   3.600  1.2057  0.8328  0.6917
   56MOL    H8430994   4.170   0.819   3.622 -1.3333  1.5133  1.5436
   56MOL    H8530995   4.298   0.914   3.708  3.1211 -1.8351 -1.1450
   56MOL    O8630996   4.330   1.355   3.407  0.1952  0.2263  0.1072
   56MOL    C8730997   4.356   1.431   3.522  0.2544  0.5433  0.2193
   56MOL    C8830998   4.381   1.588   3.497 -0.1737  0.2546  0.4321
   56MOL    O8930999   4.499   1.606   3.431  0.8524 -0.0472 -0.1254
   56MOL    C9031000   4.272   1.667   3.431  0.7710 -0.2618  0.1751
   56MOL    C9131001   4.322   1.795   3.347  0.0974 -1.0318  0.3759
   56MOL    C9231002   4.211   1.873   3.288  0.3950 -0.0088  0.3301
   56MOL    O9331003   4.278   1.988   3.224 -0.2543 -0.1043  0.1836
   56MOL    C9431004   4.109   1.922   3.391 -0.0214  0.2827  0.5183
   56MOL    C9531005   3.990   2.002   3.328  0.2030 -0.0665  0.0750
   56MOL    C9631006   4.063   1.795   3.472  0.1346 -0.8783  0.1282
   56MOL    C9731007   4.158   1.695   3.526  0.1201  0.1711 -0.1055
   56MOL    H9831008   4.442   1.383   3.568  0.5536 -0.4361 -1.3158
   56MOL    H9931009   4.268   1.420   3.585 -0.7107 -1.2789 -1.3994
   56MOL   H10031010   4.398   1.634   3.595  0.0376 -0.3059  0.6624
   56MOL   H10131011   4.476   1.565   3.349 -0.0504 -2.8145  1.4616
   56MOL   H10231012   4.226   1.608   3.352  0.5807 -0.6241  0.5578
   56MOL   H10331013   4.380   1.860   3.412 -0.1566 -0.1181 -0.3042
   56MOL   H10431014   4.385   1.762   3.265  1.5916 -2.2068  1.9726
   56MOL   H10531015   4.164   1.810   3.212  2.9449 -1.2297 -0.2527
   56MOL   H10631016   4.242   2.067   3.262  1.4578  0.0711  1.5051
   56MOL   H10731017   4.161   1.987   3.461  0.5124  0.6216 -0.1899
   56MOL   H10831018   3.944   1.948   3.246 -0.2081 -1.2939  1.1029
   56MOL   H10931019   3.910   2.011   3.402  1.4755 -0.0167  1.4886
   56MOL   H11031020   4.005   1.735   3.403 -0.4177  1.3058 -1.3691
   56MOL   H11131021   3.992   1.827   3.548 -0.3555  0.2517 -0.7893
   56MOL   H11231022   4.105   1.603   3.547 -0.1988  0.6226  1.1307
   56MOL   H11331023   4.192   1.725   3.625  0.2975  0.4803 -0.2563
   56MOL   O11431024   4.030   2.131   3.285  0.3627 -0.7829 -0.1902
   56MOL   C11531025   3.925   2.216   3.243 -0.2992  0.1273 -0.2210
   56MOL   C11631026   3.988   2.351   3.194 -0.2996  0.1863  0.2750
   56MOL   O11731027   3.893   2.420   3.121  0.2815 -0.0086 -0.2095
   56MOL   C11831028   4.051   2.438   3.304 -0.2716 -0.1247 -0.5100
   56MOL   C11931029   3.971   2.460   3.421 -0.3217 -0.9195 -0.7092
   56MOL   C12031030   4.016   2.568   3.514 -0.6941 -0.5435 -0.2363
   56MOL   O12131031   3.905   2.599   3.593  0.2993  0.0215 -0.0167
   56MOL   C12231032   4.060   2.699   3.452  0.8775  0.3783 -0.8251
   56MOL   C12331033   4.101   2.816   3.548 -0.5714 -0.5792 -0.4124
   56MOL   C12431034   4.168   2.664   3.344  0.4516 -0.2849 -0.7087
   56MOL   C12531035   4.105   2.567   3.241 -0.0392 -0.2849 -0.3832
   56MOL   H12631036   3.852   2.238   3.320 -1.9217 -1.3907 -1.2943
   56MOL   H12731037   3.869   2.166   3.164  0.8147  0.3277 -1.1547
   56MOL   H12831038   4.072   2.321   3.132 -0.4302  0.7304 -0.1656
   56MOL   H12931039   3.813   2.428   3.171  0.6885 -0.5067  0.5316
   56MOL   H13031040   4.141   2.393   3.346  0.0988  1.6911  0.7194
   56MOL   H13131041   3.868   2.487   3.396  0.0438  0.4060 -0.8352
   56MOL   H13231042   3.974   2.373   3.486  5.6153  0.1182  0.6462
   56MOL   H13331043   4.100   2.524   3.568 -1.9640  0.0321  2.3055
   56MOL   H13431044   3.906   2.557   3.677  1.8040  1.7964  0.8885
   56MOL   H13531045   3.967   2.734   3.406  1.2646  2.1423 -0.3244
   56MOL   H13631046   4.039   2.816   3.638  0.3861 -2.5886  0.2741
   56MOL   H13731047   4.203   2.808   3.586 -1.0466 -3.1698  0.3814
   56MOL   H13831048   4.258   2.620   3.386 -0.5414  0.5785  2.4958
   56MOL   H13931049   4.200   2.754   3.292  0.9776  0.8577  1.5183
   56MOL   H14031050   4.160   2.547   3.149 -0.8125 -0.9232 -0.7137
   56MOL   H14131051   4.024   2.619   3.191  0.1874 -1.1726 -1.7066
   56MOL   O14231052   4.093   2.940   3.472 -0.3287  0.4592 -0.7369
   56MOL   C14331053   4.144   3.053   3.547  0.1240 -0.3729  0.6541
   56MOL   C14431054   4.118   3.187   3.476  0.0544 -0.2470  0.6550
   56MOL   O14531055   4.163   3.300   3.550  0.1450  0.3779  0.1638
   56MOL   C14631056   4.162   3.198   3.327  0.5028 -0.0155 -0.0651
   56MOL   C14731057   4.311   3.182   3.309  0.4378 -0.2417 -0.5594
   56MOL   C14831058   4.359   3.218   3.165 -0.4136  0.2847 -0.6905
   56MOL   O14931059   4.495   3.193   3.162  0.2628 -0.6422  0.7280
   56MOL   C15031060   4.317   3.361   3.128 -0.0399  0.6238  0.2898
   56MOL   C15131061   4.384   3.425   3.006  0.0433  0.5904 -0.0755
   56MOL   C15231062   4.164   3.358   3.127 -0.9781  0.0633  0.2470
   56MOL   C15331063   4.118   3.340   3.271 -0.4712 -0.8653 -0.7116
   56MOL   H15431064   4.249   3.028   3.560  0.2097  0.1139  0.9254
   56MOL   H15531065   4.104   3.061   3.648 -2.2396  0.3183 -0.3015
   56MOL   H15631066   4.010   3.195   3.481  0.3493  4.3667  1.3593
   56MOL   H15731067   4.086   3.336   3.592  0.6898  0.2649  1.2943
   56MOL   H15831068   4.112   3.123   3.267  2.3817 -0.9850 -0.4677
   56MOL   H15931069   4.369   3.246   3.376  0.4922 -0.0391 -0.7981
   56MOL   H16031070   4.337   3.084   3.348 -0.5197  0.6199  2.3593
   56MOL   H16131071   4.321   3.149   3.090 -1.4149 -1.7645  1.6067
   56MOL   H16231072   4.501   3.099   3.159 -3.3700 -0.8656 -1.7231
   56MOL   H16331073   4.346   3.433   3.204 -0.6645  3.2814 -1.9213
   56MOL   H16431074   4.352   3.529   3.001  2.0934  1.3080  1.1633
   56MOL   H16531075   4.491   3.441   3.015 -0.0405  1.4269 -0.4730
   56MOL   H16631076   4.133   3.276   3.063 -0.4286  0.6983 -0.8391
   56MOL   H16731077   4.132   3.458   3.097  2.3629  0.8096 -1.1059
   56MOL   H16831078   4.012   3.364   3.278  0.5587  4.2575 -0.7663
   56MOL   H16931079   4.161   3.421   3.329 -0.6272 -2.0709  1.1346
   56MOL   O17031080   4.353   3.344   2.890  0.5117 -0.4462  0.1720
   56MOL   C17131081   4.460   3.290   2.814  0.1742  0.1404 -0.1527
   56MOL   C17231082   4.389   3.189   2.723 -0.8231  0.8346 -0.3029
   56MOL   O17331083   4.354   3.265   2.607 -0.6382 -0.0148 -0.1525
   56MOL   C17431084   4.482   3.073   2.682 -0.4764 -0.6181  0.4223
   56MOL   C17531085   4.602   3.115   2.600 -0.3786  0.2174  0.0840
   56MOL   C17631086   4.701   2.999   2.580 -0.5576 -0.3564  0.0947
   56MOL   O17731087   4.803   3.044   2.487 -0.3406 -0.0798 -0.5837
   56MOL   C17831088   4.628   2.875   2.517 -0.1780  0.0930 -0.6721
   56MOL   C17931089   4.718   2.756   2.524  0.4471  0.7302 -0.3035
   56MOL   C18031090   4.497   2.843   2.587 -0.3361  0.2981 -0.0831
   56MOL   C18131091   4.409   2.968   2.602  0.1343 -0.5078  0.9418
   56MOL   H18231092   4.520   3.226   2.879 -0.5325 -0.3063  0.0634
   56MOL   H18331093   4.526   3.365   2.770  1.0077 -0.3404  0.2659
   56MOL   H18431094   4.303   3.147   2.774  1.3340 -1.2331  1.7939
   56MOL   H18531095   4.292   3.335   2.623 -4.1487 -2.8587 -0.8549
   56MOL   H18631096   4.512   3.041   2.782 -1.6287 -0.7854  0.7275
   56MOL   H18731097   4.574   3.147   2.500  0.5742  1.1663  0.1024
   56MOL   H18831098   4.655   3.194   2.655  1.4543 -0.8688 -0.0700
   56MOL   H18931099   4.739   2.974   2.679  0.3453  1.3456  0.1787
   56MOL   H19031100   4.866   3.102   2.526 -0.4097  0.5698 -1.4248
   56MOL   H19131101   4.600   2.893   2.413  1.0875 -0.1658 -1.0606
   56MOL   H19231102   4.799   2.770   2.453  0.0602  1.1913 -0.6568
   56MOL   H19331103   4.764   2.751   2.623 -1.4360  0.3346  0.5843
   56MOL   H19431104   4.516   2.810   2.690 -1.9029 -0.7432 -0.1133
   56MOL   H19531105   4.446   2.759   2.540 -1.0161  1.2804 -1.1140
   56MOL   H19631106   4.318   2.939   2.655  0.1056 -3.5546 -0.6561
   56MOL   H19731107   4.374   3.006   2.506  2.1604  1.9125  1.1329
   56MOL   O19831108   4.653   2.631   2.496  0.1483 -0.5196  0.3805
   56MOL   C19931109   4.745   2.523   2.507  0.2376 -0.7163  0.3983
   56MOL   C20031110   4.679   2.398   2.442 -0.0538 -0.3399  0.0559
   56MOL   O20131111   4.660   2.430   2.311  0.6650 -0.6240  0.5657
   56MOL   C20231112   4.773   2.269   2.441  0.5389  0.0132  0.2106
   56MOL   C20331113   4.693   2.153   2.375  0.6163  0.2262  0.2429
   56MOL   C20431114   4.769   2.015   2.365 -0.7803  0.3069 -0.1700
   56MOL   O20531115   4.684   1.913   2.315 -0.4555  0.5072 -0.7646
   56MOL   C20631116   4.816   1.977   2.503 -0.0514 -0.5040  0.0137
   56MOL   C20731117   4.910   1.852   2.504 -0.5978  0.5008 -0.0248
   56MOL   C20831118   4.886   2.093   2.578 -0.1726  0.3418 -0.4695
   56MOL   C20931119   4.800   2.223   2.579  0.2599  0.5843  0.4192
   56MOL   H21031120   4.776   2.513   2.611  1.3206  0.1339  0.1580
   56MOL   H21131121   4.831   2.552   2.447 -0.7171 -0.5051 -0.8898
   56MOL   H21231122   4.578   2.391   2.483  0.0486  1.2022  0.5729
   56MOL   H21331123   4.641   2.523   2.313 -1.4606 -1.0190  0.4799
   56MOL   H21431124   4.867   2.300   2.394  0.8123  0.3551  0.9833
   56MOL   H21531125   4.594   2.142   2.419  0.2634 -0.2996 -0.6788
   56MOL   H21631126   4.674   2.189   2.274  0.6805 -2.3013 -0.7135
   56MOL   H21731127   4.849   2.027   2.292 -0.2974  0.5352  0.3966
   56MOL   H21831128   4.736   1.849   2.268  2.2875  1.5621  0.7154
   56MOL   H21931129   4.730   1.939   2.559  0.3241  1.1129  1.7448
   56MOL   H22031130   4.882   1.788   2.420 -2.0208 -0.3428  1.0540
   56MOL   H22131131   5.012   1.880   2.478 -0.1125 -2.1697 -1.2188
   56MOL   H22231132   4.977   2.118   2.523  1.0036  0.8818  1.6322
   56MOL   H22331133   4.921   2.053   2.674 -1.0778  0.8568  0.0858
   56MOL   H22431134   4.847   2.301   2.640  0.7793  0.9759 -0.4645
   56MOL   H22531135   4.710   2.205   2.637  0.5160 -1.5912  0.1856
   56MOL   O22631136   4.920   1.774   2.625 -0.1227 -0.1326  0.3341
   56MOL   C22731137   4.970   1.639   2.595  0.6009 -0.3066  0.3968
   56MOL   C22831138   4.976   1.561   2.725  0.2779  0.1593 -0.7202
   56MOL   O22931139   4.844   1.569   2.779 -0.1323 -0.4858  0.4795
   56MOL   C23031140   5.011   1.410   2.703  0.6510  0.1097  0.4210
   56MOL   C23131141   4.993   1.329   2.831  0.3948 -0.6007 -0.0624
   56MOL   C23231142   5.036   1.181   2.816  0.2545  0.7414 -0.5065
   56MOL   O23331143   5.013   1.113   2.934  0.1749  0.1941 -0.6372
   56MOL   C23431144   5.182   1.174   2.781 -0.8118  0.3914  0.2200
   56MOL   C23531145   5.243   1.030   2.776  0.3235  0.4768 -0.3166
   56MOL   C23631146   5.210   1.251   2.643 -0.0062 -0.1240  0.0873
   56MOL   C23731147   5.164   1.396   2.662  0.6907  0.1864  0.0190
   56MOL   H23831148   5.070   1.651   2.554  0.3307 -0.9601 -0.4516
   56MOL   H23931149   4.909   1.592   2.518 -2.1072  3.9505 -0.2104
   56MOL   H24031150   5.046   1.601   2.799  0.0842 -1.3431  0.2998
   56MOL   H24131151   4.825   1.661   2.791  1.2836 -0.1830  0.5536
   56MOL   H24231152   4.952   1.369   2.621  2.3650  1.1190 -1.3604
   56MOL   H24331153   5.053   1.369   2.913 -1.8069  0.8738  0.8991
   56MOL   H24431154   4.888   1.330   2.860 -0.0628 -2.2244 -1.5953
   56MOL   H24531155   4.982   1.119   2.744  1.9921  0.4050 -1.5365
   56MOL   H24631156   4.954   1.040   2.925 -0.1450  0.2726  0.6603
   56MOL   H24731157   5.237   1.225   2.861 -0.4916 -0.5875  0.6384
   56MOL   H24831158   5.185   0.965   2.842  1.9841 -0.4269  0.2886
   56MOL   H24931159   5.240   0.990   2.674  1.2148  1.4625 -0.7377
   56MOL   H25031160   5.145   1.204   2.569  0.2490 -0.3891  0.0303
   56MOL   H25131161   5.316   1.242   2.620 -0.1007 -2.5317  0.4453
   56MOL   H25231162   5.198   1.462   2.582 -1.4557  0.9667 -0.2857
   56MOL   H25331163   5.228   1.424   2.746 -0.8785 -0.0113  1.3131
   56MOL   O25431164   5.376   1.032   2.825 -0.2119  0.1783 -0.8698
   56MOL   C25531165   5.384   1.038   2.962 -0.6749  0.3572 -0.8812
   56MOL   C25631166   5.526   1.098   3.005  0.1010  0.1502 -0.2767
   56MOL   O25731167   5.527   1.240   2.994 -0.4344 -0.2980 -0.3357
   56MOL   C25831168   5.577   1.044   3.142  0.0338 -0.0416  0.2644
   56MOL   C25931169   5.477   1.084   3.249 -0.3629 -0.8983  0.0128
   56MOL   C26031170   5.516   1.037   3.385 -0.0065 -0.5711 -0.5659
   56MOL   O26131171   5.424   1.082   3.487  0.1237 -0.0454  0.5566
   56MOL   C26231172   5.655   1.093   3.424  0.0289 -1.2375  0.2499
   56MOL   C26331173   5.696   1.035   3.557 -0.4073 -0.0760  0.2107
   56MOL   C26431174   5.757   1.050   3.320 -0.7188 -0.2857  0.5582
   56MOL   C26531175   5.722   1.089   3.177  0.1355  0.3212 -0.6220
   56MOL   H26631176   5.365   0.936   2.995  0.6730  1.0893  2.4195
   56MOL   H26731177   5.297   1.091   3.001 -1.4720 -0.0905 -2.0460
   56MOL   H26831178   5.600   1.067   2.931 -1.8230 -1.0521 -1.7608
   56MOL   H26931179   5.523   1.259   2.901 -2.4909 -0.3992 -0.2854
   56MOL   H27031180   5.563   0.936   3.136 -1.4777  0.1622 -0.2220
   56MOL   H27131181   5.468   1.193   3.248  2.5728 -0.5854 -3.1440
   56MOL   H27231182   5.376   1.053   3.222 -0.5439 -0.9708  0.7562
   56MOL   H27331183   5.505   0.929   3.387 -2.0812 -0.3918 -0.5491
   56MOL   H27431184   5.411   1.175   3.476 -0.8989 -0.3221 -0.7950
   56MOL   H27531185   5.651   1.202   3.426 -0.9465 -1.2683  0.4118
   56MOL   H27631186   5.632   1.068   3.639 -0.0004 -0.6066  0.7466
   56MOL   H27731187   5.680   0.927   3.559  1.6881 -0.3911  1.1337
   56MOL   H27831188   5.788   0.946   3.330 -0.9494 -0.4496 -0.3801
   56MOL   H27931189   5.849   1.105   3.337  0.4676 -2.3456  0.8848
   56MOL   H28031190   5.795   1.044   3.111  1.1730  0.6162  0.3199
   56MOL   H28131191   5.728   1.198   3.167 -0.1378  0.2323 -1.8822
   56MOL   O28231192   5.826   1.070   3.584 -0.1551 -0.2124  0.2909
   56MOL   C28331193   5.894   1.008   3.695  0.4601 -0.7156 -0.2035
   56MOL   C28431194   6.040   1.062   3.701 -0.3468  0.4941 -0.1256
   56MOL   O28531195   6.120   0.978   3.787 -0.0415 -0.4133  0.0604
   56MOL   C28631196   6.108   1.073   3.562 -0.2777 -0.1997 -0.2312
   56MOL   C28731197   6.136   0.943   3.481  0.4358  0.3682 -0.2049
   56MOL   C28831198   6.172   0.987   3.339  0.1708  0.1751 -0.0066
   56MOL   O28931199   6.167   0.870   3.264  0.2583 -0.1927  0.2455
   56MOL   C29031200   6.306   1.058   3.339 -0.0432 -0.4749 -0.3595
   56MOL   C29131201   6.349   1.093   3.192  0.4510  0.1147 -0.0371
   56MOL   C29231202   6.299   1.185   3.430  0.1935 -0.1137 -0.5017
   56MOL   C29331203   6.242   1.152   3.569  0.8808 -0.4373 -0.1606
   56MOL   H29431204   5.898   0.900   3.689 -2.6845 -0.9769  1.3104
   56MOL   H29531205   5.832   1.014   3.785  1.2280 -2.6917  0.4748
   56MOL   H29631206   6.037   1.162   3.743 -3.2126  0.3490  0.0812
   56MOL   H29731207   6.123   0.891   3.752 -0.6810  0.2809 -1.7461
   56MOL   H29831208   6.038   1.128   3.498  0.2430  1.0154  0.2353
   56MOL   H29931209   6.222   0.888   3.518 -1.3260 -1.1207  1.8217
   56MOL   H30031210   6.053   0.873   3.470  2.7076 -2.7227  1.5053
   56MOL   H30131211   6.094   1.049   3.293  0.0459  0.9310  1.1843
   56MOL   H30231212   6.087   0.823   3.280  1.1631 -1.7250  0.4095
   56MOL   H30331213   6.383   0.999   3.390  0.1764  1.6317  1.8255
   56MOL   H30431214   6.439   1.153   3.183  0.2775  0.3874  0.0362
   56MOL   H30531215   6.348   1.010   3.121  1.2933  2.5923 -3.0349
   56MOL   H30631216   6.243   1.266   3.383  0.9163 -0.3262 -1.7409
   56MOL   H30731217   6.398   1.230   3.437  0.2640 -0.6420  2.5330
   56MOL   H30831218   6.228   1.244   3.626 -1.7286 -0.3746 -0.8414
   56MOL   H30931219   6.320   1.096   3.621  1.1120  0.0383  0.0107
   56MOL   O31031220   6.249   1.187   3.145  0.0853  0.4930 -0.3601
   56MOL   C31131221   6.200   1.153   3.017  0.6313 -0.0423  0.4790
   56MOL   C31231222   6.084   1.253   2.990 -0.0685 -0.2339 -0.2395
   56MOL   O31331223   6.137   1.387   3.001 -0.5691  0.2846  0.1217
   56MOL   C31431224   6.019   1.232   2.844 -0.3040  0.3273 -0.2187
   56MOL   C31531225   5.898   1.322   2.829 -0.3144  0.2729 -0.1651
   56MOL   C31631226   5.807   1.303   2.702 -0.0251 -0.1208 -0.0443
   56MOL   O31731227   5.686   1.376   2.712  0.3251 -0.1168 -0.2418
   56MOL   C31831228   5.788   1.150   2.677 -0.5817  0.1962  0.4899
   56MOL   C31931229   5.719   1.124   2.538 -0.2343  0.3032  0.0210
   56MOL   C32031230   5.916   1.067   2.690  0.3867  0.2085  0.1920
   56MOL   C32131231   5.982   1.085   2.825 -0.1315 -0.3917 -0.1187
   56MOL   H32231232   6.156   1.053   3.020 -1.0323  0.6544 -0.2298
   56MOL   H32331233   6.272   1.154   2.935 -0.5144 -2.9500 -0.6186
   56MOL   H32431234   6.010   1.232   3.067  0.5581  0.1098  0.4684
   56MOL   H32531235   6.183   1.384   3.084  1.7377  0.4325 -1.0974
   56MOL   H32631236   6.092   1.264   2.769  0.1192 -0.4156 -0.1332
   56MOL   H32731237   5.828   1.308   2.912 -2.2046  0.1479 -1.7498
   56MOL   H32831238   5.935   1.424   2.823  0.5094 -0.0801 -1.3327
   56MOL   H32931239   5.862   1.347   2.618  2.5255 -3.8979 -0.4805
   56MOL   H33031240   5.707   1.465   2.736 -0.5393 -0.4577  1.8743
   56MOL   H33131241   5.721   1.113   2.755  0.3167  1.0516  1.6769
   56MOL   H33231242   5.629   1.184   2.526 -0.9399 -0.8809 -0.7208
   56MOL   H33331243   5.788   1.154   2.460 -0.2772 -1.5703 -0.7544
   56MOL   H33431244   5.997   1.078   2.618  0.6041 -1.1768  0.2140
   56MOL   H33531245   5.887   0.963   2.675 -0.6253  0.4420  0.5137
   56MOL   H33631246   6.072   1.023   2.837 -0.1761 -0.1223  1.6918
   56MOL   H33731247   5.921   1.058   2.912 -0.5850 -1.0356 -0.6301
   56MOL   O33831248   5.699   0.984   2.519 -0.2676 -0.1933 -0.3577
   56MOL   C33931249   5.571   0.935   2.567  0.1944 -0.4674  0.0906
   56MOL   C34031250   5.565   0.786   2.574 -0.8372 -0.1872  0.1760
   56MOL   O34131251   5.571   0.737   2.443 -0.2061 -0.3943 -0.6214
   56MOL   C34231252   5.682   0.717   2.658 -0.1782  0.3796  0.0518
   56MOL   C34331253   5.670   0.563   2.660 -0.0618 -0.2926 -0.4383
   56MOL   C34431254   5.778   0.487   2.738  0.4387 -0.6674  0.4575
   56MOL   O34531255   5.756   0.351   2.732 -0.6113 -0.0508  0.5477
   56MOL   C34631256   5.780   0.543   2.887  0.5462 -0.4277  0.5439
   56MOL   C34731257   5.870   0.463   2.982 -0.0241 -0.2854 -0.4238
   56MOL   C34831258   5.818   0.691   2.874 -0.1065  0.0352 -0.5218
   56MOL   C34931259   5.705   0.773   2.800  0.7765  0.4613 -0.1566
   56MOL   H35031260   5.486   0.974   2.512  0.2910 -0.1568  0.1565
   56MOL   H35131261   5.562   0.961   2.673 -1.4475  0.6905 -0.3178
   56MOL   H35231262   5.468   0.753   2.611 -0.4031  0.4533  1.9058
   56MOL   H35331263   5.652   0.766   2.404 -0.5733  0.3305 -0.8482
   56MOL   H35431264   5.777   0.733   2.607 -0.0838 -2.0261 -0.6160
   56MOL   H35531265   5.569   0.526   2.682 -0.2147  0.9913  1.0499
   56MOL   H35631266   5.683   0.528   2.558 -0.9912  1.0451 -1.0255
   56MOL   H35731267   5.872   0.511   2.687  0.9679 -1.7012  0.9278
   56MOL   H35831268   5.839   0.317   2.761 -0.4530  1.2218  1.6406
   56MOL   H35931269   5.678   0.538   2.925 -0.1903 -1.1804 -1.4601
   56MOL   H36031270   5.835   0.360   2.982  0.4625 -0.4670 -2.1418
   56MOL   H36131271   5.968   0.480   2.938 -0.2305 -1.6206 -1.4338
   56MOL   H36231272   5.916   0.686   2.827 -1.3318 -1.2876 -3.0564
   56MOL   H36331273   5.832   0.740   2.970  1.5739  1.1758 -1.3124
   56MOL   H36431274   5.726   0.880   2.794  0.5507  0.6431  1.8727
   56MOL   H36531275   5.610   0.770   2.854  0.0940 -0.2124 -1.3814
   56MOL   O36631276   5.859   0.533   3.106 -0.2348 -0.1438 -0.4328
   56MOL   C36731277   5.954   0.494   3.199 -0.1036 -0.1739  0.6348
   56MOL   C36831278   5.932   0.596   3.315 -0.4583  0.1805  0.6989
   56MOL   O36931279   5.944   0.722   3.258 -0.0196 -0.6249 -0.0516
   56MOL   C37031280   5.795   0.583   3.387  0.4061 -0.5699  0.0296
   56MOL   C37131281   5.670   0.616   3.306  0.2628 -0.2862 -0.3716
   56MOL   C37231282   5.544   0.600   3.391 -0.6036  0.6057 -0.3713
   56MOL   O37331283   5.437   0.665   3.327 -0.5653 -0.2571 -0.0361
   56MOL   C37431284   5.546   0.672   3.524  0.9626  0.2322 -0.4803
   56MOL   C37531285   5.437   0.626   3.620 -0.2076 -0.1934 -0.1375
   56MOL   C37631286   5.679   0.643   3.600 -0.9868 -0.0353  0.0208
   56MOL   C37731287   5.807   0.667   3.519 -0.8890 -0.6898  0.8039
   56MOL   H37831288   6.053   0.504   3.154 -0.5061  1.4299  0.0779
   56MOL   H37931289   5.944   0.389   3.228  0.0262 -0.7114 -1.1981
   56MOL   H38031290   6.017   0.570   3.378  1.6623 -1.8244 -2.8842
   56MOL   H38131291   5.927   0.701   3.168  2.2012  3.8108 -1.6697
   56MOL   H38231292   5.796   0.478   3.419  0.6642 -0.5509  0.0816
   56MOL   H38331293   5.680   0.713   3.257 -0.1774  0.0310  0.1674
   56MOL   H38431294   5.649   0.537   3.234 -0.4992  0.0775 -0.5460
   56MOL   H38531295   5.532   0.492   3.402 -1.0351  0.5928 -0.9093
   56MOL   H38631296   5.432   0.616   3.246  0.2198 -1.4228  0.6097
   56MOL   H38731297   5.539   0.780   3.522 -0.0074  0.2023  0.7081
   56MOL   H38831298   5.339   0.637   3.574 -0.0198  0.4088 -0.4082
   56MOL   H38931299   5.448   0.519   3.638  1.1908 -0.4210 -2.1514
   56MOL   H39031300   5.681   0.537   3.625 -0.6978 -0.1598 -0.5209
   56MOL   H39131301   5.683   0.695   3.695 -1.2775 -1.7286  0.9807
   56MOL   H39231302   5.882   0.614   3.578  0.5960 -1.9081 -2.1011
   56MOL   H39331303   5.836   0.771   3.503 -2.5431 -0.1463  1.2783
   56MOL   O39431304   5.430   0.708   3.734  0.2238  0.4829 -0.2751
   56MOL   C39531305   5.325   0.648   3.812  0.1238  0.5582  0.7423
   56MOL   C39631306   5.311   0.728   3.945 -0.7637 -0.6706 -0.1457
   56MOL   O39731307   5.425   0.700   4.019  0.3978  0.0861  0.5951
   56MOL   C39831308   5.275   0.882   3.942 -0.0615 -0.4333  0.3148
   56MOL   C39931309   5.392   0.977   3.907  0.0895  0.2133  0.4533
   56MOL   C40031310   5.342   1.124   3.886 -0.6840  0.4965 -0.5170
   56MOL   O40131311   5.457   1.194   3.872  0.3107 -0.0439  0.2593
   56MOL   C40231312   5.249   1.178   3.999 -0.0258  1.1790 -0.1603
   56MOL   C40331313   5.178   1.309   3.971  0.0858 -0.0272  0.4853
   56MOL   C40431314   5.139   1.072   4.035 -0.1510  0.2589 -0.0123
   56MOL   C40531315   5.198   0.927   4.067  0.4652 -0.4297  0.6248
   56MOL   H40631316   5.346   0.541   3.820  0.9406  0.6309 -0.2720
   56MOL   H40731317   5.244   0.663   3.741  0.8099 -3.9439 -1.2057
   56MOL   H40831318   5.232   0.672   3.995  0.3309 -1.5936  0.5859
   56MOL   H40931319   5.501   0.743   3.984  1.1968  0.5254  2.8204
   56MOL   H41031320   5.205   0.883   3.858  0.7057  0.7854 -0.3112
   56MOL   H41131321   5.463   0.985   3.990 -0.5763 -0.4350  1.0963
   56MOL   H41231322   5.453   0.948   3.822  0.5843 -1.7237  1.4468
   56MOL   H41331323   5.303   1.113   3.785  0.2963 -0.7866 -0.7766
   56MOL   H41431324   5.449   1.284   3.898 -1.4461  0.2033 -1.0141
   56MOL   H41531325   5.306   1.197   4.089 -1.0526 -0.5207  0.8748
   56MOL   H41631326   5.120   1.302   3.879 -2.1819 -0.4607  1.9090
   56MOL   H41731327   5.116   1.342   4.055  0.1742 -1.4368  1.1203
   56MOL   H41831328   5.067   1.066   3.953  2.6888 -1.1710 -2.4510
   56MOL   H41931329   5.091   1.110   4.126 -0.6727  1.0002 -0.5928
   56MOL   H42031330   5.120   0.853   4.087  0.9061 -0.8502  0.7759
   56MOL   H42131331   5.267   0.930   4.151  1.4611  2.1272 -0.2194
   56MOL   O42231332   5.272   1.416   3.946 -0.3138 -0.3850 -0.2696
   56MOL   C42331333   5.214   1.546   3.928 -1.1071 -0.0942 -0.7949
   56MOL   C42431334   5.287   1.627   3.816  0.0230  0.3855  0.3968
   56MOL   O42531335   5.431   1.609   3.831  0.2802  0.3700 -0.5361
   56MOL   C42631336   5.246   1.587   3.673 -0.3296  0.0989  0.8759
   56MOL   C42731337   5.332   1.467   3.622 -0.5699 -0.2230 -0.3463
   56MOL   C42831338   5.298   1.423   3.476  0.2397 -0.0526 -0.2748
   56MOL   O42931339   5.402   1.336   3.435 -0.3812  0.2367  0.1433
   56MOL   C43031340   5.311   1.549   3.386  0.2819  0.3649 -0.3920
   56MOL   C43131341   5.283   1.522   3.241 -0.2597  0.6454  0.3783
   56MOL   C43231342   5.230   1.668   3.438  0.5729 -0.3451 -0.0409
   56MOL   C43331343   5.269   1.702   3.586  0.1631  0.0261  0.3774
   56MOL   H43431344   5.223   1.606   4.019  0.4769  0.6003 -1.4021
   56MOL   H43531345   5.107   1.534   3.911 -1.2316  0.1743 -0.2273
   56MOL   H43631346   5.263   1.733   3.828  1.2836  0.8167 -0.6818
   56MOL   H43731347   5.435   1.526   3.876 -0.4767  0.0417 -1.0683
   56MOL   H43831348   5.139   1.568   3.674 -0.4442  0.4563 -1.6737
   56MOL   H43931349   5.440   1.482   3.616 -0.7978  1.3891 -0.4891
   56MOL   H44031350   5.325   1.380   3.688 -0.8443  0.3519  0.3934
   56MOL   H44131351   5.197   1.381   3.475  0.0986  0.2919 -1.2166
   56MOL   H44231352   5.471   1.388   3.396 -1.2162  1.6627  0.4966
   56MOL   H44331353   5.416   1.579   3.386 -0.2045  2.1684 -0.6753
   56MOL   H44431354   5.336   1.432   3.210 -1.4906 -0.1749  0.6572
   56MOL   H44531355   5.177   1.497   3.238 -0.2587  0.6548  0.2606
   56MOL   H44631356   5.126   1.645   3.414  0.0157 -0.8396  2.6329
   56MOL   H44731357   5.249   1.758   3.381  1.1605 -0.3790  0.1031
   56MOL   H44831358   5.207   1.789   3.607  2.1631  2.3217 -2.8329
   56MOL   H44931359   5.369   1.744   3.589  0.1179  0.2444 -0.7619
   56MOL   O45031360   5.321   1.636   3.157  0.0442 -0.0762 -0.1887
   56MOL   C45131361   5.304   1.613   3.019  0.5775  0.2508  0.3268
   56MOL   C45231362   5.313   1.753   2.956  0.4614 -0.5966  0.0071
   56MOL   O45331363   5.272   1.744   2.826 -0.6699  0.3838 -0.0158
   56MOL   C45431364   5.206   1.852   3.013  0.1690 -0.1607 -0.1435
   56MOL   C45531365   5.060   1.825   2.987  0.5587 -0.1760 -0.4332
   56MOL   C45631366   4.973   1.941   3.038  0.2986 -0.6089  0.0132
   56MOL   O45731367   4.839   1.906   3.003 -0.0237 -0.1318  0.1572
   56MOL   C45831368   5.008   2.083   2.975  0.0335  1.0787 -0.2052
   56MOL   C45931369   4.917   2.188   3.033  0.6602  0.3307  0.5404
   56MOL   C46031370   5.159   2.107   3.003 -0.1393 -0.3599 -0.0278
   56MOL   C46131371   5.242   1.994   2.946  0.6104 -0.2483 -0.6397
   56MOL   H46231372   5.206   1.577   2.987  0.3546 -0.1834  1.4715
   56MOL   H46331373   5.382   1.544   2.987  1.7858  1.4502  0.6396
   56MOL   H46431374   5.413   1.795   2.952  0.9388 -1.7680 -0.5975
   56MOL   H46531375   5.199   1.802   2.808 -0.9943  0.0384  0.1598
   56MOL   H46631376   5.230   1.875   3.116  1.0900 -0.3099 -0.3215
   56MOL   H46731377   5.036   1.841   2.882 -0.6103  1.0097 -0.0007
   56MOL   H46831378   5.027   1.731   3.030 -1.3206 -0.1182 -1.7130
   56MOL   H46931379   4.979   1.935   3.147  1.1109 -3.2266 -0.1403
   56MOL   H47031380   4.787   1.965   3.055 -0.5475 -0.7731  0.3562
   56MOL   H47131381   4.986   2.073   2.868  1.1058  0.1308 -0.3409
   56MOL   H47231382   4.816   2.152   3.051  1.1412 -1.9259 -1.0734
   56MOL   H47331383   4.957   2.221   3.128 -0.4804  1.2684  0.7033
   56MOL   H47431384   5.178   2.134   3.107 -0.8695  1.1379 -0.2698
   56MOL   H47531385   5.181   2.197   2.945  0.4844  0.3450  1.2698
   56MOL   H47631386   5.347   2.016   2.964  0.4513  0.0529 -0.0586
   56MOL   H47731387   5.218   1.998   2.839 -3.4417  0.1152  0.2072
   56MOL   O47831388   4.898   2.295   2.937 -0.3997  0.5782  0.3347
   56MOL   C47931389   4.831   2.404   2.996 -0.3573  0.6407  0.2761
   56MOL   C48031390   4.680   2.396   3.003  0.9852  0.3131  0.0584
   56MOL   O48131391   4.640   2.361   3.128  0.2408  0.6393  0.2229
   56MOL   C48231392   4.598   2.523   2.967 -0.4619 -0.8186 -0.4937
   56MOL   C48331393   4.632   2.651   3.060 -0.4887 -0.5382 -0.4739
   56MOL   C48431394   4.534   2.773   3.027 -0.4548 -0.2987  0.0667
   56MOL   O48531395   4.548   2.859   3.141  0.3577  0.6402 -0.0727
   56MOL   C48631396   4.386   2.734   3.012 -0.6892  0.4578 -0.7502
   56MOL   C48731397   4.302   2.860   2.978  0.2391  0.1944  0.2503
   56MOL   C48831398   4.370   2.626   2.907 -0.0040 -0.2420 -0.0803
   56MOL   C48931399   4.445   2.499   2.951  0.5989 -0.0106  0.7038
   56MOL   H49031400   4.857   2.490   2.934 -1.2396  0.9275  0.2928
   56MOL   H49131401   4.875   2.427   3.093  0.1931  0.6964  0.0126
   56MOL   H49231402   4.656   2.314   2.935  3.1204 -0.5471  0.2967
   56MOL   H49331403   4.605   2.274   3.123  0.0791  0.7619 -0.7639
   56MOL   H49431404   4.624   2.549   2.865  2.8618  0.0790  0.5426
   56MOL   H49531405   4.622   2.615   3.162  1.0364  0.7325  0.1366
   56MOL   H49631406   4.738   2.677   3.051 -1.1786  2.2273 -0.9574
   56MOL   H49731407   4.566   2.824   2.936 -1.9227 -2.5495 -1.7745
   56MOL   H49831408   4.517   2.836   3.227  2.0999  0.8502  0.6356
   56MOL   H49931409   4.341   2.690   3.101 -2.4184  0.3523 -1.6529
   56MOL   H50031410   4.297   2.926   3.065 -0.1980 -0.9466  1.0991
   56MOL   H50131411   4.353   2.913   2.898  1.2543 -0.7764  0.2318
   56MOL   H50231412   4.419   2.654   2.814  3.1814 -4.2970  0.2555
   56MOL   H50331413   4.267   2.597   2.886 -0.7216  1.9861  0.2380
   56MOL   H50431414   4.438   2.421   2.876 -0.7421  1.0259 -0.2784
   56MOL   H50531415   4.413   2.459   3.047  1.5845 -1.5292  0.4146
   56MOL   O50631416   4.172   2.823   2.948  0.0545  0.5458  0.5550
   56MOL   C50731417   4.095   2.923   2.877  0.5812  0.1147 -0.6204
   56MOL   C50831418   3.941   2.899   2.888  0.3808 -0.6776  0.3170
   56MOL   O50931419   3.920   2.770   2.833 -0.4849  0.0526 -0.1038
   56MOL   C51031420   3.883   2.902   3.037 -0.0126 -0.4062 -0.7643
   56MOL   C51131421   3.736   2.858   3.041 -0.2412  0.1731 -0.7289
   56MOL   C51231422   3.686   2.839   3.181  0.5960 -0.2401  1.1644
   56MOL   O51331423   3.549   2.803   3.170  0.4919  0.3406  0.1663
   56MOL   C51431424   3.703   2.958   3.267 -0.1742  0.3501 -0.1242
   56MOL   C51531425   3.678   2.916   3.414 -0.2898 -0.6200 -0.0331
   56MOL   C51631426   3.845   3.025   3.253  0.3872  0.2803  0.5157
   56MOL   C51731427   3.904   3.033   3.109  0.3054 -0.4730  0.2071
   56MOL   H51831428   4.136   2.926   2.776  2.4895  1.1348  0.1503
   56MOL   H51931429   4.112   3.020   2.924  0.4452 -0.8489  1.4778
   56MOL   H52031430   3.891   2.960   2.813  2.1173  1.9104  1.2004
   56MOL   H52131431   3.989   2.719   2.874  0.6714  2.2070  0.6863
   56MOL   H52231432   3.927   2.816   3.087 -0.6352 -0.9482 -1.1213
   56MOL   H52331433   3.668   2.919   2.981 -0.4646  0.0533 -0.5950
   56MOL   H52431434   3.737   2.757   3.001 -0.3196 -0.0240 -0.2238
   56MOL   H52531435   3.737   2.753   3.224  2.4028  0.2567  0.0468
   56MOL   H52631436   3.509   2.884   3.145  0.3245  0.3061  0.3207
   56MOL   H52731437   3.631   3.028   3.226  1.2948  0.4974 -2.5575
   56MOL   H52831438   3.574   2.885   3.416 -0.6022  0.2761 -1.3657
   56MOL   H52931439   3.746   2.839   3.449 -0.0839  0.0481  1.0604
   56MOL   H53031440   3.897   2.959   3.323 -0.1911  1.1371  1.7704
   56MOL   H53131441   3.848   3.122   3.301 -0.4511 -0.5591  2.3158
   56MOL   H53231442   4.013   3.031   3.120  0.1748 -0.4804  1.6024
   56MOL   H53331443   3.863   3.124   3.065  0.6630  0.4168  1.6768
   56MOL   O53431444   3.692   3.036   3.478  1.2247  0.5837  0.2241
   56MOL   C53531445   3.684   3.013   3.624  0.1884 -0.3260  0.1337
   56MOL   C53631446   3.660   3.149   3.685  0.1658  0.4426 -0.4774
   56MOL   O53731447   3.748   3.230   3.616  0.3822  0.0164  0.9237
   56MOL   C53831448   3.515   3.194   3.672  0.6862  0.1920 -0.1794
   56MOL   C53931449   3.468   3.207   3.525 -0.0324 -0.0375 -0.1349
   56MOL   C54031450   3.332   3.274   3.530 -0.1702  0.2219  0.4145
   56MOL   O54131451   3.278   3.309   3.404 -0.0751  0.9145  0.9591
   56MOL   C54231452   3.323   3.409   3.603  0.2151 -0.2485  0.8169
   56MOL   C54331453   3.186   3.492   3.607 -0.4435  0.7580  0.4564
   56MOL   C54431454   3.366   3.400   3.748 -0.3175 -0.1216 -0.2011
   56MOL   C54531455   3.496   3.324   3.759  0.3076 -0.1158 -0.7332
   56MOL   H54631456   3.781   2.974   3.658  1.3520  1.7601 -0.7191
   56MOL   H54731457   3.597   2.949   3.632  0.7510 -0.7764  3.4835
   56MOL   H54831458   3.683   3.146   3.792 -1.2173 -0.4020 -0.1810
   56MOL   H54931459   3.754   3.184   3.534  0.5324  0.8760  0.4369
   56MOL   H55031460   3.445   3.118   3.708  0.4382  0.3461 -0.3377
   56MOL   H55131461   3.538   3.277   3.478 -0.1507  2.0839  2.6929
   56MOL   H55231462   3.477   3.118   3.462 -0.5840 -0.2021  0.0149
   56MOL   H55331463   3.260   3.202   3.570 -0.5977  0.2796 -0.2282
   56MOL   H55431464   3.286   3.403   3.400  1.4756  0.7610  0.0046
   56MOL   H55531465   3.393   3.480   3.560 -0.5417 -0.2227 -0.4169
   56MOL   H55631466   3.128   3.510   3.516 -2.0722  2.0085  1.6997
   56MOL   H55731467   3.114   3.448   3.675 -0.0704  0.5080  0.6859
   56MOL   H55831468   3.291   3.359   3.816  0.6715  1.6581  2.0394
   56MOL   H55931469   3.378   3.502   3.784 -2.0770  0.2471 -0.6319
   56MOL   H56031470   3.521   3.293   3.860 -0.6670 -0.9081 -0.7203
   56MOL   H56131471   3.576   3.394   3.736  0.8756 -0.3555  0.4885
   56MOL   H56231472   3.206   3.593   3.643  0.1590  0.8595 -0.1562
   57MOL     O131473   2.688   5.978   0.632  0.1455  0.2309  0.6395
   57MOL     C231474   2.653   5.966   0.496  0.1369 -0.0812  0.0166
   57MOL     C331475   2.497   5.938   0.500  0.6352  1.0012 -0.0357
   57MOL     O431476   2.474   5.872   0.627 -0.1088 -0.1458  0.3461
   57MOL     C531477   2.408   6.058   0.488  0.5857 -0.3120  0.1511
   57MOL     C631478   2.263   6.013   0.491  0.1660 -0.6595 -0.7525
   57MOL     C731479   2.169   6.130   0.486  0.7893  0.3710 -0.6996
   57MOL     O831480   2.035   6.084   0.482 -0.1109 -0.1611 -0.2295
   57MOL     C931481   2.193   6.227   0.362 -0.9884 -0.1856 -0.8489
   57MOL    C1031482   2.108   6.362   0.379 -0.6592  1.2213 -0.3614
   57MOL    C1131483   2.348   6.265   0.349 -0.0147  0.2416  0.1702
   57MOL    C1231484   2.434   6.146   0.363  0.3556 -0.2250  0.7668
   57MOL    H1331485   2.710   5.884   0.453  0.6436  0.2087  0.1288
   57MOL    H1431486   2.682   6.049   0.432  2.2241 -2.1061 -1.7649
   57MOL    H1531487   2.467   5.875   0.416  0.5545  0.1866  0.6071
   57MOL    H1631488   2.382   5.858   0.645 -0.3355 -1.2778 -1.5215
   57MOL    H1731489   2.443   6.117   0.573  0.3622  1.4790 -0.9708
   57MOL    H1831490   2.245   5.946   0.407  0.4699  1.8031 -2.8342
   57MOL    H1931491   2.246   5.975   0.592  3.7664 -0.3772  0.0515
   57MOL    H2031492   2.182   6.186   0.579  0.4700 -0.3782 -0.2055
   57MOL    H2131493   1.994   6.143   0.421 -0.7214  0.0230  0.3485
   57MOL    H2231494   2.159   6.177   0.272  0.7888  1.4531 -2.4547
   57MOL    H2331495   2.112   6.402   0.480 -1.3301  0.4037  0.0005
   57MOL    H2431496   2.137   6.424   0.295  0.6502  0.1731 -0.7074
   57MOL    H2531497   2.371   6.336   0.430  1.1339  0.7565 -0.5918
   57MOL    H2631498   2.358   6.308   0.250 -0.1955 -2.4240 -1.0356
   57MOL    H2731499   2.537   6.172   0.341 -0.5044  2.2977 -0.4558
   57MOL    H2831500   2.408   6.088   0.274 -0.6093  0.8300  0.3463
   57MOL    H2931501   2.623   5.922   0.670  0.1028 -1.2334 -1.4901
   57MOL    O3031502   1.974   6.313   0.347  0.2400 -0.4136  0.2749
   57MOL    C3131503   1.871   6.394   0.388 -0.3978 -0.6632 -0.9471
   57MOL    C3231504   1.766   6.373   0.281 -0.3074 -0.0951 -0.2027
   57MOL    O3331505   1.807   6.451   0.165 -0.0895  0.3105 -0.1862
   57MOL    C3431506   1.742   6.227   0.234  0.1388  0.0665  0.3009
   57MOL    C3531507   1.657   6.211   0.102 -0.2484 -0.0922 -0.4337
   57MOL    C3631508   1.652   6.066   0.051  0.2158 -0.5342 -0.2715
   57MOL    O3731509   1.551   6.056   7.582  0.4385  0.2443  0.1076
   57MOL    C3831510   1.602   5.970   0.172 -0.4666 -0.1854  0.6722
   57MOL    C3931511   1.600   5.825   0.125  0.4979  0.4360 -0.2384
   57MOL    C4031512   1.678   5.985   0.301  0.3393  1.0574 -0.5991
   57MOL    C4131513   1.680   6.136   0.340  0.5155 -0.1215 -0.0642
   57MOL    H4231514   1.890   6.495   0.424 -0.6726 -0.3403 -1.6714
   57MOL    H4331515   1.840   6.345   0.480 -2.2206 -1.2974 -1.8587
   57MOL    H4431516   1.666   6.401   0.313 -0.1083 -0.2246  0.5271
   57MOL    H4531517   1.888   6.412   0.135 -0.0429  1.2041 -1.2448
   57MOL    H4631518   1.841   6.185   0.216 -0.2331 -0.4089 -0.6590
   57MOL    H4731519   1.566   6.262   0.134  0.0371  0.4456 -0.4820
   57MOL    H4831520   1.707   6.280   0.034 -2.9344  1.8006 -0.5516
   57MOL    H4931521   1.754   6.041   0.021  0.4522 -2.0796  1.6831
   57MOL    H5031522   1.576   6.105   7.505 -0.3400 -2.7505 -2.1709
   57MOL    H5131523   1.498   6.000   0.185 -0.7585 -0.4311 -1.0664
   57MOL    H5231524   1.530   5.817   0.042  0.4595 -1.0296 -0.0776
   57MOL    H5331525   1.702   5.825   0.086  0.1997  1.2301 -1.0533
   57MOL    H5431526   1.779   5.943   0.301  0.2316  0.7078  1.3377
   57MOL    H5531527   1.628   5.936   0.385 -0.1621  1.9956 -0.3515
   57MOL    H5631528   1.733   6.147   0.435 -0.9391  2.0934  0.5118
   57MOL    H5731529   1.577   6.166   0.355  0.2664 -0.2672 -1.4522
   57MOL    O5831530   1.584   5.730   0.224  0.0548  0.1918 -0.4594
   57MOL    C5931531   1.642   5.608   0.181  0.4918  0.2586  0.0164
   57MOL    C6031532   1.616   5.484   0.274 -0.1491  0.3303  0.2593
   57MOL    O6131533   1.665   5.513   0.401 -0.1407 -0.0921  0.2361
   57MOL    C6231534   1.461   5.466   0.292 -0.5774 -0.2925  0.2416
   57MOL    C6331535   1.414   5.388   0.420  0.2715  0.0254 -0.2205
   57MOL    C6431536   1.259   5.372   0.432  0.0752  0.1669  0.2656
   57MOL    O6531537   1.234   5.289   0.537  0.4927  0.0817 -0.5091
   57MOL    C6631538   1.190   5.327   0.300 -0.2152  0.1133  0.1051
   57MOL    C6731539   1.038   5.328   0.306 -0.9381 -0.5954  0.1761
   57MOL    C6831540   1.244   5.397   0.169 -0.0969 -0.6476  0.0297
   57MOL    C6931541   1.396   5.404   0.170  0.8816  0.5566 -0.1339
   57MOL    H7031542   1.748   5.620   0.156  0.6052 -0.9274 -0.1056
   57MOL    H7131543   1.607   5.581   0.081  0.3827 -0.2079  0.1803
   57MOL    H7231544   1.652   5.386   0.243 -0.7008  0.7126 -1.6371
   57MOL    H7331545   1.635   5.601   0.415  0.4422 -0.0914  1.6162
   57MOL    H7431546   1.414   5.564   0.297 -3.9075 -1.6545 -2.1984
   57MOL    H7531547   1.463   5.291   0.421  3.4181  1.5504 -0.6223
   57MOL    H7631548   1.452   5.436   0.509  1.8391  1.3330 -1.5566
   57MOL    H7731549   1.222   5.473   0.455  0.0692  0.1883  0.1623
   57MOL    H7831550   1.182   5.328   0.606 -0.2875 -0.8621 -0.5476
   57MOL    H7931551   1.207   5.221   0.277 -0.5857  0.0860 -0.0518
   57MOL    H8031552   0.994   5.288   0.215 -1.7090 -0.4948  0.5069
   57MOL    H8131553   0.999   5.257   0.378 -3.1599 -0.8750 -1.2644
   57MOL    H8231554   1.197   5.495   0.163  0.1004 -0.5779 -0.4102
   57MOL    H8331555   1.213   5.342   0.081  1.4496 -1.5363  0.0223
   57MOL    H8431556   1.427   5.447   0.075  0.6008  0.1838 -0.3925
   57MOL    H8531557   1.438   5.304   0.170  1.6000  0.8528 -0.1434
   57MOL    O8631558   0.985   5.457   0.325  0.6830  0.4513  0.7689
   57MOL    C8731559   0.848   5.456   0.345 -0.0328  0.2655 -0.0015
   57MOL    C8831560   0.793   5.599   0.355  0.3047  0.5351 -0.2640
   57MOL    O8931561   0.656   5.575   0.370  0.0848  0.0072 -0.0375
   57MOL    C9031562   0.856   5.687   0.469  0.1679 -0.1698  0.0323
   57MOL    C9131563   0.838   5.618   0.611 -0.8912 -0.2946 -0.0424
   57MOL    C9231564   0.881   5.702   0.732  0.0415  0.4974  0.1211
   57MOL    O9331565   0.862   5.614   0.838 -0.0703 -0.2309  0.6563
   57MOL    C9431566   0.784   5.818   0.729  0.3636  0.2696 -0.4402
   57MOL    C9531567   0.800   5.908   0.856 -0.1213  0.4051 -0.1954
   57MOL    C9631568   0.819   5.903   0.611  0.7611  0.0219  1.1517
   57MOL    C9731569   0.786   5.827   0.476  0.1075 -0.1397 -0.4682
   57MOL    H9831570   0.828   5.392   0.431 -0.6112  1.2841  0.6318
   57MOL    H9931571   0.797   5.403   0.265  0.5002 -0.7711  0.3267
   57MOL   H10031572   0.821   5.647   0.261 -0.3336 -3.3334 -2.5532
   57MOL   H10131573   0.647   5.531   0.453  2.2041 -1.2117 -0.4055
   57MOL   H10231574   0.960   5.702   0.440 -0.2864  2.1100 -0.5036
   57MOL   H10331575   0.735   5.586   0.623 -0.7622 -0.0220  2.0632
   57MOL   H10431576   0.909   5.536   0.624  1.5382  1.8130  0.4373
   57MOL   H10531577   0.982   5.742   0.738 -0.0199  0.4990  1.4654
   57MOL   H10631578   0.869   5.662   0.919  1.1500  1.2879 -0.3254
   57MOL   H10731579   0.682   5.778   0.726  1.1397 -1.8191 -0.2446
   57MOL   H10831580   0.794   5.844   0.944 -0.0263  1.4064  0.5404
   57MOL   H10931581   0.897   5.958   0.858  0.3519 -0.5051 -0.1526
   57MOL   H11031582   0.921   5.942   0.607  1.0759 -0.8346  0.6625
   57MOL   H11131583   0.756   5.992   0.619  1.7692  0.8773 -0.2152
   57MOL   H11231584   0.813   5.883   0.387  2.2536  1.9195  1.3887
   57MOL   H11331585   0.678   5.815   0.472  0.1057 -0.4638  0.4772
   57MOL   O11431586   0.692   6.002   0.863 -0.6081 -0.5858  0.4550
   57MOL   C11531587   0.690   6.086   0.978  0.0264 -0.0714  0.1484
   57MOL   C11631588   0.569   6.180   0.959  0.0016 -0.5440  0.1385
   57MOL   O11731589   0.472   6.079   0.974 -0.9136 -0.0199  0.5794
   57MOL   C11831590   0.557   6.288   1.065  0.6084  0.4788 -0.1051
   57MOL   C11931591   0.413   6.351   1.081 -0.2806  1.0612 -0.6061
   57MOL   C12031592   0.401   6.456   1.197  0.2692 -0.8089  0.7433
   57MOL   O12131593   0.275   6.503   1.201 -0.5580 -0.2934  0.5786
   57MOL   C12231594   0.501   6.573   1.170 -0.2199  0.0839  0.0922
   57MOL   C12331595   0.499   6.671   1.288  0.0592  0.3153 -0.3666
   57MOL   C12431596   0.645   6.516   1.145  0.0504  0.1862  0.2667
   57MOL   C12531597   0.653   6.403   1.039 -0.3981 -0.1114 -0.3852
   57MOL   H12631598   0.787   6.134   0.993  0.3952 -0.3262 -1.3498
   57MOL   H12731599   0.682   6.023   1.067 -1.0073 -2.6289 -1.6730
   57MOL   H12831600   0.582   6.216   0.857  1.0963  1.8228  1.0786
   57MOL   H12931601   0.520   6.013   0.927  0.5925  0.2162  1.7553
   57MOL   H13031602   0.585   6.242   1.160  1.6251 -1.3342 -1.2759
   57MOL   H13131603   0.382   6.389   0.984 -0.8702  2.4532  0.1071
   57MOL   H13231604   0.344   6.268   1.094 -1.1958  2.0904  1.3049
   57MOL   H13331605   0.425   6.403   1.290  2.2809  1.1393  1.3718
   57MOL   H13431606   0.213   6.435   1.221  0.7036 -1.4707  0.5944
   57MOL   H13531607   0.470   6.626   1.080 -0.5289  3.4939  2.1312
   57MOL   H13631608   0.404   6.725   1.286  0.4818  1.0495 -1.1736
   57MOL   H13731609   0.500   6.624   1.387  0.5880 -0.7775 -0.8874
   57MOL   H13831610   0.692   6.484   1.238 -0.6018 -0.8468  0.2502
   57MOL   H13931611   0.701   6.599   1.103 -0.1006 -0.5976 -1.5149
   57MOL   H14031612   0.758   6.371   1.042 -0.2859  0.2970 -0.0799
   57MOL   H14131613   0.642   6.424   0.932  2.9946  0.7848 -0.6064
   57MOL   O14231614   0.608   6.762   1.269  0.2232 -0.1313  0.0936
   57MOL   C14331615   0.571   6.876   1.192 -0.3197 -0.1774  0.0244
   57MOL   C14431616   0.695   6.954   1.145 -0.6915  0.4823  0.5775
   57MOL   O14531617   0.689   7.032   1.028  0.5878 -0.5788  0.0772
   57MOL   C14631618   0.758   7.063   1.246  0.7033 -0.0519  0.1331
   57MOL   C14731619   0.900   7.101   1.203 -0.0240  0.6580  0.4605
   57MOL   C14831620   0.960   7.214   1.295  0.9606  0.6161 -0.8737
   57MOL   O14931621   1.083   7.249   1.246  0.3386 -0.4310 -0.1631
   57MOL   C15031622   0.957   7.182   1.448  0.3732 -0.4951  0.2758
   57MOL   C15131623   0.991   7.307   1.527 -0.1172  0.3342 -0.4432
   57MOL   C15231624   0.817   7.138   1.484  0.7114  0.5098  0.1975
   57MOL   C15331625   0.764   7.022   1.400 -0.4699 -0.7766 -0.7360
   57MOL   H15431626   0.503   6.945   1.243  0.3791  1.3793 -1.0984
   57MOL   H15531627   0.530   6.844   1.096 -0.7033  1.3655 -0.3342
   57MOL   H15631628   0.770   6.878   1.121  0.7235  2.2057 -0.5892
   57MOL   H15731629   0.681   6.976   0.953  3.7517 -0.1572 -0.6202
   57MOL   H15831630   0.687   7.145   1.230 -0.3068 -0.5958  1.8126
   57MOL   H15931631   0.970   7.018   1.207  0.2779  0.9317  0.8931
   57MOL   H16031632   0.906   7.139   1.101  0.0564 -0.6645 -0.0398
   57MOL   H16131633   0.903   7.305   1.277 -1.2590 -0.6905 -0.4953
   57MOL   H16231634   1.136   7.286   1.315  1.0201  2.1842 -2.0311
   57MOL   H16331635   1.027   7.100   1.463  0.3358 -0.4135  0.8952
   57MOL   H16431636   1.082   7.363   1.503  1.6044 -0.4133  3.9136
   57MOL   H16531637   0.916   7.386   1.525  0.2593  0.7000 -0.2170
   57MOL   H16631638   0.760   7.229   1.462 -0.2509 -0.0047  0.4983
   57MOL   H16731639   0.803   7.116   1.590  0.6891 -1.2200 -0.1563
   57MOL   H16831640   0.668   6.993   1.443 -2.1541  0.2349 -3.6518
   57MOL   H16931641   0.834   6.939   1.401 -0.4675 -0.7672 -0.0627
   57MOL   O17031642   1.000   7.267   1.662 -0.1012 -0.2465 -0.0149
   57MOL   C17131643   1.115   7.191   1.709  0.1819 -0.1902  0.3122
   57MOL   C17231644   1.120   7.219   1.860  0.0593  0.1593  0.7545
   57MOL   O17331645   1.194   7.104   1.910 -0.1873  0.2838  0.0099
   57MOL   C17431646   1.204   7.344   1.886  1.0326 -0.7128 -0.2583
   57MOL   C17531647   1.215   7.359   2.039  0.2833 -0.2790  0.1589
   57MOL   C17631648   1.285   7.487   2.088  0.0372 -0.8570 -0.2846
   57MOL   O17731649   1.275   7.486   2.232  0.0528 -0.0138  0.6164
   57MOL   C17831650   1.219   7.617   2.033 -0.1273  0.3174  0.0343
   57MOL   C17931651   1.306   0.112   2.077 -0.2152  0.2111  0.1241
   57MOL   C18031652   1.203   7.605   1.884 -0.1639  0.4701 -0.0603
   57MOL   C18131653   1.138   7.475   1.828 -0.1322 -0.8925  0.8027
   57MOL   H18231654   1.207   7.221   1.659  0.4491  2.4052  2.2478
   57MOL   H18331655   1.099   7.083   1.702  2.4900 -0.7031  2.4315
   57MOL   H18431656   1.017   7.230   1.894 -0.9783  0.2871 -2.2671
   57MOL   H18531657   1.165   7.032   1.857  1.0173  0.8675 -1.4683
   57MOL   H18631658   1.307   7.334   1.850  0.9078  0.7108 -1.0550
   57MOL   H18731659   1.120   7.338   2.087  0.1422  0.0552  0.0231
   57MOL   H18831660   1.281   7.285   2.086  1.1449 -0.2627 -1.0276
   57MOL   H18931661   1.390   7.497   2.063 -0.2395  0.5055 -0.9607
   57MOL   H19031662   1.332   7.549   2.274  1.9644 -0.0523 -1.8363
   57MOL   H19131663   1.124   7.620   2.087  0.4087 -2.7952  1.2782
   57MOL   H19231664   1.337   0.114   2.181 -1.1431 -0.5483  0.4263
   57MOL   H19331665   1.405   0.102   2.033 -1.0240  1.3963 -2.0700
   57MOL   H19431666   1.302   7.617   1.840 -0.7421 -1.0687 -1.8612
   57MOL   H19531667   1.143   0.055   1.841 -0.2418  0.5309  0.1622
   57MOL   H19631668   1.133   7.482   1.720  0.8252 -0.7360  0.7709
   57MOL   H19731669   1.031   7.476   1.851 -0.8705  0.5271 -2.4385
   57MOL   O19831670   1.246   0.234   2.031  0.3494  0.4445  0.1145
   57MOL   C19931671   1.334   0.347   2.017 -0.4698  0.4637  0.7145
   57MOL   C20031672   1.251   0.462   1.954 -0.7613  0.0598  0.0324
   57MOL   O20131673   1.159   0.495   2.046 -0.5950  0.0568  0.1898
   57MOL   C20231674   1.320   0.592   1.898 -0.2489 -0.1016 -0.4510
   57MOL   C20331675   1.223   0.666   1.801 -0.0008 -0.1714 -0.3079
   57MOL   C20431676   1.289   0.799   1.752  0.4608 -0.7091  0.3407
   57MOL   O20531677   1.199   0.862   1.659 -0.3672 -0.1128 -0.1745
   57MOL   C20631678   1.430   0.776   1.678 -0.2512  0.6083  0.5901
   57MOL   C20731679   1.495   0.912   1.629 -0.5160 -0.1984  0.0118
   57MOL   C20831680   1.528   0.700   1.780  0.4937 -0.6536  0.3066
   57MOL   C20931681   1.459   0.574   1.824 -0.7310  0.2114 -0.0461
   57MOL   H21031682   1.409   0.321   1.942 -0.5684 -0.0587  0.7980
   57MOL   H21131683   1.394   0.380   2.102  2.5694  1.0051 -1.5288
   57MOL   H21231684   1.193   0.423   1.870 -3.8686  1.0287  1.6713
   57MOL   H21331685   1.138   0.410   2.082 -0.3892 -0.5117 -1.0393
   57MOL   H21431686   1.333   0.657   1.984 -0.1425 -1.7657  0.8195
   57MOL   H21531687   1.183   0.614   1.713 -1.9368 -1.3906  1.2417
   57MOL   H21631688   1.128   0.688   1.851  0.7471  1.9639  0.2119
   57MOL   H21731689   1.289   0.869   1.836 -0.5712  1.2048 -1.2026
   57MOL   H21831690   1.201   0.816   1.577  1.5501 -3.4924  1.6608
   57MOL   H21931691   1.406   0.724   1.585 -1.1536 -2.6010  2.5733
   57MOL   H22031692   1.430   0.981   1.576  1.1331 -0.6706 -2.7008
   57MOL   H22131693   1.543   0.973   1.706  0.5241 -1.8916  0.7304
   57MOL   H22231694   1.552   0.776   1.855  1.1168  0.0540 -0.5956
   57MOL   H22331695   1.624   0.683   1.731  0.6215  0.2619  0.2174
   57MOL   H22431696   1.526   0.534   1.901 -1.5767  0.1950  0.6880
   57MOL   H22531697   1.454   0.517   1.732 -2.2186  1.4721 -0.7713
   57MOL   O22631698   1.609   0.892   1.549 -0.1072 -0.2631  0.1063
   57MOL   C22731699   1.651   1.020   1.490 -0.3685 -0.2640  0.1129
   57MOL   C22831700   1.742   1.000   1.367 -0.3501  0.4416  0.8144
   57MOL   O22931701   1.870   0.955   1.401  0.1354  0.0550 -0.1678
   57MOL   C23031702   1.687   0.891   1.272 -0.7299 -0.1333 -0.5390
   57MOL   C23131703   1.766   0.892   1.138 -0.6359 -0.1484  0.0121
   57MOL   C23231704   1.714   0.791   1.025  0.2472 -0.0505 -0.1644
   57MOL   O23331705   1.783   0.814   0.899 -0.6280  0.1028 -0.0719
   57MOL   C23431706   1.570   0.820   1.003  0.5380  0.7716 -0.2392
   57MOL   C23531707   1.500   0.712   0.918 -0.3516  0.1687  0.2614
   57MOL   C23631708   1.493   0.815   1.139  0.5214 -0.6554  0.0648
   57MOL   C23731709   1.541   0.918   1.238  0.4267  0.0300  0.1038
   57MOL   H23831710   1.705   1.082   1.562  0.5831 -0.0776 -0.7428
   57MOL   H23931711   1.567   1.076   1.448 -0.7095 -1.6508 -1.1157
   57MOL   H24031712   1.757   1.101   1.328 -1.4798  0.2625 -0.1184
   57MOL   H24131713   1.864   0.867   1.437 -0.4889  0.2222  0.1523
   57MOL   H24231714   1.700   0.797   1.324  0.7565 -0.1960 -1.0111
   57MOL   H24331715   1.761   0.991   1.093 -0.6323  0.1927  0.7732
   57MOL   H24431716   1.869   0.860   1.156 -0.5832  0.7533  1.3123
   57MOL   H24531717   1.732   0.687   1.051 -0.9092 -0.5355 -1.2643
   57MOL   H24631718   1.762   0.902   0.871 -0.8174 -0.5088 -1.9215
   57MOL   H24731719   1.546   0.917   0.960 -0.5616  1.6584  2.3067
   57MOL   H24831720   1.543   0.716   0.818  1.0515  0.6229  0.8679
   57MOL   H24931721   1.512   0.612   0.960 -0.0679 -0.5193 -1.4306
   57MOL   H25031722   1.499   0.713   1.179 -0.8163 -0.9102 -0.3480
   57MOL   H25131723   1.386   0.833   1.129  0.9794  1.2820 -1.5537
   57MOL   H25231724   1.480   0.917   1.328 -0.0819  0.0314 -0.2364
   57MOL   H25331725   1.518   1.014   1.191  0.0565  0.5807  1.4053
   57MOL   O25431726   1.371   0.761   0.887 -0.2790 -0.1767 -0.4860
   57MOL   C25531727   1.287   0.652   0.844 -1.0735 -0.2456 -0.3383
   57MOL   C25631728   1.143   0.702   0.792 -0.7137 -0.3636  0.3148
   57MOL   O25731729   1.166   0.778   0.676  0.0641 -0.0089  0.6570
   57MOL   C25831730   1.041   0.600   0.767  0.2224  0.3755 -0.3976
   57MOL   C25931731   1.005   0.524   0.888  0.1554  0.2416 -0.3853
   57MOL   C26031732   0.898   0.415   0.872 -0.0423  0.2817  0.0173
   57MOL   O26131733   0.888   0.343   0.997  0.2922  0.3184 -0.5607
   57MOL   C26231734   0.944   0.320   0.762  0.4547  0.0242 -0.0992
   57MOL   C26331735   0.844   0.205   0.728  0.1734 -0.8006 -0.1945
   57MOL   C26431736   0.988   0.395   0.628  0.4522 -0.0627 -0.2736
   57MOL   C26531737   1.086   0.503   0.649  0.7179  0.2512 -0.2002
   57MOL   H26631738   1.270   0.583   0.926 -0.9580 -0.1113 -0.2022
   57MOL   H26731739   1.343   0.589   0.775  0.0423 -1.1899  1.3939
   57MOL   H26831740   1.104   0.779   0.859 -2.4723 -0.7693 -0.2183
   57MOL   H26931741   1.080   0.813   0.657  0.5644  0.4571 -0.7373
   57MOL   H27031742   0.952   0.658   0.745  0.2902  0.0093 -1.7108
   57MOL   H27131743   1.098   0.482   0.926  1.0383  0.5909 -2.0831
   57MOL   H27231744   0.969   0.594   0.964  0.2588 -2.4096  2.1962
   57MOL   H27331745   0.802   0.457   0.845 -0.3785  0.2592  1.1569
   57MOL   H27431746   0.824   0.275   0.981 -0.4871  0.3014  2.2972
   57MOL   H27531747   1.037   0.274   0.795  0.5959 -1.1094 -2.0568
   57MOL   H27631748   0.888   0.133   0.659  0.3737 -1.4028  0.5544
   57MOL   H27731749   0.825   0.150   0.820 -0.9760  0.2718  0.2116
   57MOL   H27831750   0.890   0.426   0.590  0.2687  0.9040  0.9522
   57MOL   H27931751   1.033   0.334   0.550  0.3997  0.8861 -1.0573
   57MOL   H28031752   1.086   0.556   0.554  0.9646  1.1388  0.2886
   57MOL   H28131753   1.186   0.466   0.670  0.9359  0.8233 -0.2209
   57MOL   O28231754   0.732   0.265   0.666 -0.0549 -0.3560 -0.6098
   57MOL   C28331755   0.605   0.206   0.706  0.2229  0.1612  0.2499
   57MOL   C28431756   0.489   0.268   0.618  0.2287 -0.5773  0.1021
   57MOL   O28531757   0.495   0.206   0.493 -0.3042 -0.4058 -0.1206
   57MOL   C28631758   0.344   0.243   0.665  0.0839 -0.1833 -0.6324
   57MOL   C28731759   0.243   0.280   0.560  0.4650  0.4310  0.0185
   57MOL   C28831760   0.105   0.260   0.607 -0.6326 -0.0958 -0.7650
   57MOL   O28931761   0.023   0.291   0.495 -0.4584 -0.1532  0.3707
   57MOL   C29031762   0.066   0.343   0.731 -0.4959 -0.0244 -0.3173
   57MOL   C29131763   7.549   0.307   0.787  0.2073 -0.0600 -0.4707
   57MOL   C29231764   0.171   0.306   0.845  0.3649  0.3446  0.5636
   57MOL   C29331765   0.314   0.323   0.794  0.0612 -0.1986 -0.1700
   57MOL   H29431766   0.587   0.233   0.810 -2.0181 -1.2256  0.2553
   57MOL   H29531767   0.604   0.099   0.683 -2.3415  0.2287 -0.1472
   57MOL   H29631768   0.515   0.373   0.613 -1.6335 -0.0391  1.0919
   57MOL   H29731769   0.579   0.217   0.451 -0.5138  1.8118 -0.0598
   57MOL   H29831770   0.321   0.137   0.675 -1.2252  0.0052 -1.4469
   57MOL   H29931771   0.254   0.383   0.527  0.6675  0.8533  1.3971
   57MOL   H30031772   0.255   0.212   0.475 -1.4231  2.3768 -1.8638
   57MOL   H30131773   0.082   0.155   0.623  0.8935 -0.8833 -3.3421
   57MOL   H30231774   7.628   0.208   0.456 -0.8479  1.0685 -2.1159
   57MOL   H30331775   0.058   0.450   0.716 -1.1555 -0.0464 -0.1441
   57MOL   H30431776   7.477   0.329   0.708  2.0984  0.5361 -2.0844
   57MOL   H30531777   7.542   0.202   0.814  0.2088 -0.0866 -0.5757
   57MOL   H30631778   0.157   0.202   0.875  0.5765  0.3289  0.6094
   57MOL   H30731779   0.151   0.364   0.935 -1.4657  0.7576 -0.0733
   57MOL   H30831780   0.376   0.275   0.869  1.8761  1.3478 -0.6293
   57MOL   H30931781   0.327   0.431   0.781 -0.3300 -0.6236 -5.0351
   57MOL   O31031782   7.506   0.399   0.891  0.3128  0.8572  0.4652
   57MOL   C31131783   7.460   0.354   1.023  0.2593  0.0154  0.2407
   57MOL   C31231784   7.411   0.481   1.095 -0.2546  0.2074  0.7325
   57MOL   O31331785   7.323   0.541   1.010  0.0531 -0.5152  0.0026
   57MOL   C31431786   7.332   0.454   1.229 -0.0475  0.1262  0.6473
   57MOL   C31531787   7.428   0.398   1.342  0.3369 -0.6090  0.0009
   57MOL   C31631788   7.358   0.383   1.481  0.5200 -0.2957  0.1322
   57MOL   O31731789   7.451   0.329   1.575 -0.2431  0.4244 -0.0353
   57MOL   C31831790   7.225   0.304   1.469  0.3958 -0.8324  0.0807
   57MOL   C31931791   7.151   0.300   1.614  0.1823  0.3822  0.5565
   57MOL   C32031792   7.140   0.355   1.357 -1.3079  0.2711 -0.3822
   57MOL   C32131793   7.207   0.365   1.218 -0.0652 -0.3071 -0.0196
   57MOL   H32231794   7.531   0.293   1.078  1.4687  0.1125 -1.1890
   57MOL   H32331795   7.379   0.281   1.020 -0.0580  0.3794 -0.3041
   57MOL   H32431796   7.499   0.543   1.112  1.2405 -1.4029 -0.9186
   57MOL   H32531797   7.371   0.548   0.929  0.3717 -1.0034  0.1506
   57MOL   H32631798   7.313   0.555   1.264  0.1861  0.1405  0.7341
   57MOL   H32731799   7.484   0.311   1.308  1.6251  0.2957 -0.2477
   57MOL   H32831800   7.507   0.468   1.366  0.5315 -1.1435  0.9455
   57MOL   H32931801   7.330   0.482   1.517 -1.9291 -1.1655  0.6644
   57MOL   H33031802   7.429   0.378   1.653  0.1829  0.3846  0.1105
   57MOL   H33131803   7.246   0.201   1.443 -0.4960 -1.1004  0.4083
   57MOL   H33231804   7.162   0.390   1.674 -0.0538 -2.2433  4.6772
   57MOL   H33331805   7.045   0.281   1.603  0.2633  1.0955 -1.8162
   57MOL   H33431806   7.102   0.453   1.385 -2.4623 -0.8750  2.2243
   57MOL   H33531807   7.048   0.297   1.350  0.9846 -3.6325  0.6263
   57MOL   H33631808   7.136   0.410   1.149 -0.1532 -1.4068 -0.6611
   57MOL   H33731809   7.238   0.268   1.179  0.1522 -0.2766  0.0777
   57MOL   O33831810   7.205   0.201   1.700  0.5407  0.1402  0.3621
   57MOL   C33931811   7.157   0.072   1.691 -0.2850  0.4060  0.0495
   57MOL   C34031812   7.273   7.604   1.721 -0.4105  0.4788 -0.8523
   57MOL   O34131813   7.363   0.000   1.619  0.1574 -0.3398 -0.1791
   57MOL   C34231814   7.344   7.600   1.861 -0.0026 -0.3775 -0.7268
   57MOL   C34331815   7.252   7.531   1.964  0.1282 -1.1684 -0.0312
   57MOL   C34431816   7.334   7.515   2.098  0.3101 -0.5805 -0.8936
   57MOL   O34531817   7.257   7.434   2.195 -0.0627 -0.4313 -0.9359
   57MOL   C34631818   7.371   0.019   2.154  0.0826 -0.7419 -0.0753
   57MOL   C34731819   7.437   0.006   2.291 -0.1184  0.0792  0.7261
   57MOL   C34831820   7.465   0.094   2.052 -0.1946 -0.6462 -0.4380
   57MOL   C34931821   7.400   0.110   1.913 -0.1055 -0.0665  0.5526
   57MOL   H35031822   7.116   0.053   1.592 -0.1630 -0.8394  0.2249
   57MOL   H35131823   7.077   0.052   1.762  1.4711 -1.9570  1.4071
   57MOL   H35231824   7.226   7.507   1.704  0.5004 -0.3812  1.3212
   57MOL   H35331825   7.385   0.092   1.623  0.1294 -0.3739  0.8691
   57MOL   H35431826   7.430   7.536   1.842  0.5041  0.1819 -0.3256
   57MOL   H35531827   7.165   7.593   1.987  1.2352  0.2914  0.3786
   57MOL   H35631828   7.221   7.434   1.928  1.1934 -0.8968 -1.7096
   57MOL   H35731829   7.424   7.457   2.077  0.1535 -0.4622 -1.9207
   57MOL   H35831830   7.313   7.391   2.257 -2.5628  0.0973  1.8400
   57MOL   H35931831   7.282   0.082   2.164  0.2196 -0.3224 -1.2933
   57MOL   H36031832   7.455   0.109   2.323  0.1215  0.6854 -1.2821
   57MOL   H36131833   7.372   7.587   2.364 -0.3133  0.8341  1.0604
   57MOL   H36231834   7.566   0.056   2.041  0.4703  0.3570  1.8262
   57MOL   H36331835   7.482   0.194   2.092  0.8744 -0.8300 -0.4035
   57MOL   H36431836   7.466   0.164   1.845 -1.7205 -0.4315 -1.3515
   57MOL   H36531837   7.320   0.184   1.922  1.0115  1.0152  1.6797
   57MOL   O36631838   7.566   7.569   2.285  0.4643  0.3624  0.3119
   57MOL   C36731839   7.616   7.517   2.403  0.2550  0.6121  0.0268
   57MOL   C36831840   7.593   7.355   2.396  0.3955  0.5673 -0.4161
   57MOL   O36931841   7.453   7.319   2.416  0.2296  0.1614 -0.1571
   57MOL   C37031842   0.027   7.293   2.263  0.8342  0.8727 -0.4293
   57MOL   C37131843   0.024   7.141   2.279 -0.2921 -0.4171 -0.1455
   57MOL   C37231844   0.086   7.058   2.166  0.1267 -0.5540  0.1210
   57MOL   O37331845   0.067   6.912   2.183  0.3336  0.0661 -0.1040
   57MOL   C37431846   0.232   7.100   2.134 -0.5246 -0.7646  0.7857
   57MOL   C37531847   0.289   7.027   2.017 -0.1527  0.3969  0.0678
   57MOL   C37631848   0.226   7.257   2.099  0.1412  0.3207 -0.3610
   57MOL   C37731849   0.177   7.331   2.226  0.0277 -0.8456  0.0380
   57MOL   H37831850   7.570   7.577   2.482 -1.4190 -1.5047  0.7076
   57MOL   H37931851   0.094   7.526   2.415  0.4116  0.3568 -1.1771
   57MOL   H38031852   0.023   7.307   2.474 -1.8665  1.0653  1.6577
   57MOL   H38131853   7.454   7.230   2.447  2.0907  0.2901  0.1769
   57MOL   H38231854   7.601   7.328   2.176 -0.4852 -0.4129 -0.1117
   57MOL   H38331855   0.068   7.115   2.376 -1.3660  0.8275  0.6907
   57MOL   H38431856   7.550   7.107   2.286 -0.8363  1.2756  0.2993
   57MOL   H38531857   0.025   7.085   2.080 -1.7885 -2.8211  0.7141
   57MOL   H38631858   0.146   6.880   2.223  0.5087 -0.6310 -1.0122
   57MOL   H38731859   0.293   7.080   2.222  0.4893  3.6846  1.2579
   57MOL   H38831860   0.299   6.919   2.031 -1.3015  0.2025 -0.5624
   57MOL   H38931861   0.212   7.029   1.940 -1.5481  1.6012  1.4668
   57MOL   H39031862   0.152   7.276   2.022 -0.5375 -0.4387  0.0964
   57MOL   H39131863   0.320   7.299   2.063  1.7975 -4.0624 -1.4700
   57MOL   H39231864   0.175   7.440   2.223 -2.1990 -0.9274 -1.9741
   57MOL   H39331865   0.244   7.308   2.309 -1.0749 -0.7162  0.9775
   57MOL   O39431866   0.415   7.074   1.972  0.0488  0.1591  0.6214
   57MOL   C39531867   0.485   6.985   1.888  0.4866  0.2227  0.3346
   57MOL   C39631868   0.617   7.048   1.846 -0.2255  0.1932  1.2923
   57MOL   O39731869   0.570   7.166   1.792 -0.3144 -0.0396 -0.0672
   57MOL   C39831870   0.728   7.072   1.952 -0.6786 -0.1679 -0.6982
   57MOL   C39931871   0.793   6.940   2.006  0.4868 -0.1112 -0.0787
   57MOL   C40031872   0.914   6.959   2.089 -0.4174  0.3144  0.6348
   57MOL   O40131873   0.951   6.824   2.131 -0.0661  0.6522  0.4335
   57MOL   C40231874   0.889   7.048   2.208 -0.0664  0.2426  0.4444
   57MOL   C40331875   1.026   7.077   2.273 -0.1385  0.4319 -0.4937
   57MOL   C40431876   0.818   7.175   2.166 -0.1630  0.4087  0.5630
   57MOL   C40531877   0.694   7.159   2.077  0.7565  0.6603 -0.3813
   57MOL   H40631878   0.422   6.962   1.802  1.1212 -3.5856  0.7966
   57MOL   H40731879   0.501   6.885   1.927  0.4016  0.6105  1.3695
   57MOL   H40831880   0.657   6.983   1.768 -3.0050 -0.1034  0.0181
   57MOL   H40931881   0.502   7.196   1.850 -0.8602 -1.7813  0.2531
   57MOL   H41031882   0.808   7.123   1.897 -1.4997  0.0283 -1.7436
   57MOL   H41131883   0.721   6.878   2.058  0.7057 -2.0850 -2.0577
   57MOL   H41231884   0.823   6.877   1.922 -0.0347 -2.7528  1.6596
   57MOL   H41331885   0.991   7.009   2.031 -0.1078 -0.7345  0.1412
   57MOL   H41431886   1.042   6.822   2.156  0.2744  2.5580 -0.5711
   57MOL   H41531887   0.830   6.988   2.278 -0.1477  0.1501  0.2959
   57MOL   H41631888   1.064   6.978   2.299 -0.1083  0.6483  0.3009
   57MOL   H41731889   1.091   7.127   2.201 -0.5923  1.8492  0.0483
   57MOL   H41831890   0.889   7.239   2.114 -1.7441  0.4336 -1.6531
   57MOL   H41931891   0.798   7.220   2.264  1.6354 -0.5981  1.4164
   57MOL   H42031892   0.666   7.260   2.050 -1.6094 -0.4267 -2.1898
   57MOL   H42131893   0.604   7.143   2.135  0.7024  2.3137 -0.0077
   57MOL   O42231894   1.021   7.146   2.399 -0.1382 -0.0945 -0.3735
   57MOL   C42331895   1.081   7.278   2.396  0.1262  0.2899 -0.3113
   57MOL   C42431896   1.045   7.330   2.534  0.2872 -0.1931 -0.3172
   57MOL   O42531897   0.909   7.320   2.541 -0.3712  1.2305 -0.0130
   57MOL   C42631898   1.111   7.266   2.661  0.6339 -0.2442  0.0830
   57MOL   C42731899   1.062   7.336   2.789 -0.7962 -0.1417  0.0198
   57MOL   C42831900   1.131   7.275   2.917 -0.4845  0.2813  0.1628
   57MOL   O42931901   1.088   7.361   3.017 -0.0976 -0.3517  0.7404
   57MOL   C43031902   1.287   7.282   2.901 -0.8631  0.1282  1.0302
   57MOL   C43131903   1.365   7.220   3.017  0.0722  0.3344 -0.5262
   57MOL   C43231904   1.332   7.220   2.773 -0.4296 -0.9096 -0.1490
   57MOL   C43331905   1.262   7.274   2.649 -0.5403  0.1394  0.0368
   57MOL   H43431906   1.022   7.335   2.324  2.2953  1.6322 -1.0520
   57MOL   H43531907   1.188   7.277   2.381 -0.1046  0.0881 -2.0198
   57MOL   H43631908   1.070   7.436   2.539 -1.3605  0.1488  1.2159
   57MOL   H43731909   0.894   7.234   2.506  1.3438  1.5048 -1.4598
   57MOL   H43831910   1.087   7.160   2.650  0.7666 -0.3004  0.3345
   57MOL   H43931911   1.076   7.443   2.776 -0.9345 -0.1772 -0.4079
   57MOL   H44031912   0.956   7.316   2.802 -0.6829 -0.0581  1.1420
   57MOL   H44131913   1.094   7.173   2.933 -0.6388  0.4062  0.6073
   57MOL   H44231914   0.994   7.365   3.016 -0.0360  1.1489 -0.9340
   57MOL   H44331915   1.327   7.382   2.886  0.9710 -0.3570  2.5343
   57MOL   H44431916   1.315   7.245   3.110  1.1834  2.1617 -0.3969
   57MOL   H44531917   1.370   7.111   3.012  1.4044  0.4104 -1.1852
   57MOL   H44631918   1.309   7.114   2.778  0.3965 -1.0954 -0.1874
   57MOL   H44731919   1.438   7.238   2.757 -0.7537  0.1464 -1.2191
   57MOL   H44831920   1.305   7.225   2.561  0.2321 -0.7212  0.8770
   57MOL   H44931921   1.289   7.379   2.655  1.4455 -0.2905 -0.7774
   57MOL   O45031922   1.498   7.268   2.993 -0.2978  0.9316 -0.3888
   57MOL   C45131923   1.575   7.219   3.100  0.4480 -0.3410 -0.9681
   57MOL   C45231924   1.707   7.293   3.094  0.3034 -0.5644  0.2068
   57MOL   O45331925   1.795   7.234   2.998  0.3831  0.2212  0.1100
   57MOL   C45431926   1.706   7.449   3.078  0.3413 -0.2576  0.3682
   57MOL   C45531927   1.833   7.500   3.132 -1.0512 -0.4740  0.3056
   57MOL   C45631928   1.838   0.025   3.125 -0.1571 -0.7696 -0.0180
   57MOL   O45731929   1.965   0.069   3.163 -0.0083 -0.0728 -0.2510
   57MOL   C45831930   1.729   0.089   3.214 -0.8870 -0.4601 -0.9716
   57MOL   C45931931   1.746   0.239   3.219 -0.0270 -0.1563  0.0458
   57MOL   C46031932   1.594   0.042   3.158  0.7999 -0.1250  0.1820
   57MOL   C46131933   1.587   7.515   3.145  0.1462  0.8947  0.4781
   57MOL   H46231934   1.590   7.111   3.089  1.3246 -0.2099 -1.0798
   57MOL   H46331935   1.528   7.244   3.196 -0.0256 -0.1253 -1.2530
   57MOL   H46431936   1.749   7.278   3.193 -2.1069 -0.5081  1.2847
   57MOL   H46531937   1.769   7.253   2.909  0.3508  0.9376  0.2702
   57MOL   H46631938   1.682   7.486   2.979  1.8311 -1.3190 -0.3990
   57MOL   H46731939   1.852   7.456   3.229 -1.8381  0.0485  0.6988
   57MOL   H46831940   1.917   7.462   3.073  0.1442  0.7501  1.1816
   57MOL   H46931941   1.827   0.049   3.020  1.0557  1.2207  0.2851
   57MOL   H47031942   2.027   7.627   3.160  0.7924  0.6247 -0.8070
   57MOL   H47131943   1.737   0.047   3.314 -0.4565  0.9846 -0.4071
   57MOL   H47231944   1.838   0.266   3.270 -0.8432  0.6150  1.1371
   57MOL   H47331945   1.729   0.290   3.124 -1.7144 -1.1085 -0.1939
   57MOL   H47431946   1.585   0.088   3.059 -0.2939  1.6559  1.0696
   57MOL   H47531947   1.501   0.072   3.207  0.2398 -2.2392  0.4538
   57MOL   H47631948   1.492   7.491   3.097  1.0076  0.8490 -1.2250
   57MOL   H47731949   1.586   7.477   3.247 -0.1171  0.4973  0.3267
   57MOL   O47831950   1.653   0.299   3.300  0.2533 -0.6477 -0.6827
   57MOL   C47931951   1.689   0.309   3.439  0.2151  0.1534 -0.5834
   57MOL   C48031952   1.574   0.393   3.491  0.2234 -0.1342  0.1130
   57MOL   O48131953   1.479   0.308   3.543 -0.4395 -0.1948 -0.7161
   57MOL   C48231954   1.614   0.489   3.598 -0.9440  0.1089  0.3802
   57MOL   C48331955   1.639   0.439   3.735 -0.0222  0.9766  0.4028
   57MOL   C48431956   1.719   0.544   3.811 -0.3398  0.5308 -0.2559
   57MOL   O48531957   1.748   0.492   3.934 -0.4162  0.0396  0.4940
   57MOL   C48631958   1.635   0.673   3.830 -0.4595  1.0084 -0.1572
   57MOL   C48731959   1.727   0.789   3.895 -0.6515  0.7188  0.2131
   57MOL   C48831960   1.580   0.714   3.695  0.2143 -0.3840 -0.7107
   57MOL   C48931961   1.518   0.603   3.603 -0.2346 -0.0251 -0.1324
   57MOL   H49031962   1.785   0.354   3.462  0.0737 -0.0881  0.5101
   57MOL   H49131963   1.697   0.208   3.479  0.1896  0.7701  1.0085
   57MOL   H49231964   1.527   0.450   3.411  1.2994  1.5882  0.6761
   57MOL   H49331965   1.448   0.256   3.471 -0.1362 -0.7700 -0.4383
   57MOL   H49431966   1.701   0.541   3.559 -0.2129 -1.1486  0.3442
   57MOL   H49531967   1.546   0.415   3.787 -1.6839 -0.2159 -2.9723
   57MOL   H49631968   1.700   0.348   3.732 -2.5523 -0.7078 -2.0928
   57MOL   H49731969   1.813   0.553   3.756  0.1233 -0.1195  0.4226
   57MOL   H49831970   1.787   0.561   3.984  2.0815  0.2023 -1.5888
   57MOL   H49931971   1.553   0.650   3.897  1.2407 -1.7021  1.0940
   57MOL   H50031972   1.809   0.808   3.825  0.6696 -2.0410  0.9406
   57MOL   H50131973   1.663   0.876   3.906 -0.5683  0.7339  0.5740
   57MOL   H50231974   1.668   0.743   3.637 -0.4964  0.1839 -1.5184
   57MOL   H50331975   1.503   0.791   3.692 -3.1959 -3.4683  2.0302
   57MOL   H50431976   1.514   0.661   3.511 -0.3655 -0.0277 -0.1287
   57MOL   H50531977   1.416   0.581   3.635  0.3723 -0.1568  1.7768
   57MOL   O50631978   1.781   0.740   4.017 -0.2655 -0.6326 -0.4206
   57MOL   C50731979   1.891   0.812   4.065 -0.1109 -0.7031 -0.8461
   57MOL   C50831980   1.942   0.751   4.191  0.8738  0.5470 -0.0364
   57MOL   O50931981   1.989   0.622   4.152  0.1133  0.0863 -0.4378
   57MOL   C51031982   2.044   0.828   4.271  0.6697 -0.0874  0.1357
   57MOL   C51131983   1.989   0.958   4.334 -0.0147  0.4538  0.4519
   57MOL   C51231984   2.085   1.036   4.429  0.2810  0.1864 -0.0509
   57MOL   O51331985   2.024   1.165   4.454  0.7520  0.6766  0.3377
   57MOL   C51431986   2.224   1.061   4.354 -0.2196 -0.2572 -0.4250
   57MOL   C51531987   2.337   1.113   4.440 -0.0027  0.4586 -0.3066
   57MOL   C51631988   2.275   0.942   4.264  0.7939  0.6395 -0.1277
   57MOL   C51731989   2.167   0.864   4.185  0.4569  0.6921  0.6432
   57MOL   H51831990   1.874   0.919   4.083  0.2980 -0.6721 -0.6268
   57MOL   H51931991   1.971   0.801   3.992 -1.0656 -1.6950 -1.7482
   57MOL   H52031992   1.865   0.733   4.267  2.0786 -2.5636  0.5272
   57MOL   H52131993   1.961   0.574   4.229 -1.0700  2.7944  0.8894
   57MOL   H52231994   2.076   0.761   4.351  2.9315 -0.6258 -1.1687
   57MOL   H52331995   1.963   1.029   4.255  2.2312  1.5121  0.6329
   57MOL   H52431996   1.906   0.931   4.399 -0.9850  0.4020 -0.7895
   57MOL   H52531997   2.101   0.979   4.520 -3.7042 -1.9460 -0.6103
   57MOL   H52631998   2.043   1.234   4.393 -2.8218  0.8760 -0.6391
   57MOL   H52731999   2.205   1.135   4.276  0.9886  0.3233 -0.1860
   57MOL   H52832000   2.317   1.214   4.474  0.7803  0.0930  1.3125
   57MOL   H52932001   2.344   1.059   4.535  1.8972  0.9850 -0.1298
   57MOL   H53032002   2.320   0.871   4.333  2.4429  0.7003 -1.1091
   57MOL   H53132003   2.359   0.974   4.202 -0.0468  2.5563 -0.2949
   57MOL   H53232004   2.218   0.784   4.130  0.8215  1.0731  0.4235
   57MOL   H53332005   2.126   0.933   4.111 -0.6174 -0.6751 -0.0484
   57MOL   O53432006   2.465   1.115   4.376  0.0769  0.3436 -0.0967
   57MOL   C53532007   2.570   1.057   4.452 -0.3080 -0.3660  0.2518
   57MOL   C53632008   2.700   1.084   4.362 -0.1418  0.1829 -0.1616
   57MOL   O53732009   2.715   1.223   4.341 -0.5148  0.3331 -0.0523
   57MOL   C53832010   2.830   1.023   4.413  0.0366 -0.7005 -0.0974
   57MOL   C53932011   2.888   1.077   4.546  0.0197  0.4946  0.4170
   57MOL   C54032012   3.012   0.998   4.595  0.1483  0.4922 -1.2011
   57MOL   O54132013   3.055   1.077   4.707  0.1383  0.1070 -0.1490
   57MOL   C54232014   3.128   0.995   4.497 -0.3728  1.0275 -0.5310
   57MOL   C54332015   3.234   0.907   4.558  0.8898 -0.6107  0.0990
   57MOL   C54432016   3.065   0.934   4.369  0.2725 -0.1618 -0.0981
   57MOL   C54532017   2.950   1.017   4.311 -0.0856  0.4338 -0.1152
   57MOL   H54632018   2.553   0.950   4.463 -0.1415 -0.4378 -0.1685
   57MOL   H54732019   2.581   1.109   4.547 -2.4214  1.0993 -0.2689
   57MOL   H54832020   2.673   1.037   4.267 -1.0226  1.7970 -0.7311
   57MOL   H54932021   2.640   1.267   4.377 -0.1671 -0.1679  1.3576
   57MOL   H55032022   2.794   0.921   4.428  1.8213 -1.0933  1.6459
   57MOL   H55132023   2.902   1.185   4.541 -1.5135  0.7536  1.2668
   57MOL   H55232024   2.812   1.070   4.624  1.3572 -0.0753  1.6919
   57MOL   H55332025   2.980   0.902   4.636  0.2220  0.5733 -0.9574
   57MOL   H55432026   3.001   1.062   4.783 -0.7666  1.7020 -0.4457
   57MOL   H55532027   3.169   1.094   4.477  0.3192  0.9423  0.3903
   57MOL   H55632028   3.276   0.953   4.647  0.2064  0.1071  0.0523
   57MOL   H55732029   3.193   0.809   4.583 -1.4950  0.0964 -0.9278
   57MOL   H55832030   3.029   0.835   4.396  2.9285 -0.8494  1.1639
   57MOL   H55932031   3.138   0.911   4.291  0.7113  1.4918 -0.1999
   57MOL   H56032032   2.903   0.974   4.223 -0.5603  0.1895  0.2579
   57MOL   H56132033   2.980   1.120   4.287 -2.5006  1.3498  0.6619
   57MOL   H56232034   3.314   0.898   4.485  1.5684 -1.8437  0.9668
   58MOL     O132035   4.748   5.926   0.315  0.0890  0.5494  0.1835
   58MOL     C232036   4.787   5.791   0.305  0.0390  0.6726 -0.3994
   58MOL     C332037   4.738   5.730   0.438  0.8879 -0.8122 -0.1077
   58MOL     O432038   4.608   5.764   0.452  0.5988  0.0764 -0.4306
   58MOL     C532039   4.761   5.577   0.453 -0.5118 -0.2507 -0.2183
   58MOL     C632040   4.646   5.494   0.386  0.4389  0.1192 -0.0350
   58MOL     C732041   4.664   5.345   0.416  0.5891  0.4051  0.5331
   58MOL     O832042   4.557   5.284   0.350  0.2812  0.2618 -0.1543
   58MOL     C932043   4.665   5.315   0.570  0.8782 -0.5053 -0.0661
   58MOL    C1032044   4.680   5.158   0.608  0.0570 -0.3143  0.3088
   58MOL    C1132045   4.777   5.388   0.630 -0.4953 -0.6557  0.2241
   58MOL    C1232046   4.766   5.539   0.609  0.4412  0.2174  0.3960
   58MOL    H1332047   4.894   5.806   0.292  0.0130  0.6615 -0.6395
   58MOL    H1432048   4.744   5.731   0.225 -2.1041  1.4406  0.1468
   58MOL    H1532049   4.797   5.784   0.512  0.3138 -0.0072 -0.2230
   58MOL    H1632050   4.563   5.724   0.524 -0.5054 -0.2963 -1.3091
   58MOL    H1732051   4.859   5.551   0.413 -0.9626 -1.4830 -0.5259
   58MOL    H1832052   4.550   5.532   0.420  0.6802  1.2159 -0.5644
   58MOL    H1932053   4.660   5.521   0.281  1.1007  1.0763  0.2943
   58MOL    H2032054   4.758   5.320   0.366 -0.0058  0.7377 -0.7803
   58MOL    H2132055   4.588   5.205   0.307 -0.9077 -0.5687  0.5077
   58MOL    H2232056   4.569   5.351   0.606 -0.0045  0.7243 -3.4516
   58MOL    H2332057   4.663   5.141   0.714  0.4211 -2.5966  0.0097
   58MOL    H2432058   4.592   5.109   0.565 -0.1132 -0.7170  1.1244
   58MOL    H2532059   4.871   5.351   0.591  0.3221  0.0351  1.4888
   58MOL    H2632060   4.785   5.365   0.736 -1.8669 -0.3880  0.4009
   58MOL    H2732061   4.850   5.597   0.647  2.9757 -3.5277  0.7958
   58MOL    H2832062   4.674   5.573   0.656 -0.3382 -1.5686  0.2459
   58MOL    H2932063   4.664   5.932   0.357  0.0139 -2.7408  0.5999
   58MOL    O3032064   4.802   5.103   0.563  0.0616  0.0416  0.4222
   58MOL    C3132065   4.836   4.981   0.633  0.4813  0.8565  0.4389
   58MOL    C3232066   4.973   4.920   0.581  1.0516 -0.1083 -0.5486
   58MOL    O3332067   5.081   4.982   0.651  0.2187 -0.7353 -0.5529
   58MOL    C3432068   4.991   4.769   0.595  0.3773  0.2239  0.1214
   58MOL    C3532069   4.929   4.685   0.487 -0.0747  0.5655 -0.0039
   58MOL    C3632070   4.952   4.534   0.510 -0.5292 -0.3726 -0.1842
   58MOL    O3732071   4.885   4.472   0.401  0.0209  0.6379  0.1033
   58MOL    C3832072   4.902   4.490   0.646 -0.8829 -0.3485  0.2670
   58MOL    C3932073   4.918   4.337   0.664  0.7277  0.3297  0.4272
   58MOL    C4032074   4.988   4.573   0.749  0.0208 -0.5094  0.2100
   58MOL    C4132075   4.954   4.723   0.740  0.0288 -0.1536 -0.0385
   58MOL    H4232076   4.762   4.902   0.619 -1.2446  2.6412 -0.7330
   58MOL    H4332077   4.826   4.996   0.741  1.6832 -1.1608  0.8567
   58MOL    H4432078   4.981   4.942   0.474  1.1981  0.2108 -0.4715
   58MOL    H4532079   5.065   5.075   0.658 -0.6371 -0.9892  1.2081
   58MOL    H4632080   5.098   4.764   0.574  0.4853  2.7294 -0.0519
   58MOL    H4732081   4.822   4.700   0.495 -0.1892 -1.6998  4.1584
   58MOL    H4832082   4.965   4.714   0.388  1.1842  1.8289  0.8096
   58MOL    H4932083   5.057   4.510   0.494  0.1301  1.9856  0.4175
   58MOL    H5032084   4.956   4.457   0.340  0.7222 -1.1813  1.3223
   58MOL    H5132085   4.793   4.503   0.646 -0.7373  0.9885 -0.9420
   58MOL    H5232086   4.867   4.309   0.756  0.3628 -0.7172 -0.0869
   58MOL    H5332087   4.863   4.293   0.581  1.5371 -1.9432  1.0423
   58MOL    H5432088   5.092   4.553   0.723 -0.9043 -2.9971 -1.7752
   58MOL    H5532089   4.971   4.535   0.850  2.1351 -0.8523  0.4480
   58MOL    H5632090   5.006   4.794   0.805 -1.9333 -0.4925  1.9491
   58MOL    H5732091   4.853   4.755   0.765 -0.1469  0.7072 -1.7780
   58MOL    O5832092   5.054   4.307   0.661 -0.3343  0.3479  0.0364
   58MOL    C5932093   5.103   4.213   0.564 -0.3349  0.1241  0.0576
   58MOL    C6032094   5.036   4.071   0.566  0.4742 -0.1761  0.0737
   58MOL    O6132095   5.061   4.015   0.436  0.1347  0.5732  0.8734
   58MOL    C6232096   5.085   3.976   0.682  0.4053 -0.2255  0.1454
   58MOL    C6332097   5.008   3.849   0.671  0.4248 -0.1031 -0.0999
   58MOL    C6432098   5.059   3.738   0.758  0.2388 -1.1215 -0.6774
   58MOL    O6532099   4.987   3.617   0.747 -0.5893  0.0817 -0.0117
   58MOL    C6632100   5.068   3.779   0.909 -0.1406  0.3790  0.4689
   58MOL    C6732101   5.141   3.681   1.004  0.0267  0.5280  0.2233
   58MOL    C6832102   5.122   3.928   0.919 -0.7123  0.3558 -0.2853
   58MOL    C6932103   5.064   4.029   0.827  0.1490 -0.0220  0.1623
   58MOL    H7032104   5.209   4.190   0.576 -0.8384 -1.2684  2.2253
   58MOL    H7132105   5.105   4.264   0.468  0.4534 -0.4176 -0.2201
   58MOL    H7232106   4.930   4.093   0.579  0.8253  1.5898  0.0534
   58MOL    H7332107   4.976   4.005   0.396  1.4702 -1.0078 -1.7593
   58MOL    H7432108   5.188   3.949   0.657  0.7094  0.7672  0.3281
   58MOL    H7532109   4.902   3.860   0.692  0.2910  0.1332 -0.8862
   58MOL    H7632110   5.014   3.813   0.568  0.9862 -0.7586  0.1582
   58MOL    H7732111   5.161   3.724   0.721  0.6604 -1.2694  0.4889
   58MOL    H7832112   5.005   3.570   0.667  0.9399  0.2241  0.2399
   58MOL    H7932113   4.963   3.786   0.939  0.3134  1.6902  1.8279
   58MOL    H8032114   5.067   3.603   1.023 -0.6649  0.8605 -1.0502
   58MOL    H8132115   5.219   3.631   0.946  0.5453 -0.2746  1.5914
   58MOL    H8232116   5.231   3.924   0.909 -0.7160  2.2269 -1.3638
   58MOL    H8332117   5.119   3.969   1.020  2.0089 -0.9359  0.3718
   58MOL    H8432118   5.131   4.114   0.841 -1.6844  1.2921  1.0293
   58MOL    H8532119   4.960   4.057   0.843 -0.9264 -2.8471 -1.4560
   58MOL    O8632120   5.202   3.729   1.122 -0.4031 -0.5545 -0.3559
   58MOL    C8732121   5.207   3.627   1.224  0.5220 -0.0249 -0.0526
   58MOL    C8832122   5.247   3.687   1.355  0.5238  0.0805 -0.0260
   58MOL    O8932123   5.383   3.727   1.332 -0.1760  0.2002 -0.3170
   58MOL    C9032124   5.164   3.806   1.409 -0.2431 -0.7857 -0.6064
   58MOL    C9132125   5.217   3.866   1.542 -0.5688 -0.3636 -0.0829
   58MOL    C9232126   5.133   3.982   1.598  0.3798 -0.1696  0.2697
   58MOL    O9332127   5.204   4.021   1.709 -0.2369  0.3770  0.3723
   58MOL    C9432128   4.986   3.943   1.624  0.0003 -0.2330 -0.4181
   58MOL    C9532129   4.894   4.050   1.676  0.1035 -0.0612  0.0314
   58MOL    C9632130   4.931   3.879   1.499 -0.3370  0.4496  0.0960
   58MOL    C9732131   5.018   3.761   1.441  0.1733 -0.3430 -0.1411
   58MOL    H9832132   5.270   3.541   1.201  1.0172  0.0624  0.9585
   58MOL    H9932133   5.103   3.593   1.233 -0.0338  2.1016  1.8808
   58MOL   H10032134   5.243   3.605   1.427  0.3017 -0.7784 -1.0003
   58MOL   H10132135   5.379   3.769   1.248 -2.1186  0.6069 -0.0527
   58MOL   H10232136   5.157   3.894   1.346  0.1068 -0.1443  0.2561
   58MOL   H10332137   5.217   3.785   1.615 -1.8780 -0.4779 -0.1883
   58MOL   H10432138   5.320   3.898   1.535 -0.3954 -1.0139 -0.5010
   58MOL   H10532139   5.135   4.070   1.534  3.0192 -0.1514  0.3125
   58MOL   H10632140   5.242   3.946   1.753  0.1536  0.8662  0.8784
   58MOL   H10732141   4.997   3.856   1.689 -2.2305  0.4874  0.9576
   58MOL   H10832142   4.945   4.113   1.750 -1.2835 -0.5698  1.4492
   58MOL   H10932143   4.858   4.109   1.592  0.8577 -1.3250 -1.1835
   58MOL   H11032144   4.914   3.956   1.424  0.0355 -0.6642 -1.1614
   58MOL   H11132145   4.828   3.848   1.517  0.2792 -1.3651  0.6032
   58MOL   H11232146   4.969   3.713   1.357 -0.1939  0.2296 -0.2534
   58MOL   H11332147   5.024   3.673   1.506 -0.5689 -0.9593 -0.9059
   58MOL   O11432148   4.796   3.969   1.740  0.3612 -0.0905 -0.4964
   58MOL   C11532149   4.743   4.039   1.853 -0.0693  0.1732 -0.3011
   58MOL   C11632150   4.740   3.943   1.973 -0.5508  0.4655 -0.3590
   58MOL   O11732151   4.651   3.837   1.931 -0.2301 -0.1741 -0.0795
   58MOL   C11832152   4.879   3.875   2.009 -0.2507  0.1427  0.2675
   58MOL   C11932153   4.857   3.767   2.129 -0.6468  0.7520 -0.3671
   58MOL   C12032154   4.989   3.702   2.193  0.1206  0.0731  0.2954
   58MOL   O12132155   4.955   3.633   2.312  0.0601 -0.1947 -0.5665
   58MOL   C12232156   5.099   3.816   2.214 -0.1590 -0.3032 -0.6149
   58MOL   C12332157   5.233   3.774   2.270  0.3672  0.3685  0.6150
   58MOL   C12432158   5.121   3.897   2.082  0.6879 -0.1700  0.4684
   58MOL   C12532159   4.990   3.973   2.051 -0.1887  0.5499 -0.1136
   58MOL   H12632160   4.646   4.084   1.832  0.5621  0.6770 -2.2607
   58MOL   H12732161   4.799   4.121   1.899 -2.0772  1.7454 -0.6134
   58MOL   H12832162   4.707   4.000   2.059  2.7677  0.1748  1.1883
   58MOL   H12932163   4.660   3.819   1.839  0.1094 -0.0789 -0.0639
   58MOL   H13032164   4.911   3.817   1.923  2.6547  0.5409  1.0459
   58MOL   H13132165   4.804   3.814   2.212 -1.6616 -0.9582 -0.0359
   58MOL   H13232166   4.801   3.676   2.107  1.6797 -0.5152 -1.1299
   58MOL   H13332167   5.018   3.622   2.126 -2.0061  0.1416 -0.7441
   58MOL   H13432168   4.901   3.559   2.287 -1.0445 -0.2585  1.9024
   58MOL   H13532169   5.058   3.886   2.287  1.6082 -0.6260  0.7105
   58MOL   H13632170   5.224   3.723   2.365 -1.1048  0.2357  0.4216
   58MOL   H13732171   5.265   3.688   2.212  0.6219  0.6717  0.2969
   58MOL   H13832172   5.134   3.828   1.999 -0.6359 -0.5703  0.5905
   58MOL   H13932173   5.207   3.964   2.081  0.9103 -0.4110  1.6756
   58MOL   H14032174   5.013   4.043   1.970  1.8515  0.1346  0.0832
   58MOL   H14132175   4.950   4.039   2.129 -1.7779 -0.8062  0.2434
   58MOL   O14232176   5.326   3.877   2.272 -0.6415 -0.0498  0.3084
   58MOL   C14332177   5.464   3.824   2.269 -0.5085 -1.0616  0.6213
   58MOL   C14432178   5.541   3.950   2.275 -0.6503  0.9716  0.8240
   58MOL   O14532179   5.501   4.017   2.390  0.0322 -0.1982 -0.2338
   58MOL   C14632180   5.690   3.935   2.260  0.0892 -0.1828 -0.0411
   58MOL   C14732181   5.760   3.860   2.377  0.0290  0.1957  0.4263
   58MOL   C14832182   5.918   3.860   2.381 -0.5674 -0.0311  0.4965
   58MOL   O14932183   5.946   3.816   2.508  0.0996 -0.8527  0.2079
   58MOL   C15032184   5.980   3.997   2.365 -0.7399  0.7599  0.8083
   58MOL   C15132185   6.135   3.989   2.362  0.3075 -0.1182 -0.2331
   58MOL   C15232186   5.918   4.072   2.246  0.1138  0.4334  0.6965
   58MOL   C15332187   5.763   4.073   2.244  0.0830  0.5920  0.1615
   58MOL   H15432188   5.487   3.780   2.172  3.3441 -1.0642  1.4579
   58MOL   H15532189   5.490   3.758   2.352  1.7414  1.1339  1.7149
   58MOL   H15632190   5.496   4.009   2.195 -1.7865  0.2777  0.9374
   58MOL   H15732191   5.409   4.006   2.408  0.2284  1.7312  2.1964
   58MOL   H15832192   5.719   3.882   2.169 -0.2806 -0.0456 -0.2394
   58MOL   H15932193   5.717   3.899   2.470 -0.9802 -1.2364  0.5861
   58MOL   H16032194   5.731   3.756   2.366  1.4266 -0.3402  1.5571
   58MOL   H16132195   5.963   3.792   2.308  1.5377 -0.2644  1.9895
   58MOL   H16232196   5.879   3.853   2.563  0.2391 -0.1630 -0.0902
   58MOL   H16332197   5.947   4.059   2.448 -2.5513  1.4233 -0.3841
   58MOL   H16432198   6.161   3.917   2.440  1.3331  1.8730  1.3074
   58MOL   H16532199   6.174   3.941   2.272  1.5735 -3.1187  1.8236
   58MOL   H16632200   5.963   4.042   2.152 -1.4601 -2.1251  0.7048
   58MOL   H16732201   5.962   4.172   2.252 -1.5201  1.1303  1.6910
   58MOL   H16832202   5.731   4.120   2.151 -0.3139 -0.9540 -0.4930
   58MOL   H16932203   5.723   4.137   2.323 -1.6252 -0.4091  0.1202
   58MOL   O17032204   6.196   4.116   2.386 -0.3295 -0.0991  0.3105
   58MOL   C17132205   6.250   4.144   2.512 -1.0020  0.7160  0.4474
   58MOL   C17232206   6.330   4.274   2.514 -0.1570 -0.0858 -0.3439
   58MOL   O17332207   6.250   4.376   2.454 -0.3637  0.1089 -0.5224
   58MOL   C17432208   6.379   4.315   2.661 -0.3179  0.8865  0.4594
   58MOL   C17532209   6.264   4.363   2.753 -0.2173  0.0323  0.3407
   58MOL   C17632210   6.304   4.398   2.902 -0.3563 -0.0477 -0.3395
   58MOL   O17732211   6.192   4.458   2.961 -0.1150 -0.2915  0.1100
   58MOL   C17832212   6.425   4.491   2.904 -0.5066  0.2023  0.4114
   58MOL   C17932213   6.483   4.520   3.049  0.7000 -0.2541 -0.5157
   58MOL   C18032214   6.540   4.440   2.807 -0.1351  0.4576 -0.1032
   58MOL   C18132215   6.498   4.413   2.663 -0.3928 -0.3830  0.4591
   58MOL   H18232216   6.318   4.065   2.545 -1.9137 -0.6520 -0.9310
   58MOL   H18332217   6.162   4.132   2.575 -1.2029  2.3452  0.4857
   58MOL   H18432218   6.412   4.250   2.447 -0.5990 -0.0190 -0.9152
   58MOL   H18532219   6.225   4.332   2.374 -3.3163 -0.6717  0.7629
   58MOL   H18632220   6.422   4.225   2.705  1.9760  2.1277  0.7977
   58MOL   H18732221   6.238   4.457   2.704  0.2640  0.9100  1.7159
   58MOL   H18832222   6.169   4.310   2.746  0.6079 -1.4138  0.0152
   58MOL   H18932223   6.323   4.304   2.954 -1.2811  1.6593  3.2323
   58MOL   H19032224   6.138   4.391   3.001  0.4383 -1.2111 -0.6645
   58MOL   H19132225   6.388   4.583   2.858 -2.8519 -1.7020 -1.6753
   58MOL   H19232226   6.523   4.622   3.050  0.6258 -0.2048 -1.5094
   58MOL   H19332227   6.396   4.516   3.114  1.6502 -0.7406  0.7485
   58MOL   H19432228   6.570   4.343   2.846 -0.3594  0.1383 -0.7313
   58MOL   H19532229   6.631   4.499   2.817  1.0255 -1.5127  1.3373
   58MOL   H19632230   6.583   4.370   2.611  0.4571  2.7692 -0.8784
   58MOL   H19732231   6.477   4.502   2.603  0.0125  1.0183  2.3495
   58MOL   O19832232   6.566   4.425   3.101 -0.1096 -0.0010 -0.5238
   58MOL   C19932233   6.700   4.436   3.070  0.2314  0.5001  0.7479
   58MOL   C20032234   6.792   4.437   3.194  0.2390  0.2329 -0.6095
   58MOL   O20132235   6.821   4.305   3.247  0.1003  0.2473 -0.2466
   58MOL   C20232236   6.928   4.509   3.177  0.1046 -0.4779  0.3125
   58MOL   C20332237   7.022   4.456   3.063  0.1216  0.0938 -0.1891
   58MOL   C20432238   7.158   4.538   3.060  0.4048  0.1292 -0.5621
   58MOL   O20532239   7.244   4.484   2.955 -0.2897  0.1106  0.3592
   58MOL   C20632240   7.222   4.522   3.203 -0.4223 -0.5012  0.1073
   58MOL   C20732241   7.367   4.577   3.222  0.0492  0.2184 -0.1200
   58MOL   C20832242   7.130   4.588   3.306  0.0609  0.4667  0.0923
   58MOL   C20932243   6.996   4.521   3.310 -0.8847 -0.5382 -0.1697
   58MOL   H21032244   6.720   4.528   3.015  0.0361  0.3650  0.4467
   58MOL   H21132245   6.731   4.353   3.007 -0.9246  0.9518 -0.4297
   58MOL   H21232246   6.743   4.503   3.267 -0.8765 -1.1069 -0.1210
   58MOL   H21332247   6.737   4.269   3.272 -0.4778  1.4162 -0.4916
   58MOL   H21432248   6.911   4.615   3.159 -1.4569 -0.6935  0.4591
   58MOL   H21532249   7.032   4.348   3.075 -0.9242 -0.2069 -1.8624
   58MOL   H21632250   6.969   4.473   2.970  2.2860 -0.5808 -1.6015
   58MOL   H21732251   7.139   4.641   3.029 -0.5926  0.0309 -0.3156
   58MOL   H21832252   7.186   4.464   2.883 -0.4463 -0.6533  0.6951
   58MOL   H21932253   7.225   4.415   3.223  1.1295 -0.2751  1.2153
   58MOL   H22032254   7.432   4.504   3.175  1.9247  0.7331  1.5816
   58MOL   H22132255   7.379   4.671   3.168 -1.4341  0.1795 -0.5229
   58MOL   H22232256   7.116   4.693   3.282  0.2269  0.8649  1.6622
   58MOL   H22332257   7.174   4.571   3.405  0.1073 -4.3771 -0.6125
   58MOL   H22432258   6.931   4.570   3.382 -0.1925  2.1154 -1.2674
   58MOL   H22532259   7.007   4.424   3.358 -2.9523 -0.5351  0.3424
   58MOL   O22632260   7.399   4.568   3.357 -0.3840  0.2546  0.3957
   58MOL   C22732261   7.525   4.606   3.409 -0.4949 -0.1283 -0.2567
   58MOL   C22832262   0.019   4.542   3.334  0.2921 -0.9420 -0.9865
   58MOL   O22932263   0.059   4.658   3.257  0.0127  0.1336  0.5641
   58MOL   C23032264   0.136   4.502   3.428  0.0945 -0.2145  0.5108
   58MOL   C23132265   0.187   4.615   3.518  0.6431  0.3704  0.7927
   58MOL   C23232266   0.304   4.559   3.608  0.0954 -1.1171  0.0335
   58MOL   O23332267   0.336   4.667   3.689  0.2174 -0.0576 -0.4363
   58MOL   C23432268   0.420   4.512   3.528 -0.2324  0.1625  0.6182
   58MOL   C23532269   0.529   4.469   3.629 -0.2710  0.1232 -0.2034
   58MOL   C23632270   0.361   4.401   3.437 -0.1584 -0.5292  0.5664
   58MOL   C23732271   0.251   4.456   3.339  0.3294  0.2698 -0.8629
   58MOL   H23832272   7.514   4.557   3.505  0.2028 -1.7724 -0.9898
   58MOL   H23932273   7.531   4.713   3.425  0.5580 -0.1699 -0.3137
   58MOL   H24032274   0.001   4.456   3.269  0.7970  0.0210 -2.4427
   58MOL   H24132275   7.627   4.676   3.188 -0.8505  0.9242  1.5186
   58MOL   H24232276   0.098   4.420   3.490 -2.0280  1.1107  0.9955
   58MOL   H24332277   0.223   4.700   3.460  0.9075 -1.4325 -1.7901
   58MOL   H24432278   0.106   4.647   3.584  1.2086 -0.0859  1.7183
   58MOL   H24532279   0.276   4.476   3.673  0.0264 -0.3206  1.0206
   58MOL   H24632280   0.271   4.680   3.756 -0.6538 -2.3341 -0.7849
   58MOL   H24732281   0.456   4.589   3.459 -0.6563  0.3886  0.6431
   58MOL   H24832282   0.568   4.562   3.672  1.5200  1.3759 -4.2434
   58MOL   H24932283   0.475   4.415   3.706 -0.4911  1.0890  0.3363
   58MOL   H25032284   0.319   4.326   3.504 -2.6883  1.6548  1.4951
   58MOL   H25132285   0.439   4.362   3.372 -0.6898 -0.2702 -0.2351
   58MOL   H25232286   0.215   4.372   3.280  2.1548 -1.3083  0.2008
   58MOL   H25332287   0.278   4.533   3.266 -0.4908  1.8848  0.5305
   58MOL   O25432288   0.622   4.391   3.554 -0.0876 -0.0410  0.3799
   58MOL   C25532289   0.754   4.392   3.611  0.0135  0.0352 -0.2863
   58MOL   C25632290   0.832   4.523   3.579 -0.1648  0.2016  0.1328
   58MOL   O25732291   0.801   4.616   3.680  0.3639  0.0462 -0.0990
   58MOL   C25832292   0.988   4.525   3.581  0.2676  0.0219 -0.2136
   58MOL   C25932293   1.060   4.511   3.725 -0.4644 -0.3602  1.0594
   58MOL   C26032294   1.208   4.476   3.697  0.0234  0.3175 -0.6142
   58MOL   O26132295   1.256   4.468   3.833 -0.0702 -0.2320  0.7369
   58MOL   C26232296   1.272   4.584   3.609 -0.3703 -0.2150 -0.4934
   58MOL   C26332297   1.422   4.545   3.581  0.4429  0.3341  0.5464
   58MOL   C26432298   1.198   4.607   3.479  0.4225  0.3175 -0.1631
   58MOL   C26532299   1.048   4.643   3.502 -0.3848  0.0053 -0.2381
   58MOL   H26632300   0.812   4.310   3.570 -0.8960 -0.3837 -0.7323
   58MOL   H26732301   0.747   4.371   3.718 -2.4113 -1.0042 -0.6265
   58MOL   H26832302   0.804   4.559   3.480 -0.7864  1.9825  0.9283
   58MOL   H26932303   0.707   4.613   3.680  0.4124 -3.9811 -0.7747
   58MOL   H27032304   1.013   4.435   3.526  0.2971 -0.1715  0.1162
   58MOL   H27132305   1.039   4.604   3.778 -1.2239 -0.1448  0.3918
   58MOL   H27232306   1.025   4.427   3.785  0.1019 -1.1215  0.3393
   58MOL   H27332307   1.223   4.379   3.650 -2.4087 -1.3441  1.8566
   58MOL   H27432308   1.342   4.429   3.831  0.7521  1.4270  1.9842
   58MOL   H27532309   1.269   4.672   3.674  0.1699 -0.0382 -0.6995
   58MOL   H27632310   1.480   4.531   3.673 -0.4880  2.0680  1.4270
   58MOL   H27732311   1.431   4.450   3.528 -1.8035  0.1953  0.3626
   58MOL   H27832312   1.213   4.523   3.411  1.1552 -0.6880  1.2140
   58MOL   H27932313   1.238   4.695   3.428  0.6942  0.1760 -0.1939
   58MOL   H28032314   1.001   4.658   3.406 -0.7697  1.4553  0.1711
   58MOL   H28132315   1.046   4.731   3.567  2.0679 -1.8812  2.5755
   58MOL   O28232316   1.480   4.658   3.511 -0.3959 -0.4227  0.0315
   58MOL   C28332317   1.611   4.632   3.478 -0.4001 -0.0233  0.2515
   58MOL   C28432318   1.661   4.755   3.395 -1.0480  0.1175 -0.3209
   58MOL   O28532319   1.574   4.750   3.285  0.3216 -0.3421  0.4878
   58MOL   C28632320   1.651   4.895   3.460  0.5296  0.1738 -0.0385
   58MOL   C28732321   1.702   5.005   3.364  0.1696  0.4599 -0.9998
   58MOL   C28832322   1.676   5.141   3.417  0.0985 -0.5279  0.0746
   58MOL   O28932323   1.745   5.226   3.322  0.6366  0.3399 -0.6662
   58MOL   C29032324   1.730   5.165   3.555 -0.1078 -0.4157 -0.3347
   58MOL   C29132325   1.687   5.298   3.609  0.1268  0.3647 -0.1506
   58MOL   C29232326   1.699   5.048   3.646 -0.4174  0.6930 -0.6478
   58MOL   C29332327   1.731   4.911   3.592 -0.5794 -0.3686  0.5360
   58MOL   H29432328   1.624   4.541   3.419  0.4248 -0.0395  0.4457
   58MOL   H29532329   1.676   4.622   3.565 -1.8957 -0.8773  1.3043
   58MOL   H29632330   1.757   4.724   3.353 -0.2703  0.2952  1.3201
   58MOL   H29732331   1.493   4.718   3.321  0.5790 -0.1405  1.2484
   58MOL   H29832332   1.544   4.914   3.472  0.6238 -0.2750  1.6918
   58MOL   H29932333   1.808   4.984   3.360  0.3709  1.0006  0.9082
   58MOL   H30032334   1.665   4.991   3.262 -0.1745  1.7760 -1.0637
   58MOL   H30132335   1.569   5.160   3.422 -0.2335 -2.2114 -0.3663
   58MOL   H30232336   1.707   5.211   3.237  0.5659 -1.4136 -0.3383
   58MOL   H30332337   1.839   5.165   3.546 -0.0393 -0.1039  0.3955
   58MOL   H30432338   1.693   5.375   3.532 -0.3824  0.1666 -0.3908
   58MOL   H30532339   1.582   5.294   3.639  0.0580  1.6953 -0.1743
   58MOL   H30632340   1.593   5.057   3.671 -0.3067 -0.6997  0.3969
   58MOL   H30732341   1.753   5.065   3.739 -1.6220  0.2420  0.1421
   58MOL   H30832342   1.707   4.837   3.667 -2.4070 -1.3302 -0.9639
   58MOL   H30932343   1.837   4.908   3.566 -0.7542  0.6994 -0.3341
   58MOL   O31032344   1.774   5.321   3.717 -0.4116 -0.0227  0.3356
   58MOL   C31132345   1.733   5.420   3.809  0.1253 -0.0516  1.3760
   58MOL   C31232346   1.822   5.427   3.929  0.1731 -0.0183 -0.3379
   58MOL   O31332347   1.929   5.510   3.901  0.6709  0.2430 -0.5564
   58MOL   C31432348   1.752   5.466   4.061 -0.8566  0.2921 -0.1764
   58MOL   C31532349   1.847   5.540   4.151  0.2782  0.4352 -0.2119
   58MOL   C31632350   1.795   5.575   4.303  0.0466 -0.0712 -1.3585
   58MOL   O31732351   1.903   5.610   4.381  0.2989  0.1703  0.0593
   58MOL   C31832352   1.713   5.464   4.368  0.1426 -0.9616 -0.0227
   58MOL   C31932353   1.635   5.522   4.496  0.5943  0.3212 -0.9811
   58MOL   C32032354   1.622   5.404   4.257 -0.0279 -0.2026 -0.6305
   58MOL   C32132355   1.698   5.345   4.139  0.4642  1.0409  0.9210
   58MOL   H32232356   1.629   5.406   3.839 -0.4079  0.7616 -0.0499
   58MOL   H32332357   1.723   5.517   3.760  2.4654 -1.5273 -2.2630
   58MOL   H32432358   1.856   5.324   3.937  3.1237  0.7637 -1.8548
   58MOL   H32532359   1.901   5.595   3.870  0.7650  0.3892 -0.2445
   58MOL   H32632360   1.667   5.531   4.039 -1.0461  0.1768  0.2187
   58MOL   H32732361   1.930   5.471   4.170  1.7085  2.3403  0.7281
   58MOL   H32832362   1.891   5.630   4.108  0.3752  0.7271  0.4909
   58MOL   H32932363   1.722   5.655   4.286 -1.3781 -0.6356  1.8521
   58MOL   H33032364   1.924   5.695   4.345 -1.5932  0.8305  0.4856
   58MOL   H33132365   1.781   5.387   4.406  2.4098  1.9549  2.0124
   58MOL   H33232366   1.708   5.532   4.576 -0.2407 -0.0411 -0.1641
   58MOL   H33332367   1.589   5.618   4.475  0.1079  0.8118  2.0124
   58MOL   H33432368   1.551   5.481   4.226 -0.9082 -1.0748 -0.8234
   58MOL   H33532369   1.574   5.313   4.295 -0.7654  0.0129 -1.0291
   58MOL   H33632370   1.634   5.273   4.089  1.9903 -0.0182  0.4340
   58MOL   H33732371   1.782   5.288   4.178 -1.7857 -3.3534 -0.4353
   58MOL   O33832372   1.527   5.434   4.539 -0.4482 -0.0049  0.6009
   58MOL   C33932373   1.509   5.388   4.675 -0.2162 -0.9965 -0.4276
   58MOL   C34032374   1.624   5.299   4.726  0.7734 -0.5452  0.3624
   58MOL   O34132375   1.617   5.317   4.868 -0.3471  0.1042 -0.3974
   58MOL   C34232376   1.614   5.152   4.693 -0.3390 -0.2326  0.3148
   58MOL   C34332377   1.632   5.128   4.543 -0.0793 -0.2452 -0.5017
   58MOL   C34432378   1.623   4.979   4.500  0.1805 -0.0595  0.6196
   58MOL   O34532379   1.630   4.969   4.361 -0.0157  0.5948 -0.2620
   58MOL   C34632380   1.501   4.907   4.554  0.4189  0.1271  0.4082
   58MOL   C34732381   1.505   4.755   4.531 -0.0728 -0.6819 -0.5283
   58MOL   C34832382   1.472   4.942   4.698 -0.1790 -0.7109  0.2158
   58MOL   C34932383   1.481   5.096   4.733  0.4675  0.8769 -0.1381
   58MOL   H35032384   1.413   5.341   4.698 -0.4565 -0.6095 -0.6288
   58MOL   H35132385   1.520   5.480   4.732 -1.8088  0.0280 -1.7390
   58MOL   H35232386   1.720   5.328   4.682  0.5224 -0.9790 -0.4850
   58MOL   H35332387   1.525   5.309   4.890 -0.4780 -0.1858 -1.0297
   58MOL   H35432388   1.703   5.109   4.741  1.0088  0.7361 -1.2655
   58MOL   H35532389   1.555   5.181   4.487 -2.6919 -2.1096  1.1980
   58MOL   H35632390   1.735   5.152   4.515  0.4200  0.4072  1.7849
   58MOL   H35732391   1.709   4.928   4.543  0.1543  0.5988  1.4467
   58MOL   H35832392   1.541   4.985   4.336 -0.0191 -1.5736 -1.8087
   58MOL   H35932393   1.422   4.953   4.495  0.7818 -2.1289 -1.9398
   58MOL   H36032394   1.560   4.741   4.438  1.1417 -1.3109  0.2665
   58MOL   H36132395   1.567   4.714   4.611 -1.1359 -2.4112 -0.5783
   58MOL   H36232396   1.549   4.894   4.758  0.1729  0.6484  0.8745
   58MOL   H36332397   1.378   4.895   4.726 -0.0097 -1.3868 -0.3413
   58MOL   H36432398   1.437   5.113   4.831  0.5609  1.6325 -0.2269
   58MOL   H36532399   1.406   5.133   4.663  1.5893  0.7745 -1.3949
   58MOL   O36632400   1.380   4.686   4.546  0.5294 -0.4161  0.4458
   58MOL   C36732401   1.369   4.551   4.565 -0.4787 -0.2111  0.1408
   58MOL   C36832402   1.254   4.493   4.473 -0.3150  0.1925 -0.6484
   58MOL   O36932403   1.299   4.475   4.338 -0.6946 -0.7244  0.1808
   58MOL   C37032404   1.205   4.357   4.524  0.5051  0.4620  0.2236
   58MOL   C37132405   1.108   4.288   4.425 -0.5212 -0.7638 -0.3627
   58MOL   C37232406   1.064   4.148   4.480  0.3185  0.1398 -0.7030
   58MOL   O37332407   0.981   4.093   4.391  0.2767  0.2021  0.2163
   58MOL   C37432408   0.991   4.147   4.614 -0.4127 -0.3509 -0.3335
   58MOL   C37532409   0.962   4.008   4.673 -0.3806 -0.7984 -0.0335
   58MOL   C37632410   1.084   4.227   4.711 -0.5451 -0.1664 -0.0605
   58MOL   C37732411   1.126   4.367   4.657 -0.7927  0.1480 -0.9449
   58MOL   H37832412   1.355   4.531   4.671  0.1580  0.0265  0.2735
   58MOL   H37932413   1.469   4.519   4.535 -0.5026 -0.2197  0.0722
   58MOL   H38032414   1.159   4.545   4.477 -0.8310 -0.6809 -1.2803
   58MOL   H38132415   1.315   4.564   4.313 -1.8493  0.1149  2.3548
   58MOL   H38232416   1.285   4.284   4.541  0.9852  0.9711  0.1731
   58MOL   H38332417   1.019   4.351   4.416 -1.0214 -1.3979  0.0728
   58MOL   H38432418   1.163   4.275   4.332  2.0542  2.6788  0.5968
   58MOL   H38532419   1.148   4.080   4.493  0.0404  0.1759  1.6625
   58MOL   H38632420   0.941   4.019   4.435  1.8134  0.2735  1.7513
   58MOL   H38732421   0.902   4.211   4.613 -1.6752 -2.0053  1.9648
   58MOL   H38832422   1.053   3.948   4.669  0.5140  0.5209  0.4113
   58MOL   H38932423   0.948   4.017   4.781  0.9559  0.1332  0.0664
   58MOL   H39032424   1.171   4.172   4.746  0.0542  2.5898  2.9564
   58MOL   H39132425   1.034   4.238   4.807 -0.3523  2.1750 -0.1966
   58MOL   H39232426   1.187   4.414   4.735  0.4338  0.9091 -2.3327
   58MOL   H39332427   1.036   4.426   4.642 -1.5968 -0.7203  0.4171
   58MOL   O39432428   0.859   3.935   4.606  0.1666  0.3022  0.3693
   58MOL   C39532429   0.730   3.990   4.626  0.1506  0.5238  0.3294
   58MOL   C39632430   0.660   3.963   4.494  0.3567 -0.0443  0.4926
   58MOL   O39732431   0.611   3.833   4.498 -0.0051 -0.1502  0.2206
   58MOL   C39832432   0.536   4.057   4.484 -0.0239  0.6014 -0.4742
   58MOL   C39932433   0.579   4.205   4.456 -0.2402 -0.4045  0.2477
   58MOL   C40032434   0.456   4.297   4.435 -0.3621 -0.4567 -0.3033
   58MOL   O40132435   0.514   4.428   4.423  0.0318  1.2412  0.3024
   58MOL   C40232436   0.357   4.290   4.559 -0.5891  0.6491 -0.5793
   58MOL   C40332437   0.238   4.383   4.545 -0.4316 -0.6197  0.0899
   58MOL   C40432438   0.314   4.145   4.592 -0.3175  0.2506  0.4261
   58MOL   C40532439   0.434   4.053   4.603  0.9645  0.8523 -0.4518
   58MOL   H40632440   0.742   4.097   4.643 -0.3822  0.4642  1.0999
   58MOL   H40732441   0.668   3.961   4.711  1.2858  1.6250  1.5531
   58MOL   H40832442   0.716   3.962   4.401  0.0490 -3.6745  0.2578
   58MOL   H40932443   0.689   3.783   4.516 -0.1847 -0.7952 -0.7566
   58MOL   H41032444   0.478   4.017   4.401 -2.7493 -2.9486  2.9046
   58MOL   H41132445   0.642   4.247   4.533 -2.7747  1.1940  1.5130
   58MOL   H41232446   0.636   4.201   4.363 -0.4855 -0.2225  0.0863
   58MOL   H41332447   0.404   4.270   4.343  0.1232  0.7503 -0.9364
   58MOL   H41432448   0.529   4.433   4.330 -0.2057 -1.1862  0.0906
   58MOL   H41532449   0.414   4.332   4.641  0.8579 -0.2058 -1.1231
   58MOL   H41632450   0.271   4.485   4.526  2.9965 -1.2552  2.1890
   58MOL   H41732451   0.181   4.342   4.462  1.2544 -0.7551 -1.0331
   58MOL   H41832452   0.242   4.115   4.516  0.0067 -4.2672  1.7575
   58MOL   H41932453   0.260   4.149   4.686  0.0288  1.2863  0.5929
   58MOL   H42032454   0.402   3.951   4.625  0.3805  1.2851  0.7214
   58MOL   H42132455   0.493   4.093   4.686 -0.4494  0.3904  0.7786
   58MOL   O42232456   0.161   4.391   4.665  0.3829 -0.0292 -0.3359
   58MOL   C42332457   0.062   4.487   4.656 -0.5356 -0.6231  0.3346
   58MOL   C42432458   0.002   4.505   4.792 -0.4103  0.4093  0.2036
   58MOL   O42532459   0.063   4.608   4.871  0.2061 -0.2549 -0.1304
   58MOL   C42632460   7.482   4.544   4.781 -0.5999 -0.2017  0.0360
   58MOL   C42732461   7.384   4.443   4.728 -0.4763 -0.7252  0.2803
   58MOL   C42832462   7.237   4.474   4.753 -0.3217  0.1600 -0.0119
   58MOL   O42932463   7.162   4.367   4.710  0.0930 -0.2271  0.0010
   58MOL   C43032464   7.212   4.611   4.680  0.0674  0.2485 -0.4012
   58MOL   C43132465   7.066   4.653   4.693  0.3544 -0.0610  0.2365
   58MOL   C43232466   7.307   4.720   4.737  0.6675 -0.7721 -0.2161
   58MOL   C43332467   7.453   4.680   4.713 -0.1440 -0.4673  0.2310
   58MOL   H43432468   7.614   4.450   4.588 -0.0197 -2.1491  0.5757
   58MOL   H43532469   0.108   4.577   4.613 -0.8346 -0.9503 -0.7003
   58MOL   H43632470   0.015   4.413   4.848  0.9188  0.7306  0.4413
   58MOL   H43732471   0.133   4.565   4.919 -1.8909 -2.0221  1.4068
   58MOL   H43832472   7.457   4.532   4.886  3.4680 -1.5110  0.9123
   58MOL   H43932473   7.391   4.443   4.619 -2.3661 -1.8052  0.1343
   58MOL   H44032474   7.416   4.347   4.766 -2.0956 -0.6437  1.9196
   58MOL   H44132475   7.218   4.488   4.859 -1.7231  3.3032 -0.5942
   58MOL   H44232476   7.207   4.351   4.629  0.1828  1.1107 -0.2221
   58MOL   H44332477   7.232   4.589   4.576  0.1732  0.3256 -0.3973
   58MOL   H44432478   6.984   4.592   4.654  0.4195  0.9859 -1.6175
   58MOL   H44532479   7.059   4.652   4.801  0.5326  1.3237  0.2742
   58MOL   H44632480   7.290   4.759   4.837 -0.7724  0.1685 -0.8040
   58MOL   H44732481   7.288   4.812   4.683 -1.0818 -2.3584 -2.4299
   58MOL   H44832482   7.513   4.766   4.743  0.3731 -0.6830 -0.1861
   58MOL   H44932483   7.481   4.678   4.608  0.9506  1.1047  0.4738
   58MOL   O45032484   7.050   4.787   4.636 -0.1252 -0.1999  0.0586
   58MOL   C45132485   6.910   4.820   4.627 -0.4769  0.2835 -0.2540
   58MOL   C45232486   6.904   4.969   4.658  0.1983 -0.0498  0.7675
   58MOL   O45332487   6.941   4.975   4.791 -0.0830 -0.5180  0.0289
   58MOL   C45432488   6.994   5.058   4.575  0.4223  0.8977 -0.8293
   58MOL   C45532489   6.979   5.205   4.610 -0.1015  0.9212 -0.4213
   58MOL   C45632490   7.058   5.300   4.519 -0.1051 -0.1394 -1.2671
   58MOL   O45732491   7.024   5.428   4.571  0.0584  0.6394 -0.2743
   58MOL   C45832492   7.028   5.281   4.364  0.4537  0.0379 -0.3021
   58MOL   C45932493   7.114   5.370   4.276  1.0507 -0.1915  0.4208
   58MOL   C46032494   7.049   5.126   4.328 -0.3249 -0.2765  0.4871
   58MOL   C46132495   6.979   5.034   4.425  0.0801  0.0516 -0.2662
   58MOL   H46232496   6.854   4.772   4.707  2.8055 -1.3029  1.2137
   58MOL   H46332497   6.876   4.788   4.529  0.4434 -0.4354 -0.3442
   58MOL   H46432498   6.805   5.012   4.669 -0.4431 -0.5877 -2.5706
   58MOL   H46532499   7.010   4.911   4.783  1.0697  0.7842 -0.7631
   58MOL   H46632500   7.095   5.025   4.601  0.2495  1.0047 -0.0325
   58MOL   H46732501   6.874   5.233   4.616  0.2573  2.0461  1.1287
   58MOL   H46832502   7.016   5.224   4.711 -0.3335 -0.9903  0.0465
   58MOL   H46932503   7.165   5.302   4.541 -0.6791  2.1147  1.8009
   58MOL   H47032504   6.985   5.413   4.656 -4.6085 -0.6723 -2.4585
   58MOL   H47132505   6.923   5.297   4.344  0.6485 -0.3345 -1.6617
   58MOL   H47232506   7.085   5.471   4.304  0.1317  0.0384 -1.3037
   58MOL   H47332507   7.219   5.357   4.304  0.6558 -0.9039  1.6007
   58MOL   H47432508   7.155   5.103   4.331 -0.2499  0.1474  1.2234
   58MOL   H47532509   7.022   5.110   4.223 -2.8435 -0.1563  1.0987
   58MOL   H47632510   7.003   4.930   4.403  1.3702  0.5616 -1.2853
   58MOL   H47732511   6.872   5.041   4.403 -0.0171 -0.5295 -0.0048
   58MOL   O47832512   7.091   5.360   4.139  1.1932 -0.0184  0.7277
   58MOL   C47932513   7.179   5.451   4.073  0.1392 -0.2282 -0.1177
   58MOL   C48032514   7.153   5.458   3.920  0.6576  0.4939  0.4841
   58MOL   O48132515   7.277   5.499   3.876 -0.0145 -0.2435 -0.5878
   58MOL   C48232516   7.113   5.331   3.850 -0.2856  0.0319 -0.4060
   58MOL   C48332517   7.234   5.236   3.830 -0.3880  1.0826 -0.0296
   58MOL   C48432518   7.185   5.099   3.774 -0.3437 -0.3133  0.4883
   58MOL   O48532519   7.293   5.014   3.765  0.0269 -0.2510 -0.1956
   58MOL   C48632520   7.120   5.122   3.634  0.3277 -0.0389 -0.7012
   58MOL   C48732521   7.077   4.990   3.569  0.7754  0.6206  0.3923
   58MOL   C48832522   7.005   5.225   3.654  0.0569  0.0509  0.4789
   58MOL   C48932523   7.055   5.357   3.712  0.5869  0.0576 -0.7926
   58MOL   H49032524   7.283   5.422   4.081 -0.2682 -1.9517 -0.7641
   58MOL   H49132525   7.166   5.550   4.116 -0.0863  1.4717 -3.9372
   58MOL   H49232526   7.077   5.532   3.895  1.9699  1.5458 -0.4741
   58MOL   H49332527   7.290   5.587   3.909  1.6723 -0.3052 -1.0605
   58MOL   H49432528   7.035   5.290   3.914 -0.5199  1.6189  0.3609
   58MOL   H49532529   7.304   5.279   3.758  0.0155 -2.9661 -2.1930
   58MOL   H49632530   7.296   5.229   3.920 -1.7636  0.4533  0.8758
   58MOL   H49732531   7.106   5.050   3.832  1.4376 -1.0925  2.3167
   58MOL   H49832532   7.338   5.047   3.688  0.6812 -1.0325 -0.1570
   58MOL   H49932533   7.191   5.181   3.575  0.0710  1.4981  0.5156
   58MOL   H50032534   7.157   4.929   3.527  0.0808 -0.0969  0.0995
   58MOL   H50132535   7.024   4.929   3.642  2.0075 -1.1234 -0.1430
   58MOL   H50232536   6.923   5.176   3.706 -0.6378 -0.2626 -0.8678
   58MOL   H50332537   6.958   5.244   3.557  1.2037 -1.3411 -0.3618
   58MOL   H50432538   6.982   5.438   3.719  0.9526  0.2917  0.4227
   58MOL   H50532539   7.127   5.395   3.640  0.7761  1.7828  0.2651
   58MOL   O50632540   6.990   5.001   3.461  0.3110 -0.0837 -0.0818
   58MOL   C50732541   6.925   4.877   3.417  0.4823 -0.0615  0.2952
   58MOL   C50832542   6.782   4.847   3.455 -0.4223 -1.1874 -0.0408
   58MOL   O50932543   6.739   4.748   3.361 -0.6220 -0.0061  0.5558
   58MOL   C51032544   6.757   4.814   3.600  0.4335  0.0229 -0.1872
   58MOL   C51132545   6.733   4.927   3.703  0.2442  0.0989  0.0547
   58MOL   C51232546   6.680   4.868   3.840 -0.3899  0.3180  0.5210
   58MOL   O51332547   6.675   4.969   3.934  0.8521  0.4420 -0.0944
   58MOL   C51432548   6.761   4.744   3.893  0.8096  0.3392 -0.2230
   58MOL   C51532549   6.721   4.689   4.030  0.2026 -1.0725 -0.1913
   58MOL   C51632550   6.766   4.635   3.783 -0.1785  0.6561  0.0248
   58MOL   C51732551   6.835   4.690   3.652  0.3482  0.1139  0.3207
   58MOL   H51832552   6.982   4.784   3.423  3.0863  1.4820  0.0112
   58MOL   H51932553   6.915   4.888   3.310 -1.9254  0.5157  0.5480
   58MOL   H52032554   6.732   4.939   3.426  1.7210  1.2591  3.6405
   58MOL   H52132555   6.646   4.755   3.350 -0.6435 -1.0017  0.0203
   58MOL   H52232556   6.657   4.773   3.589  0.1339  0.5992  0.3666
   58MOL   H52332557   6.825   4.984   3.712  0.7558 -0.5335 -1.0044
   58MOL   H52432558   6.648   4.977   3.656 -0.5696 -1.1222  0.1867
   58MOL   H52532559   6.576   4.838   3.825  0.5293 -2.3060 -0.8001
   58MOL   H52632560   6.597   5.021   3.921 -1.1483 -2.7994 -1.4893
   58MOL   H52732561   6.864   4.775   3.910  0.9729  0.3471 -1.1860
   58MOL   H52832562   6.801   4.629   4.073  1.6949 -1.4712 -3.3750
   58MOL   H52932563   6.700   4.770   4.100 -0.4291 -1.4528  0.0631
   58MOL   H53032564   6.666   4.597   3.761 -0.0132  0.5034 -0.4580
   58MOL   H53132565   6.815   4.546   3.821  0.5722  1.8345  1.9080
   58MOL   H53232566   6.830   4.601   3.590 -0.7578  0.0747  0.4643
   58MOL   H53332567   6.940   4.714   3.673  0.1850  1.5854 -0.4162
   58MOL   O53432568   6.609   4.602   4.008 -0.0666  0.6397 -0.3638
   58MOL   C53532569   6.544   4.563   4.127  0.4010 -0.1780 -0.2328
   58MOL   C53632570   6.408   4.485   4.100 -0.1234 -0.2845 -0.5005
   58MOL   O53732571   6.329   4.574   4.015 -0.6010 -0.4889  0.3495
   58MOL   C53832572   6.430   4.357   4.011  0.8479  0.7087 -0.4204
   58MOL   C53932573   6.302   4.291   3.955 -0.3853 -0.1808  0.4312
   58MOL   C54032574   6.304   4.152   3.901 -0.0793 -0.1608 -0.2830
   58MOL   O54132575   6.179   4.102   3.880 -0.0616 -0.8704 -0.1500
   58MOL   C54232576   6.376   4.056   3.998  0.2849 -1.0405  1.2518
   58MOL   C54332577   6.406   3.913   3.944  0.2029 -0.9909 -0.5247
   58MOL   C54432578   6.514   4.116   4.045  0.6635  0.2369 -0.0480
   58MOL   C54532579   6.511   4.254   4.104 -0.3599  0.1622 -0.3181
   58MOL   H54632580   6.521   4.635   4.206  1.2369 -0.4517  0.2631
   58MOL   H54732581   6.605   4.497   4.189  0.2749  1.4078  1.6390
   58MOL   H54832582   6.350   4.475   4.192  1.8420  1.2565  0.9479
   58MOL   H54932583   6.397   4.614   3.964 -1.3138  1.1530  0.6311
   58MOL   H55032584   6.498   4.383   3.929 -0.0476 -1.0211 -1.7521
   58MOL   H55132585   6.222   4.298   4.029 -2.4686  0.8915 -1.8613
   58MOL   H55232586   6.264   4.359   3.879  0.3507  0.2495  0.4475
   58MOL   H55332587   6.353   4.159   3.804  0.7025  0.1914  0.1329
   58MOL   H55432588   6.192   4.041   3.809 -0.5741 -0.9310 -0.1983
   58MOL   H55532589   6.325   4.045   4.093 -0.1169  0.8907  1.2834
   58MOL   H55632590   6.308   3.866   3.937 -0.3989  0.0951  0.4880
   58MOL   H55732591   6.441   3.904   3.841 -1.6633 -2.2282 -1.0772
   58MOL   H55832592   6.585   4.108   3.962  0.8517  0.8283  0.0494
   58MOL   H55932593   6.537   4.048   4.127 -0.6653 -1.1194 -0.7813
   58MOL   H56032594   6.614   4.279   4.127 -0.6382  0.5137  0.5518
   58MOL   H56132595   6.461   4.249   4.201  0.9248 -0.6491  0.3228
   58MOL   H56232596   6.469   3.863   4.017 -0.7703 -1.6868 -0.1444
   59MOL     O132597   6.433   7.465   6.876 -0.8652 -0.3643 -0.5170
   59MOL     C232598   6.474   7.592   6.859 -0.5673  0.2571  0.6278
   59MOL     C332599   6.615   7.578   6.813  0.0639  0.0528  0.4391
   59MOL     O432600   6.633   7.464   6.725 -0.0951  0.4180 -0.1425
   59MOL     C532601   6.672   0.084   6.770  0.0526  0.3883  0.2567
   59MOL     C632602   6.609   0.139   6.639  0.3679 -0.7928 -0.0619
   59MOL     C732603   6.655   0.280   6.606 -0.1491  0.0513 -0.2987
   59MOL     O832604   6.578   0.319   6.489  0.4340 -0.3065  0.2794
   59MOL     C932605   6.807   0.272   6.581 -0.1355  0.1803  1.0821
   59MOL    C1032606   6.872   0.401   6.522  0.2206 -0.4092  0.1381
   59MOL    C1132607   6.879   0.227   6.704  0.2405  0.1535  0.2818
   59MOL    C1232608   6.829   0.083   6.748  0.1270  0.3510  0.2402
   59MOL    H1332609   6.475   0.027   6.947  2.4859  2.3254 -0.8534
   59MOL    H1432610   6.414   0.016   6.786 -0.1146 -0.6488 -0.4215
   59MOL    H1532611   6.671   7.562   6.905 -2.4935  2.1702  2.4337
   59MOL    H1632612   6.688   7.495   6.654 -0.3241 -0.0341 -0.5168
   59MOL    H1732613   6.646   0.150   6.854 -3.1025  0.7213 -0.8911
   59MOL    H1832614   6.640   0.079   6.554  0.9243 -0.1333 -0.3259
   59MOL    H1932615   6.500   0.130   6.644  0.0361  2.5688 -0.2848
   59MOL    H2032616   6.642   0.349   6.689 -0.6224  1.6853 -1.6915
   59MOL    H2132617   6.628   0.306   6.410  1.0230  1.2520  0.3604
   59MOL    H2232618   6.821   0.192   6.508 -2.3913  0.7212  0.0039
   59MOL    H2332619   6.799   0.450   6.457  1.5673 -1.6873 -2.4191
   59MOL    H2432620   6.895   0.466   6.607 -0.4581  0.4403 -0.3201
   59MOL    H2532621   6.847   0.293   6.785 -0.6253  2.1727 -1.6313
   59MOL    H2632622   6.987   0.232   6.694  0.1145  0.5491 -0.9864
   59MOL    H2732623   6.877   0.076   6.846  3.3203  0.7122 -1.2356
   59MOL    H2832624   6.857   0.001   6.682 -1.3116  0.4137 -0.4700
   59MOL    H2932625   6.486   7.415   6.816  0.2592  1.5837 -1.1811
   59MOL    O3032626   6.983   0.364   6.433  0.7555  0.0049 -0.2567
   59MOL    C3132627   7.048   0.479   6.385 -0.0932  0.0082 -0.3332
   59MOL    C3232628   7.155   0.430   6.284  0.1521 -0.0633  0.1337
   59MOL    O3332629   7.080   0.362   6.178  0.3116 -0.0172  0.2187
   59MOL    C3432630   7.237   0.550   6.231 -0.4780  0.2757 -0.3926
   59MOL    C3532631   7.158   0.648   6.131 -0.1412 -0.6324  0.4863
   59MOL    C3632632   7.249   0.751   6.061  0.0506  0.3454  0.0678
   59MOL    O3732633   7.182   0.819   5.956  0.8530  0.3746 -0.6655
   59MOL    C3832634   7.386   0.702   6.007  0.5418 -0.2845  0.2775
   59MOL    C3932635   7.481   0.810   5.959  0.5559  0.3332 -0.4491
   59MOL    C4032636   7.458   0.622   6.120  0.0516  0.6388  0.3497
   59MOL    C4132637   7.373   0.507   6.179 -0.3537 -0.3073  0.1823
   59MOL    H4232638   7.105   0.524   6.468 -0.6293  1.5564 -0.7782
   59MOL    H4332639   6.981   0.552   6.339  1.1342 -1.5976 -4.8291
   59MOL    H4432640   7.225   0.356   6.323  0.8486  0.5730  0.0884
   59MOL    H4532641   7.000   0.338   6.223  0.2550 -0.3135 -0.0347
   59MOL    H4632642   7.258   0.610   6.320  2.4352 -2.8629  1.1450
   59MOL    H4732643   7.103   0.594   6.054 -0.4883 -0.9809  0.9789
   59MOL    H4832644   7.076   0.698   6.181  0.3301  1.6001 -0.9192
   59MOL    H4932645   7.261   0.832   6.133  1.0052 -1.0386  1.5001
   59MOL    H5032646   7.131   0.893   5.986 -1.9626 -1.7779  0.0547
   59MOL    H5132647   7.368   0.643   5.918  0.5852 -1.9002  1.3215
   59MOL    H5232648   7.437   0.841   5.864 -0.4114  1.1981  0.2731
   59MOL    H5332649   7.480   0.883   6.039  0.6731  0.2462 -0.3676
   59MOL    H5432650   7.491   0.680   6.206  0.2895  3.1111 -1.3250
   59MOL    H5532651   7.554   0.579   6.092  1.3520  2.4505  1.9088
   59MOL    H5632652   7.437   0.458   6.253  0.7853  1.1278  0.1631
   59MOL    H5732653   7.367   0.436   6.096  3.1450  1.4804 -1.6736
   59MOL    O5832654   7.612   0.758   5.941 -0.2655 -0.3431  0.4740
   59MOL    C5932655   0.085   0.851   5.931  0.2983  0.0748  0.2242
   59MOL    C6032656   0.138   0.876   6.069  0.3986 -0.3159  0.1505
   59MOL    O6132657   0.171   0.748   6.121 -0.4538  0.5299  0.8724
   59MOL    C6232658   0.267   0.954   6.075 -0.1209 -0.7351 -0.5626
   59MOL    C6332659   0.391   0.881   6.026 -0.2531 -0.2832 -0.1624
   59MOL    C6432660   0.519   0.969   6.032 -0.4547  0.0102 -0.1597
   59MOL    O6532661   0.622   0.899   5.975  0.4097 -0.5732  0.3312
   59MOL    C6632662   0.545   1.010   6.179 -0.1457  0.2217 -0.5210
   59MOL    C6732663   0.662   1.102   6.203  0.0840 -0.1504  0.1511
   59MOL    C6832664   0.425   1.089   6.234  0.0160  0.2107 -0.6874
   59MOL    C6932665   0.298   1.000   6.221 -0.4187  0.7651 -0.6938
   59MOL    H7032666   0.045   0.941   5.883  1.4068  0.1087 -0.6336
   59MOL    H7132667   0.159   0.805   5.867 -0.1408  1.2809 -1.1776
   59MOL    H7232668   0.071   0.927   6.139  0.7676 -2.6672  2.2676
   59MOL    H7332669   0.108   0.685   6.089  0.7934 -1.8366  2.8848
   59MOL    H7432670   0.259   1.046   6.017 -1.7292 -0.9935 -0.7641
   59MOL    H7532671   0.407   0.784   6.073 -1.3021 -1.0519 -1.3486
   59MOL    H7632672   0.374   0.859   5.920 -0.4607  0.3425 -0.2576
   59MOL    H7732673   0.510   1.057   5.968  0.9937  1.4513  1.5737
   59MOL    H7832674   0.610   0.898   5.881  1.3638  2.7002  0.1330
   59MOL    H7932675   0.560   0.924   6.244 -2.1186  1.1094  1.1739
   59MOL    H8032676   0.741   1.073   6.134 -0.0113 -0.9145  0.3582
   59MOL    H8132677   0.641   1.203   6.167  0.5026 -0.5510 -1.2573
   59MOL    H8232678   0.415   1.182   6.178  1.3433  0.9768  0.3216
   59MOL    H8332679   0.450   1.095   6.340  0.1472 -2.1049 -0.5448
   59MOL    H8432680   0.214   1.048   6.272 -1.0786  0.1480 -1.1923
   59MOL    H8532681   0.325   0.911   6.278 -0.5770  0.4428 -1.1219
   59MOL    O8632682   0.685   1.097   6.339 -0.6846  0.5746 -0.2972
   59MOL    C8732683   0.761   1.211   6.386  0.5820  0.1064 -0.4820
   59MOL    C8832684   0.833   1.165   6.519 -0.1947  0.1449 -0.2396
   59MOL    O8932685   0.734   1.090   6.574 -0.2198  0.3450 -0.3222
   59MOL    C9032686   0.959   1.076   6.509 -0.0380 -0.7056  0.1076
   59MOL    C9132687   0.946   0.948   6.422 -0.0648  0.4350 -0.3031
   59MOL    C9232688   1.078   0.869   6.431 -0.0476 -0.2043  0.0905
   59MOL    O9332689   1.069   0.747   6.363  0.1595  0.3436 -0.1174
   59MOL    C9432690   1.122   0.836   6.577  0.2221  0.1952  0.0338
   59MOL    C9532691   1.259   0.754   6.595 -0.8892  0.0376 -0.9564
   59MOL    C9632692   1.147   0.970   6.652 -0.3265  0.0858 -0.6922
   59MOL    C9732693   1.021   1.055   6.653  0.3054 -0.4782 -0.1407
   59MOL    H9832694   0.697   1.296   6.410 -0.1598 -0.7411  0.5483
   59MOL    H9932695   0.836   1.241   6.313  1.6896 -1.4562 -0.0180
   59MOL   H10032696   0.863   1.248   6.583  0.5012 -0.1700 -0.1501
   59MOL   H10132697   0.700   1.053   6.494  1.2842  1.3079 -1.4365
   59MOL   H10232698   1.028   1.140   6.453 -1.9269  0.7595 -0.6009
   59MOL   H10332699   0.863   0.882   6.446  0.2198 -1.6754 -4.6499
   59MOL   H10432700   0.923   0.977   6.320 -1.1978 -0.0656 -0.2014
   59MOL   H10532701   1.158   0.926   6.385 -1.0364 -0.0928 -1.5029
   59MOL   H10632702   1.128   0.691   6.410  1.0428  2.2923  1.1760
   59MOL   H10732703   1.040   0.784   6.625  0.9525 -1.1099 -0.0950
   59MOL   H10832704   1.328   0.810   6.533 -1.2116  0.0084 -1.3412
   59MOL   H10932705   1.306   0.732   6.691  0.3225 -1.1821 -1.8118
   59MOL   H11032706   1.223   1.032   6.605 -0.1188 -0.1469 -0.6636
   59MOL   H11132707   1.193   0.956   6.749 -0.6837  1.0785 -0.3790
   59MOL   H11232708   1.045   1.153   6.692  1.2566  0.8593 -3.9084
   59MOL   H11332709   0.941   1.005   6.708  1.3996 -1.5194  0.5254
   59MOL   O11432710   1.230   0.631   6.540 -0.1080  0.5596  0.2667
   59MOL   C11532711   1.328   0.531   6.548 -0.1500  0.1063 -0.0967
   59MOL   C11632712   1.262   0.409   6.624  0.0713 -0.2551  0.8571
   59MOL   O11732713   1.221   0.316   6.534  0.6782 -0.0372 -0.1485
   59MOL   C11832714   1.343   0.344   6.741  0.6915  0.2029  0.5844
   59MOL   C11932715   1.341   0.437   6.862 -0.0771  0.0169 -0.5277
   59MOL   C12032716   1.384   0.352   6.987  0.1285  0.0567 -0.2252
   59MOL   O12132717   1.386   0.440   7.097  0.0064  0.3041  0.0162
   59MOL   C12232718   1.517   0.289   6.972 -0.5096 -0.4543  1.0584
   59MOL   C12332719   1.533   0.183   7.076 -0.5532  0.9098 -0.4735
   59MOL   C12432720   1.553   0.240   6.827 -0.4669 -0.4365 -0.0159
   59MOL   C12532721   1.490   0.314   6.716  0.3743 -0.9349 -0.4504
   59MOL   H12632722   1.418   0.571   6.595 -1.4591  2.4176  0.5138
   59MOL   H12732723   1.361   0.503   6.448  4.2465  1.4084  0.9018
   59MOL   H12832724   1.164   0.442   6.660 -1.9920 -1.7346 -3.0982
   59MOL   H12932725   1.184   0.363   6.461  0.4448 -0.8535 -0.5684
   59MOL   H13032726   1.312   0.244   6.770  0.5089 -0.8301 -3.0314
   59MOL   H13132727   1.401   0.523   6.833 -2.0457  0.8634 -2.2236
   59MOL   H13232728   1.239   0.469   6.881 -0.5609 -1.9466  0.3272
   59MOL   H13332729   1.304   0.281   7.006 -1.2660  1.5942 -0.1748
   59MOL   H13432730   1.301   0.464   7.130 -0.2472 -2.5733  1.5737
   59MOL   H13532731   1.593   0.366   6.987 -1.0487 -0.0053  1.4502
   59MOL   H13632732   1.471   0.185   7.165  0.2903 -0.5743  0.1697
   59MOL   H13732733   1.503   0.085   7.039  2.0009 -0.0918 -0.0263
   59MOL   H13832734   1.519   0.139   6.808 -0.7572 -0.6224  1.4251
   59MOL   H13932735   1.661   0.227   6.816 -0.3308  0.5079  0.0948
   59MOL   H14032736   1.490   0.255   6.624  0.9382 -2.1912  0.3320
   59MOL   H14132737   1.545   0.405   6.692 -0.5344 -0.3227 -0.2414
   59MOL   O14232738   1.663   0.160   7.112 -0.3059  0.0067  0.1002
   59MOL   C14332739   1.721   0.279   7.181  0.4581  0.1473  0.1670
   59MOL   C14432740   1.843   0.231   7.269 -0.4436 -0.7209  0.6540
   59MOL   O14532741   1.931   0.344   7.293 -0.1533 -0.6184 -0.0424
   59MOL   C14632742   1.803   0.177   7.405 -0.0434 -0.9201 -0.0641
   59MOL   C14732743   1.927   0.152   7.496 -0.0093  0.1478 -0.3078
   59MOL   C14832744   1.892   0.117   0.006 -0.1165 -0.7016 -0.5330
   59MOL   O14932745   2.012   0.131   0.086 -0.4347  0.0773  0.2329
   59MOL   C15032746   1.821   7.604   7.628  0.4318 -0.1601  0.4436
   59MOL   C15132747   1.799   7.546   0.141  0.2081  0.1233  0.7546
   59MOL   C15232748   1.692   7.604   7.537  0.1656  1.0244  0.2699
   59MOL   C15332749   1.719   0.044   7.399 -0.4970  0.3043 -0.4266
   59MOL   H15432750   1.653   0.342   7.238  0.0726  0.3265 -0.4857
   59MOL   H15532751   1.760   0.346   7.105  1.5871  0.4235  0.9793
   59MOL   H15632752   1.902   0.152   7.224  0.0899 -0.7001  1.3033
   59MOL   H15732753   1.884   0.407   7.344  0.9623  0.3379 -0.1779
   59MOL   H15832754   1.744   0.253   7.456  0.7244 -0.7003  0.4964
   59MOL   H15932755   2.002   0.083   7.458  1.0916  1.3745 -0.3791
   59MOL   H16032756   1.974   0.248   7.518  2.0588 -0.7643 -0.5833
   59MOL   H16132757   1.812   0.180   0.044  0.0476 -0.2088 -1.0092
   59MOL   H16232758   1.999   0.118   0.179  0.4081 -0.5949  0.2650
   59MOL   H16332759   1.887   7.528   7.588 -0.5218 -0.1457 -1.1777
   59MOL   H16432760   1.894   7.532   0.191  0.9426  1.7486 -0.1242
   59MOL   H16532761   1.753   7.626   0.199  0.6933  2.2348 -1.6532
   59MOL   H16632762   1.620   0.040   7.586 -1.9138  1.0581 -2.6488
   59MOL   H16732763   1.632   7.513   7.528 -1.3192  1.9724  0.3422
   59MOL   H16832764   1.623   0.046   7.347 -0.6170  1.3002 -0.1702
   59MOL   H16932765   1.777   7.611   7.332  2.4470  2.4869 -0.0264
   59MOL   O17032766   1.728   7.422   0.129  0.1596  0.3891  0.1781
   59MOL   C17132767   1.782   7.306   0.204 -0.3553  0.1535 -0.2877
   59MOL   C17232768   1.681   7.196   0.172  0.8037 -0.7851 -0.0141
   59MOL   O17332769   1.679   7.203   0.033 -0.2060  0.3047  0.1500
   59MOL   C17432770   1.714   7.054   0.214  0.4031  0.5861 -0.2292
   59MOL   C17532771   1.606   6.949   0.173 -0.4188 -0.1136 -0.5050
   59MOL   C17632772   1.619   6.816   0.236  0.1821  0.4962 -0.1414
   59MOL   O17732773   1.504   6.745   0.198  0.9710  0.4639  0.1306
   59MOL   C17832774   1.623   6.825   0.387  0.1604 -0.4847 -0.7217
   59MOL   C17932775   1.634   6.687   0.455 -0.8647 -0.1025 -0.0485
   59MOL   C18032776   1.744   6.909   0.418  0.4812  0.1248  0.3301
   59MOL   C18132777   1.729   7.050   0.362 -0.0913  0.1404 -0.1828
   59MOL   H18232778   1.802   7.329   0.309  2.0878 -1.3497 -0.3672
   59MOL   H18332779   1.886   7.285   0.176 -0.1825  0.0603  0.4196
   59MOL   H18432780   1.582   7.222   0.210 -0.5786 -1.1292 -3.2130
   59MOL   H18532781   1.674   7.297   0.026  2.1565  0.4013 -0.7189
   59MOL   H18632782   1.806   7.009   0.177 -0.2082 -1.4725  0.6572
   59MOL   H18732783   1.505   6.990   0.187  0.1529  1.3212 -0.4451
   59MOL   H18832784   1.610   6.935   0.066  0.4053 -1.3798 -0.3089
   59MOL   H18932785   1.708   6.766   0.198 -0.8172 -0.0959 -1.7576
   59MOL   H19032786   1.503   6.713   0.109  0.2989 -0.6699  0.5279
   59MOL   H19132787   1.529   6.873   0.417 -0.4011 -0.6788 -2.1542
   59MOL   H19232788   1.539   6.634   0.442 -1.9928  1.1110  2.8839
   59MOL   H19332789   1.721   6.639   0.410 -1.7223 -0.8590 -0.9340
   59MOL   H19432790   1.832   6.855   0.382  0.4601  0.0178  0.4366
   59MOL   H19532791   1.777   6.918   0.522  0.2280 -1.0525  0.5177
   59MOL   H19632792   1.819   7.107   0.387 -0.3146  1.6898 -2.7417
   59MOL   H19732793   1.646   7.103   0.409  0.5498  0.5415  0.5218
   59MOL   O19832794   1.650   6.686   0.596 -0.2130  0.8336  0.3419
   59MOL   C19932795   1.605   6.565   0.650 -0.0882  0.6149 -0.6401
   59MOL   C20032796   1.673   6.535   0.783 -0.9363  0.1131  0.4139
   59MOL   O20132797   1.815   6.524   0.764 -0.2318  0.3847  0.6984
   59MOL   C20232798   1.632   6.629   0.895  0.7372  0.0109 -0.5136
   59MOL   C20332799   1.721   6.748   0.914  0.2104 -0.7441  0.0257
   59MOL   C20432800   1.673   6.852   1.021  0.3968 -0.0575 -0.0357
   59MOL   O20532801   1.765   6.958   1.030  0.3630 -0.5757  0.0891
   59MOL   C20632802   1.661   6.783   1.163 -0.2424  0.2509 -0.5266
   59MOL   C20732803   1.598   6.871   1.275  0.3241 -0.2343  0.3984
   59MOL   C20832804   1.572   6.655   1.151  0.4071 -0.4905 -0.1821
   59MOL   C20932805   1.612   6.563   1.031 -0.8806 -0.7170 -0.2326
   59MOL   H21032806   1.632   6.484   0.583 -0.3423  1.7574 -2.1566
   59MOL   H21132807   1.497   6.569   0.659 -0.1005 -1.6829  0.4423
   59MOL   H21232808   1.643   6.432   0.801  0.1972 -0.5038 -1.2046
   59MOL   H21332809   1.842   6.604   0.721 -0.4528  1.0919  1.8369
   59MOL   H21432810   1.525   6.649   0.890  0.8816  0.7645 -0.6976
   59MOL   H21532811   1.817   6.709   0.947 -0.3906 -1.6979  0.6654
   59MOL   H21632812   1.742   6.800   0.820  0.7370 -1.8224 -0.4647
   59MOL   H21732813   1.576   6.885   0.983  0.7680 -0.0516 -0.9999
   59MOL   H21832814   1.854   6.934   1.051 -0.5341 -2.2364  2.1870
   59MOL   H21932815   1.762   6.766   1.200 -0.9418 -1.3735  0.6493
   59MOL   H22032816   1.666   6.955   1.286 -0.9417  0.6723  1.4272
   59MOL   H22132817   1.498   6.900   1.242  1.2038  0.1188 -2.0635
   59MOL   H22232818   1.465   6.677   1.148  0.5499  0.1626 -0.5983
   59MOL   H22332819   1.566   6.595   1.242  0.1333  0.5265  0.4702
   59MOL   H22432820   1.546   6.477   1.035 -2.0900  0.2767  2.1230
   59MOL   H22532821   1.709   6.517   1.049  0.5125  0.8011 -3.5079
   59MOL   O22632822   1.601   6.802   1.392  0.2911  1.0110  0.3093
   59MOL   C22732823   1.578   6.884   1.505  0.1104 -0.3779 -0.4718
   59MOL   C22832824   1.552   6.803   1.628 -1.2109  0.1824  0.4421
   59MOL   O22932825   1.661   6.720   1.655 -0.3157 -0.2416 -0.6748
   59MOL   C23032826   1.518   6.892   1.753 -1.0006 -0.5698  0.0326
   59MOL   C23132827   1.612   7.003   1.795 -0.6946  0.6112 -0.6454
   59MOL   C23232828   1.576   7.080   1.921  0.2873  0.4354 -0.0376
   59MOL   O23332829   1.688   7.164   1.945 -0.0715  0.2542 -0.2651
   59MOL   C23432830   1.561   6.978   2.032  0.2163  0.3782 -0.1833
   59MOL   C23532831   1.517   7.032   2.171  0.6929 -0.2626  0.4027
   59MOL   C23632832   1.459   6.867   2.004  0.5304 -0.0654 -0.2769
   59MOL   C23732833   1.498   6.796   1.879 -0.2189  0.3041  0.5511
   59MOL   H23832834   1.488   6.939   1.480  0.1898  0.3858  0.8776
   59MOL   H23932835   1.658   6.957   1.518  0.4864 -0.8757  0.0417
   59MOL   H24032836   1.462   6.747   1.601 -1.5094  1.2641 -0.8615
   59MOL   H24132837   1.739   6.761   1.624 -1.3221  1.9151 -0.4408
   59MOL   H24232838   1.421   6.939   1.734 -1.5837 -1.4314  0.9034
   59MOL   H24332839   1.715   6.967   1.791 -0.5585  0.6915  1.4624
   59MOL   H24432840   1.605   7.074   1.712 -0.2722  1.5827  0.1456
   59MOL   H24532841   1.484   7.133   1.897  0.6477  0.9425 -0.3077
   59MOL   H24632842   1.753   7.115   1.994 -2.4166  1.0919  3.8560
   59MOL   H24732843   1.659   6.931   2.042  1.0758  2.2795  0.5888
   59MOL   H24832844   1.590   7.110   2.193  1.5750 -0.9950  0.1263
   59MOL   H24932845   1.418   7.078   2.162  0.3660 -0.8009  1.2812
   59MOL   H25032846   1.366   6.919   1.979 -1.1278 -1.6563  2.2785
   59MOL   H25132847   1.443   6.802   2.090  0.0407  0.3261 -0.0699
   59MOL   H25232848   1.417   6.731   1.847  0.1423  0.0272  0.1991
   59MOL   H25332849   1.591   6.739   1.882  0.9491  2.1744  0.5111
   59MOL   O25432850   1.542   6.934   2.271  0.1059  0.0684  0.2482
   59MOL   C25532851   1.437   6.933   2.361  0.3246  0.0325  0.2286
   59MOL   C25632852   1.484   6.830   2.467 -0.2180  0.1213 -0.0301
   59MOL   O25732853   1.475   6.707   2.407  0.3786  0.0749 -0.5351
   59MOL   C25832854   1.620   6.853   2.544  0.2166 -0.0143  0.0760
   59MOL   C25932855   1.670   6.724   2.601 -0.3206 -0.8750 -0.5404
   59MOL   C26032856   1.799   6.743   2.682  0.0970  0.8291  0.3464
   59MOL   O26132857   1.841   6.617   2.738 -0.3600 -0.5078  0.2940
   59MOL   C26232858   1.807   6.856   2.792  0.0317  0.1722  0.2904
   59MOL   C26332859   1.950   6.874   2.837  0.2492  0.5371  0.3541
   59MOL   C26432860   1.745   6.985   2.730  0.3255  0.5251 -0.4251
   59MOL   C26532861   1.615   6.962   2.649  0.0630 -0.2726  0.2312
   59MOL   H26632862   1.344   6.913   2.309  0.8277  2.4915 -1.7421
   59MOL   H26732863   1.420   7.024   2.420 -1.2653 -0.7330  0.9588
   59MOL   H26832864   1.405   6.825   2.541  2.0774 -3.9855  2.3092
   59MOL   H26932865   1.519   6.712   2.323  1.5009  0.1803  0.0494
   59MOL   H27032866   1.695   6.887   2.473  0.3306 -1.0940 -0.3308
   59MOL   H27132867   1.591   6.702   2.674 -1.6974  0.7785 -1.5067
   59MOL   H27232868   1.677   6.639   2.534  1.7299 -0.5924 -0.7279
   59MOL   H27332869   1.871   6.767   2.604 -0.7145  1.2205 -0.2931
   59MOL   H27432870   1.933   6.605   2.721 -0.9594 -3.0529 -1.3941
   59MOL   H27532871   1.742   6.834   2.876 -3.2630  2.1960 -1.6277
   59MOL   H27632872   1.980   6.774   2.870 -1.9163 -0.9164 -1.8599
   59MOL   H27732873   2.020   6.909   2.761  0.6189  0.1048  0.4862
   59MOL   H27832874   1.820   7.022   2.660  2.0868 -2.8002 -0.4284
   59MOL   H27932875   1.720   7.056   2.809 -0.7685 -0.0861 -0.2127
   59MOL   H28032876   1.595   7.058   2.601  1.2424  0.1314  0.5219
   59MOL   H28132877   1.543   6.938   2.727 -0.8330  0.2127 -0.4521
   59MOL   O28232878   1.953   6.959   2.952 -0.5869  0.2895 -0.4724
   59MOL   C28332879   2.076   6.954   3.022 -0.1313 -0.1326  0.5833
   59MOL   C28432880   2.056   7.034   3.152 -0.5647 -0.5104  0.0008
   59MOL   O28532881   2.034   7.171   3.122 -1.2386  0.0095 -0.0076
   59MOL   C28632882   1.936   6.981   3.231  0.0324 -0.0393 -0.6337
   59MOL   C28732883   1.874   7.073   3.344  0.4456 -0.0436  0.1273
   59MOL   C28832884   1.746   7.010   3.406 -0.6701 -0.0249  0.5940
   59MOL   O28932885   1.730   7.085   3.521  0.2632  0.1984  0.7350
   59MOL   C29032886   1.759   6.864   3.449  0.3428  0.6597  0.2041
   59MOL   C29132887   1.606   6.813   3.476  0.2770 -0.0793  0.0985
   59MOL   C29232888   1.830   6.783   3.344 -0.1623  1.1265  0.5264
   59MOL   C29332889   1.959   6.842   3.291  0.1032  1.0384  0.0215
   59MOL   H29432890   2.148   6.989   2.948 -0.0054  2.7389  2.0087
   59MOL   H29532891   2.095   6.850   3.047 -1.4877  0.0041  2.2367
   59MOL   H29632892   2.148   7.033   3.211 -0.7812 -1.4448  0.3318
   59MOL   H29732893   1.955   7.173   3.070 -0.6006 -0.6209 -1.0308
   59MOL   H29832894   1.855   6.953   3.163 -1.2798 -1.5821  1.4906
   59MOL   H29932895   1.945   7.074   3.427  0.9203 -1.8359 -0.2239
   59MOL   H30032896   1.852   7.175   3.315  0.3962  0.4919  1.9739
   59MOL   H30132897   1.665   7.027   3.334  1.5286  1.1471 -1.6722
   59MOL   H30232898   1.649   7.056   3.561 -0.1740 -0.3756 -0.5246
   59MOL   H30332899   1.819   6.861   3.540  3.5783  1.6818 -1.8475
   59MOL   H30432900   1.566   6.860   3.566  1.6503 -0.7400  1.0682
   59MOL   H30532901   1.540   6.843   3.395 -0.2126 -2.0354 -0.2519
   59MOL   H30632902   1.761   6.780   3.259 -1.7237 -0.7642  1.8109
   59MOL   H30732903   1.845   6.680   3.375  0.1006  1.2973  0.9688
   59MOL   H30832904   1.990   6.773   3.213 -0.9472  0.5427  0.0375
   59MOL   H30932905   2.045   6.853   3.357  0.7656 -0.9180 -0.4832
   59MOL   O31032906   1.618   6.679   3.492  0.1519 -0.0290 -0.1428
   59MOL   C31132907   1.501   6.602   3.481  0.4539 -0.7027 -0.3757
   59MOL   C31232908   1.552   6.460   3.461  0.0156  0.2112 -0.3451
   59MOL   O31332909   1.621   6.411   3.570 -0.5215  0.2130  0.3339
   59MOL   C31432910   1.438   6.358   3.427  0.8048 -0.5742 -0.1340
   59MOL   C31532911   1.346   6.348   3.549 -0.4349  0.4754  0.4363
   59MOL   C31632912   1.240   6.244   3.538  0.3674 -0.5461  0.5421
   59MOL   O31732913   1.185   6.231   3.673  0.1112  0.3461  0.0754
   59MOL   C31832914   1.283   6.112   3.474  0.5162  0.0817 -0.0665
   59MOL   C31932915   1.161   6.014   3.447 -0.2674  0.4220 -0.3149
   59MOL   C32032916   1.363   6.129   3.348  0.3099  0.4892 -0.1004
   59MOL   C32132917   1.480   6.221   3.379 -0.1856  0.4471 -0.0039
   59MOL   H32232918   1.442   6.645   3.399  1.8805  1.8413 -0.0973
   59MOL   H32332919   1.441   6.610   3.572  0.8485  0.1716 -0.1845
   59MOL   H32432920   1.617   6.453   3.373 -0.0619  0.0233 -0.3860
   59MOL   H32532921   1.684   6.346   3.542 -0.6443 -0.3068  1.2341
   59MOL   H32632922   1.372   6.399   3.351  0.0795 -2.8309 -0.7555
   59MOL   H32732923   1.397   6.326   3.643 -1.8974 -0.5511  0.9924
   59MOL   H32832924   1.297   6.445   3.553 -0.9258  0.1722  2.1152
   59MOL   H32932925   1.156   6.292   3.489 -0.3636 -1.5149  0.8202
   59MOL   H33032926   1.105   6.181   3.667 -1.0273  1.9388  1.6176
   59MOL   H33132927   1.355   6.066   3.542 -1.3861 -0.0222  1.9043
   59MOL   H33232928   1.141   5.967   3.543  0.5526 -0.7435 -0.7172
   59MOL   H33332929   1.067   6.066   3.426 -1.3728  0.1510  3.5999
   59MOL   H33432930   1.287   6.145   3.272 -0.2292 -1.3296  0.0387
   59MOL   H33532931   1.410   6.038   3.314  0.4500 -0.1281  1.6794
   59MOL   H33632932   1.533   6.232   3.284  0.8670 -4.8702 -0.1882
   59MOL   H33732933   1.542   6.177   3.458 -1.5540 -2.8947 -0.7221
   59MOL   O33832934   1.198   5.911   3.350 -0.0435  0.4564 -0.0712
   59MOL   C33932935   1.104   5.806   3.314  0.2278  0.6921  0.3845
   59MOL   C34032936   1.169   5.673   3.339 -0.4081 -0.6961 -0.4508
   59MOL   O34132937   1.275   5.652   3.247  0.0973  0.1533  0.6337
   59MOL   C34232938   1.219   5.639   3.480  0.3925 -0.3204 -0.2060
   59MOL   C34332939   1.119   5.664   3.598 -0.6357  0.6560  0.7850
   59MOL   C34432940   1.172   5.608   3.733  0.0763 -0.1011  1.1719
   59MOL   O34532941   1.087   5.642   3.839 -0.5115  0.1645  0.2965
   59MOL   C34632942   1.319   5.651   3.766  0.1269 -0.0498 -0.1032
   59MOL   C34732943   1.369   5.602   3.903  0.0138  0.3885  0.6726
   59MOL   C34832944   1.410   5.616   3.647 -0.1011 -0.2061 -0.1060
   59MOL   C34932945   1.361   5.680   3.512 -0.1517 -0.6031 -1.0368
   59MOL   H35032946   1.081   5.813   3.208 -1.7911 -0.9410  0.6823
   59MOL   H35132947   1.015   5.814   3.376  0.2610  1.3632  0.3499
   59MOL   H35232948   1.101   5.590   3.322 -1.4324 -0.3698  1.8675
   59MOL   H35332949   1.310   5.739   3.254 -1.0416  0.5548  1.4614
   59MOL   H35432950   1.236   5.531   3.478 -0.6383 -0.5054  0.6567
   59MOL   H35532951   1.105   5.771   3.613 -0.2233  0.7752  0.3717
   59MOL   H35632952   1.021   5.618   3.585 -0.3744  0.9490 -2.7176
   59MOL   H35732953   1.169   5.499   3.728  1.4461 -0.0758 -0.9236
   59MOL   H35832954   1.124   5.607   3.919  0.8613 -0.0498 -0.4269
   59MOL   H35932955   1.312   5.759   3.778 -1.1139 -0.0991 -0.2564
   59MOL   H36032956   1.393   5.496   3.890  0.8309  0.5245  0.9930
   59MOL   H36132957   1.463   5.655   3.922  0.8301 -0.7077 -0.1790
   59MOL   H36232958   1.415   5.508   3.637  0.2023  0.1389 -4.2497
   59MOL   H36332959   1.508   5.662   3.660  0.3592 -1.3248  0.4097
   59MOL   H36432960   1.431   5.640   3.438 -0.8893  0.6817 -2.4414
   59MOL   H36532961   1.367   5.788   3.515 -1.7325 -0.5468  2.2355
   59MOL   O36632962   1.280   5.626   4.012  0.5685  0.3076 -0.5197
   59MOL   C36732963   1.335   5.576   4.141  1.1684  0.0257 -0.0621
   59MOL   C36832964   1.221   5.580   4.252  0.5269 -0.2104  0.6016
   59MOL   O36932965   1.207   5.712   4.280 -0.6182 -0.1462 -0.2418
   59MOL   C37032966   1.085   5.531   4.205 -0.3893 -0.9754  0.1542
   59MOL   C37132967   0.963   5.562   4.293 -0.2129  0.3713 -0.0490
   59MOL   C37232968   0.834   5.527   4.232  0.0368 -0.1515  0.2811
   59MOL   O37332969   0.733   5.554   4.324 -0.1217 -0.3616 -0.2375
   59MOL   C37432970   0.831   5.378   4.180  0.5760  0.2687 -0.1509
   59MOL   C37532971   0.712   5.337   4.083  1.0936  0.0636 -0.2652
   59MOL   C37632972   0.958   5.349   4.094  0.3217 -0.0372  0.3697
   59MOL   C37732973   1.090   5.389   4.158  1.2004 -0.8974  0.5285
   59MOL   H37832974   1.414   5.644   4.172  1.7465  0.0516 -1.5870
   59MOL   H37932975   1.363   5.471   4.129  1.5099  0.3303 -2.1166
   59MOL   H38032976   1.246   5.527   4.343  1.6548 -0.1298  0.3475
   59MOL   H38132977   1.177   5.753   4.201 -0.5018  2.2421  0.8941
   59MOL   H38232978   1.058   5.583   4.112 -0.7619  0.6185  1.1223
   59MOL   H38332979   0.968   5.513   4.390  1.1295  0.7830  0.1031
   59MOL   H38432980   0.959   5.670   4.307 -2.5118  0.8766 -3.7145
   59MOL   H38532981   0.823   5.588   4.143 -0.1881  0.5022  0.7521
   59MOL   H38632982   0.658   5.498   4.319  0.3381 -0.8759 -1.6979
   59MOL   H38732983   0.819   5.313   4.266 -0.5294  0.0142 -0.4995
   59MOL   H38832984   0.624   5.370   4.138 -1.9234 -2.4480 -3.3626
   59MOL   H38932985   0.712   5.406   3.999 -0.2913  0.7799  0.3156
   59MOL   H39032986   0.956   5.405   4.000 -0.6012 -1.9479 -0.7753
   59MOL   H39132987   0.956   5.243   4.068  1.3817  0.2777 -1.1108
   59MOL   H39232988   1.174   5.363   4.094  0.7767  2.6397 -1.5808
   59MOL   H39332989   1.107   5.330   4.248 -1.2785  1.0413  2.3346
   59MOL   O39432990   0.721   5.206   4.030  0.1646  0.6876  0.4480
   59MOL   C39532991   0.641   5.191   3.907 -0.4289 -0.0748 -0.2915
   59MOL   C39632992   0.712   5.079   3.834 -0.1976 -0.4698 -0.1783
   59MOL   O39732993   0.697   4.955   3.903  0.2195  0.6126  0.1106
   59MOL   C39832994   0.659   5.056   3.694 -0.2719  0.2983  0.4495
   59MOL   C39932995   0.503   5.016   3.691 -0.8659 -0.4089  0.3032
   59MOL   C40032996   0.437   4.989   3.555  0.5600 -0.0318 -0.1366
   59MOL   O40132997   0.307   4.954   3.581  0.3477  0.2234  0.5476
   59MOL   C40232998   0.510   4.870   3.483  0.6289  0.2366  0.3110
   59MOL   C40332999   0.469   4.848   3.339  0.3702  0.7793  0.2853
   59MOL   C40433000   0.663   4.898   3.483 -0.0739 -0.1800  0.0343
   59MOL   C40533001   0.726   4.941   3.617  0.6240  0.1446  0.6741
   59MOL   H40633002   0.652   5.278   3.842  0.1040  0.4686  0.5102
   59MOL   H40733003   0.538   5.170   3.936  0.4227 -0.5521  2.5166
   59MOL   H40833004   0.819   5.100   3.826  0.4255 -2.9452  1.1028
   59MOL   H40933005   0.716   4.880   3.850 -0.9431  1.2293 -1.2015
   59MOL   H41033006   0.673   5.148   3.637 -0.1693 -0.1768 -0.2974
   59MOL   H41133007   0.480   4.925   3.747  2.2072 -1.4800 -0.0952
   59MOL   H41233008   0.449   5.095   3.743  0.2034 -0.0224  0.8430
   59MOL   H41333009   0.436   5.081   3.496  1.0724 -0.6721 -1.1604
   59MOL   H41433010   0.309   4.862   3.603 -0.3907  0.2054  0.5684
   59MOL   H41533011   0.501   4.787   3.553  2.0726  0.6435  1.0074
   59MOL   H41633012   0.364   4.818   3.340  0.7515 -0.6734  3.8914
   59MOL   H41733013   0.482   4.935   3.274  1.8502  0.8265  0.6396
   59MOL   H41833014   0.691   4.963   3.399 -0.8774  0.3224  0.1593
   59MOL   H41933015   0.717   4.806   3.461  0.8046  0.0441  1.2270
   59MOL   H42033016   0.826   4.981   3.602  0.7669 -0.7993 -1.0613
   59MOL   H42133017   0.744   4.848   3.671  0.2774 -1.1414 -1.3548
   59MOL   O42233018   0.541   4.742   3.280 -0.6020  0.1408  0.5125
   59MOL   C42333019   0.505   4.704   3.143 -0.3079  0.6763  0.1599
   59MOL   C42433020   0.609   4.605   3.095 -0.0639  0.1504  0.1228
   59MOL   O42533021   0.560   4.538   2.978 -0.4413  0.1325 -0.6443
   59MOL   C42633022   0.730   4.686   3.065 -0.0811  0.0466 -0.7533
   59MOL   C42733023   0.723   4.768   2.933  0.2487 -0.1707 -0.6096
   59MOL   C42833024   0.842   4.866   2.921 -0.5337 -0.5002 -0.3935
   59MOL   O42933025   0.824   4.941   2.803 -0.3073 -0.6521 -0.6163
   59MOL   C43033026   0.978   4.791   2.919 -0.4592 -0.3114  0.0927
   59MOL   C43133027   1.103   4.887   2.923  0.0815  0.3359  0.3796
   59MOL   C43233028   0.989   4.696   3.037 -0.6142 -1.6169  0.0125
   59MOL   C43333029   0.871   4.605   3.065 -0.3574  0.2324 -0.0820
   59MOL   H43433030   0.502   4.799   3.090  0.9225  0.9417  0.5639
   59MOL   H43533031   0.402   4.667   3.145 -0.7171  1.4158 -3.6066
   59MOL   H43633032   0.621   4.532   3.174  1.0595  1.1667  0.8942
   59MOL   H43733033   0.597   4.451   2.977  0.6206  0.5501  0.8106
   59MOL   H43833034   0.748   4.762   3.141 -0.1948 -0.9656  0.2936
   59MOL   H43933035   0.730   4.689   2.858  0.9351  0.0538 -0.7849
   59MOL   H44033036   0.624   4.813   2.919  1.3893  1.8470 -2.5617
   59MOL   H44133037   0.835   4.930   3.009  2.8628 -3.7463  2.4470
   59MOL   H44233038   0.734   4.965   2.820 -0.5066 -1.4805 -0.4761
   59MOL   H44333039   0.989   4.725   2.833 -3.9401 -1.0663  0.1563
   59MOL   H44433040   1.097   4.948   2.833  1.5126 -1.0058 -0.6709
   59MOL   H44533041   1.082   4.960   3.001 -0.2852  0.3395  0.2810
   59MOL   H44633042   1.000   4.763   3.123 -2.8300 -0.7222 -0.3673
   59MOL   H44733043   1.082   4.641   3.020 -0.2251 -0.3535 -2.1072
   59MOL   H44833044   0.898   4.561   3.161 -0.7895  2.2404  1.0068
   59MOL   H44933045   0.857   4.529   2.988 -2.9200  0.2062  0.3665
   59MOL   O45033046   1.233   4.827   2.935 -0.1987 -0.2470 -0.0139
   59MOL   C45133047   1.274   4.764   2.808 -0.4131 -0.0802 -0.2211
   59MOL   C45233048   1.389   4.671   2.848  0.3080  0.6231 -0.6852
   59MOL   O45333049   1.421   4.610   2.724  0.1894 -0.5371 -0.1726
   59MOL   C45433050   1.516   4.745   2.907 -0.2522  0.0734  0.1901
   59MOL   C45533051   1.582   4.837   2.805  0.1126  0.1054 -0.5754
   59MOL   C45633052   1.714   4.902   2.862  0.7902  0.0689  0.6155
   59MOL   O45733053   1.753   5.008   2.786  0.0890  0.1300  0.7705
   59MOL   C45833054   1.825   4.795   2.883  0.9760 -0.1553  0.4660
   59MOL   C45933055   1.960   4.848   2.917 -0.0246  0.1901  0.1500
   59MOL   C46033056   1.765   4.703   2.991  0.3189 -0.2729 -0.4993
   59MOL   C46133057   1.627   4.639   2.954 -0.6642 -0.1891 -0.0212
   59MOL   H46233058   1.298   4.833   2.727  0.4868 -0.2341 -0.0806
   59MOL   H46333059   1.201   4.692   2.771 -1.5826  0.3425  1.1976
   59MOL   H46433060   1.341   4.596   2.911 -0.2757  0.0023 -1.8475
   59MOL   H46533061   1.361   4.538   2.713 -0.0615 -0.2560 -0.7222
   59MOL   H46633062   1.499   4.806   2.996  0.6672  1.0848 -0.3102
   59MOL   H46733063   1.609   4.777   2.717  1.3859  0.3328 -0.3535
   59MOL   H46833064   1.508   4.907   2.767  1.0528  1.3759 -0.0843
   59MOL   H46933065   1.688   4.944   2.959  0.0926 -0.0311  0.4737
   59MOL   H47033066   1.771   4.970   2.701  1.5354  2.0142  0.1850
   59MOL   H47133067   1.835   4.744   2.788  0.1975  1.0900 -0.2912
   59MOL   H47233068   1.984   4.923   2.843  0.4134  1.2488  1.3476
   59MOL   H47333069   1.954   4.903   3.011  0.0305  2.8015 -1.3281
   59MOL   H47433070   1.748   4.753   3.086  3.1314  0.6430 -0.4233
   59MOL   H47533071   1.832   4.623   3.024 -0.9048 -1.6673 -1.3403
   59MOL   H47633072   1.587   4.604   3.049  2.3095 -2.1666  0.5434
   59MOL   H47733073   1.649   4.553   2.892  0.0760 -0.8292  1.1107
   59MOL   O47833074   2.058   4.742   2.916 -0.1974 -0.0659 -0.0779
   59MOL   C47933075   2.188   4.785   2.945 -0.0390  0.3793 -0.0103
   59MOL   C48033076   2.271   4.658   2.945  0.2124  0.0922  0.2569
   59MOL   O48133077   2.306   4.628   2.809  0.2117 -0.0555 -0.1434
   59MOL   C48233078   2.394   4.655   3.038 -0.6417  1.0157  0.4721
   59MOL   C48333079   2.501   4.755   3.000 -0.3309 -0.5626  0.2141
   59MOL   C48433080   2.634   4.743   3.071 -0.3959 -0.1364  0.3890
   59MOL   O48533081   2.720   4.834   3.004 -0.0816 -0.2606 -0.2268
   59MOL   C48633082   2.684   4.595   3.060  0.2748 -0.0410  0.3355
   59MOL   C48733083   2.815   4.570   3.135 -0.0076 -0.1683 -0.0330
   59MOL   C48833084   2.582   4.494   3.101 -0.7568  0.7423 -0.6663
   59MOL   C48933085   2.454   4.510   3.028 -0.4115 -0.0201  0.0460
   59MOL   H49033086   2.187   4.845   3.036 -4.1246  0.2292  0.1139
   59MOL   H49133087   2.232   4.840   2.862  0.9328  0.4614  0.5535
   59MOL   H49233088   2.217   4.574   2.989  1.0200 -0.3268  0.4685
   59MOL   H49333089   2.234   4.624   2.748  1.7943  0.9887 -2.1261
   59MOL   H49433090   2.364   4.666   3.143  0.5422  0.9968  0.8148
   59MOL   H49533091   2.530   4.743   2.896  3.5862 -2.1491  1.3994
   59MOL   H49633092   2.452   4.853   3.000 -0.1109 -0.4508  0.6412
   59MOL   H49733093   2.615   4.766   3.176  0.7965  1.6071  0.2516
   59MOL   H49833094   2.806   4.797   3.019  0.1233 -1.4157 -3.7621
   59MOL   H49933095   2.700   4.578   2.954  1.0683  1.7033  0.1441
   59MOL   H50033096   2.818   4.609   3.237  0.7304  0.0849 -0.1418
   59MOL   H50133097   2.841   4.465   3.139 -0.4291 -0.3435 -1.5226
   59MOL   H50233098   2.572   4.493   3.210  0.4335 -0.3491 -0.5565
   59MOL   H50333099   2.617   4.394   3.078 -1.5246  0.0834  0.9401
   59MOL   H50433100   2.385   4.434   3.063  0.3995  0.6476  3.2370
   59MOL   H50533101   2.487   4.483   2.928  1.8120 -0.8624  0.9699
   59MOL   O50633102   2.917   4.641   3.061  0.5709  0.5132 -0.1283
   59MOL   C50733103   3.044   4.634   3.116  0.4174 -0.4989 -0.2774
   59MOL   C50833104   3.135   4.662   2.997  0.5353 -0.0203  0.5854
   59MOL   O50933105   3.156   4.532   2.943 -0.2092  0.0249 -0.2450
   59MOL   C51033106   3.086   4.744   2.879 -0.5552  0.2324  0.1604
   59MOL   C51133107   3.183   4.747   2.761  0.0257 -0.0351 -0.5431
   59MOL   C51233108   3.122   4.826   2.648  0.2563 -0.3523 -0.4562
   59MOL   O51333109   3.233   4.826   2.551  0.5788 -0.1020 -0.4847
   59MOL   C51433110   3.093   4.972   2.685  0.3070  0.1789  0.4782
   59MOL   C51533111   3.029   5.058   2.569 -0.6141 -0.3782  0.6648
   59MOL   C51633112   2.998   4.978   2.808  0.3465 -0.8794  0.7305
   59MOL   C51733113   3.050   4.887   2.921 -0.1837 -0.6907 -0.4457
   59MOL   H51833114   3.060   4.536   3.162  0.0687 -0.0876  0.7577
   59MOL   H51933115   3.045   4.712   3.192  1.0533 -0.4161 -0.3677
   59MOL   H52033116   3.232   4.701   3.025  0.3121  0.2434  0.9981
   59MOL   H52133117   3.224   4.538   2.878 -0.6678 -0.0161 -0.7293
   59MOL   H52233118   2.996   4.692   2.849  0.6550 -2.6694  1.3814
   59MOL   H52333119   3.275   4.796   2.795 -1.0024  1.0495  0.7555
   59MOL   H52433120   3.204   4.644   2.734 -0.1219 -0.1140 -0.3650
   59MOL   H52533121   3.032   4.782   2.605 -0.7544 -1.2791  2.5003
   59MOL   H52633122   3.305   4.868   2.596 -0.2460  0.0270  0.7593
   59MOL   H52733123   3.185   5.025   2.710  0.4511 -0.0479  0.4305
   59MOL   H52833124   3.105   5.052   2.490  1.7487 -0.6441  2.8835
   59MOL   H52933125   2.927   5.033   2.539 -1.0198  1.2088  0.6874
   59MOL   H53033126   2.895   4.947   2.792  0.1062 -0.6307  1.7561
   59MOL   H53133127   3.008   5.080   2.845  0.9651 -0.8194  0.4208
   59MOL   H53233128   2.976   4.885   3.001 -0.4898 -0.5333 -0.7259
   59MOL   H53333129   3.135   4.934   2.971  0.1023 -0.4753 -1.1227
   59MOL   O53433130   3.014   5.190   2.621  0.1619  0.0528 -0.2476
   59MOL   C53533131   3.002   5.285   2.528 -0.5024 -1.1802  0.4461
   59MOL   C53633132   3.140   5.361   2.520  0.1065  0.0566 -0.7046
   59MOL   O53733133   3.105   5.484   2.460  0.1612  0.5813  0.3796
   59MOL   C53833134   3.215   5.387   2.654  0.2142 -0.5388 -0.4901
   59MOL   C53933135   3.127   5.450   2.763  0.6319 -0.5601 -0.3029
   59MOL   C54033136   3.214   5.463   2.890 -0.4939 -0.5741  0.3129
   59MOL   O54133137   3.137   5.523   2.995  0.1314  0.3130 -0.8950
   59MOL   C54233138   3.324   5.568   2.862  0.0379  0.3726  0.8172
   59MOL   C54333139   3.413   5.605   2.977  0.2343  0.3759  0.0240
   59MOL   C54433140   3.418   5.517   2.753 -0.2422  0.1289  0.3191
   59MOL   C54533141   3.343   5.470   2.623  0.1555  0.9984 -0.1474
   59MOL   H54633142   2.926   5.352   2.570  0.9969  0.3622  0.7517
   59MOL   H54733143   2.965   5.257   2.429  0.2200 -1.1718  0.1686
   59MOL   H54833144   3.202   5.294   2.460 -3.1369 -2.4473 -1.3716
   59MOL   H54933145   3.096   5.543   2.533  0.0526  1.4266 -0.3156
   59MOL   H55033146   3.243   5.288   2.688  0.9814  0.1180  0.8164
   59MOL   H55133147   3.095   5.547   2.727 -0.2586 -0.6949  0.1143
   59MOL   H55233148   3.037   5.396   2.792  1.0176 -0.9799  0.1337
   59MOL   H55333149   3.254   5.365   2.914 -2.3906 -1.8360 -1.4941
   59MOL   H55433150   3.199   5.535   3.066 -1.9555  1.9149  0.7384
   59MOL   H55533151   3.270   5.655   2.826 -0.2406  0.7792  2.1972
   59MOL   H55633152   3.355   5.642   3.062 -0.2738  0.1835 -0.2412
   59MOL   H55733153   3.457   5.511   3.011 -0.0161  0.4561  0.5848
   59MOL   H55833154   3.460   5.420   2.781 -0.8546 -0.6816 -1.4801
   59MOL   H55933155   3.490   5.594   2.725  0.5004  0.1330  2.1684
   59MOL   H56033156   3.401   5.407   2.556 -3.1795 -2.6651  0.2764
   59MOL   H56133157   3.319   5.563   2.570  0.1830  2.1081  1.7287
   59MOL   H56233158   3.482   5.684   2.948  0.1998 -0.5636 -2.7095
   60MOL     O133159   7.621   6.867   0.089 -0.0132 -0.7522  0.1443
   60MOL     C233160   0.041   6.954   0.189 -0.7768  0.0983  0.5024
   60MOL     C333161   0.186   6.926   0.228 -0.6266  0.0286 -0.9888
   60MOL     O433162   0.279   6.969   0.127  0.2351  0.2032  0.1738
   60MOL     C533163   0.225   6.999   0.365  0.4446  0.0038  0.7719
   60MOL     C633164   0.375   6.982   0.392  0.0635  0.6044 -0.2084
   60MOL     C733165   0.418   7.056   0.521 -0.0981 -0.2474  0.3113
   60MOL     O833166   0.549   7.016   0.546  0.8573 -0.2135  0.2575
   60MOL     C933167   0.332   7.022   0.642  0.7680  0.0209 -0.8013
   60MOL    C1033168   0.363   7.108   0.760 -0.4615 -0.9635 -0.2582
   60MOL    C1133169   0.182   7.034   0.602 -0.2605  0.2055  0.0657
   60MOL    C1233170   0.146   6.946   0.489 -0.1508  0.0033  1.0122
   60MOL    H1333171   7.602   6.951   0.274 -0.8234  1.0727  0.5001
   60MOL    H1433172   0.036   7.054   0.147  0.5065  0.0087  0.1092
   60MOL    H1533173   0.213   6.821   0.237 -0.1611  0.2290  0.1128
   60MOL    H1633174   0.281   6.898   0.064 -0.0508  1.1520 -0.9146
   60MOL    H1733175   0.210   7.107   0.365  1.2224  0.1077  0.8943
   60MOL    H1833176   0.419   6.883   0.384  0.9113  1.0772 -1.6726
   60MOL    H1933177   0.428   7.033   0.311  1.0713 -1.6751 -1.0295
   60MOL    H2033178   0.412   7.164   0.506  0.9728 -0.5284 -2.4994
   60MOL    H2133179   0.605   7.081   0.507 -0.4488  1.1235  0.5949
   60MOL    H2233180   0.351   6.917   0.666  1.2383 -0.3720 -2.7852
   60MOL    H2333181   0.469   7.110   0.781 -0.8153 -0.5502  1.5269
   60MOL    H2433182   0.350   7.213   0.730  0.2483 -1.3791 -2.1150
   60MOL    H2533183   0.149   7.138   0.590  0.9431  0.6392  0.5027
   60MOL    H2633184   0.126   7.000   0.690  2.4093 -1.5262  1.1377
   60MOL    H2733185   0.039   6.947   0.466  0.1346  1.2856 -0.3246
   60MOL    H2833186   0.179   6.843   0.504 -1.4092 -0.6497 -0.5728
   60MOL    H2933187   0.039   6.893   0.011 -1.2962 -0.2228 -0.4727
   60MOL    O3033188   0.268   7.095   0.872 -0.1898 -0.3200  0.2543
   60MOL    C3133189   0.321   7.014   0.977 -0.6501  0.1791 -0.2264
   60MOL    C3233190   0.208   6.958   1.055  0.6778  0.1034 -0.6065
   60MOL    O3333191   0.132   7.065   1.106 -0.4070 -0.3073 -0.4505
   60MOL    C3433192   0.115   6.855   0.983  0.0980  0.5517 -0.0177
   60MOL    C3533193   7.628   6.804   1.080  0.3960 -0.6430 -0.4915
   60MOL    C3633194   7.543   6.705   1.005  0.6877  0.6517  0.0875
   60MOL    O3733195   7.438   6.665   1.090 -0.2250  0.0394  0.0661
   60MOL    C3833196   7.619   6.589   0.951  0.3352  0.9701 -0.8110
   60MOL    C3933197   7.535   6.494   0.864 -0.2048 -0.0261 -0.0394
   60MOL    C4033198   0.118   6.629   0.870 -0.1983  0.0451 -0.4754
   60MOL    C4133199   0.206   6.735   0.937 -0.2295  0.0929  0.4227
   60MOL    H4233200   0.387   7.076   1.037 -1.7780 -0.2344  1.4543
   60MOL    H4333201   0.396   6.946   0.936 -0.0396  0.0193  1.1401
   60MOL    H4433202   0.250   6.901   1.138 -1.0094  2.6521  2.1401
   60MOL    H4533203   0.122   7.123   1.032  0.7605  1.1323  0.5036
   60MOL    H4633204   0.078   6.899   0.890  0.5914  1.3038  0.1459
   60MOL    H4733205   0.041   6.763   1.171  1.4979 -0.3919 -0.8790
   60MOL    H4833206   7.560   6.882   1.115  1.3070 -0.2221  0.3672
   60MOL    H4933207   7.499   6.754   0.918 -2.2002  0.0381  1.1137
   60MOL    H5033208   7.383   6.741   1.100 -0.9692 -0.6148  0.9700
   60MOL    H5133209   0.025   6.540   1.042 -2.5275  0.1776 -0.0655
   60MOL    H5233210   7.447   6.456   0.915 -0.4331  0.3412 -0.1558
   60MOL    H5333211   7.499   6.545   0.774 -0.4981  0.3562  0.2990
   60MOL    H5433212   0.095   6.663   0.769  1.3418  0.3895 -0.7296
   60MOL    H5533213   0.168   6.533   0.856  0.1576  0.0997  0.4030
   60MOL    H5633214   0.289   6.766   0.873  0.4590  0.4542  1.4743
   60MOL    H5733215   0.258   6.692   1.022  0.2488  2.0272  1.1419
   60MOL    O5833216   7.612   6.387   0.826 -0.4266  0.3286  0.3129
   60MOL    C5933217   7.616   6.273   0.914  0.3605  0.0797  0.1063
   60MOL    C6033218   0.107   6.193   0.876  0.4700  0.2959 -0.5116
   60MOL    O6133219   0.133   6.087   0.962  0.0083 -0.0370 -0.1333
   60MOL    C6233220   0.119   6.132   0.731  0.9687  0.2005  0.0994
   60MOL    C6333221   0.037   6.004   0.712 -0.4018 -0.2972  0.1334
   60MOL    C6433222   0.052   5.941   0.574 -1.1469  0.8701  0.1849
   60MOL    O6533223   7.628   5.809   0.570 -0.1452  0.3680  0.1971
   60MOL    C6633224   0.196   5.925   0.525  0.2146  0.0561 -0.0691
   60MOL    C6733225   0.202   5.883   0.376 -0.0485  0.3974 -0.1750
   60MOL    C6833226   0.278   6.052   0.551  0.6290  0.1602 -0.1915
   60MOL    C6933227   0.264   6.099   0.696  0.1844 -0.3379 -0.2887
   60MOL    H7033228   7.527   6.210   0.914  1.1706 -1.0747  0.0788
   60MOL    H7133229   7.622   6.304   1.018  0.9077  1.1649 -0.2389
   60MOL    H7233230   0.187   6.266   0.889 -0.6407  1.4678 -0.1827
   60MOL    H7333231   0.224   6.086   0.987 -0.4059 -0.0935  1.4412
   60MOL    H7433232   0.075   6.204   0.661  0.2532 -0.8500 -0.5478
   60MOL    H7533233   0.075   5.931   0.784  0.1312 -0.4089 -0.2655
   60MOL    H7633234   7.562   6.027   0.734 -0.4150 -1.6791  1.6243
   60MOL    H7733235   0.006   5.993   0.490 -0.4988 -0.5024 -1.0507
   60MOL    H7833236   7.580   5.805   0.489  1.8584 -1.9688 -0.9308
   60MOL    H7933237   0.243   5.845   0.582 -0.1764 -0.0026  0.1683
   60MOL    H8033238   0.160   5.784   0.359  1.1828 -0.0034 -0.9070
   60MOL    H8133239   0.145   5.953   0.314 -0.2494  0.6327  0.2768
   60MOL    H8233240   0.241   6.126   0.481  1.0348  1.1607  0.6471
   60MOL    H8333241   0.382   6.030   0.525  0.7659  0.6033 -0.0119
   60MOL    H8433242   0.330   6.186   0.697  0.7761 -0.7741  3.6438
   60MOL    H8533243   0.312   6.032   0.767  0.1556 -1.3559 -1.2245
   60MOL    O8633244   0.339   5.892   0.341  0.5629  0.6011  0.0940
   60MOL    C8733245   0.366   5.899   0.197 -0.5206  0.5178 -0.7089
   60MOL    C8833246   0.517   5.930   0.193 -0.1474  0.1149 -0.1925
   60MOL    O8933247   0.579   5.805   0.204 -0.0967  0.2583  0.2488
   60MOL    C9033248   0.583   5.991   0.067  0.3549 -0.7936 -0.3701
   60MOL    C9133249   0.559   6.148   0.057 -0.5149 -0.1088 -0.3259
   60MOL    C9233250   0.622   6.205   7.554 -0.0524  0.1771 -0.1106
   60MOL    O9333251   0.567   6.339   7.546  0.3089  0.3076 -0.0083
   60MOL    C9433252   0.586   6.127   7.433 -0.1564 -0.5328  0.6901
   60MOL    C9533253   0.660   6.186   7.307 -0.6801 -0.2834 -0.6899
   60MOL    C9633254   0.614   5.978   7.443 -0.1887 -0.0284  0.1307
   60MOL    C9733255   0.542   5.918   7.565 -0.2037 -0.8631  0.4418
   60MOL    H9833256   0.309   5.982   0.155  0.1251  0.3342 -2.0025
   60MOL    H9933257   0.339   5.809   0.142 -0.2358  0.4600 -0.7545
   60MOL   H10033258   0.548   5.988   0.280  1.0573  1.2858 -1.3707
   60MOL   H10133259   0.534   5.759   0.274  0.5534 -0.9538 -0.1145
   60MOL   H10233260   0.689   5.976   0.089  0.4373  0.1955 -0.0771
   60MOL   H10333261   0.452   6.168   0.055 -0.3654  0.5666 -1.7974
   60MOL   H10433262   0.601   6.198   0.145 -0.0779 -1.5570  0.3069
   60MOL   H10533263   0.730   6.208   7.567 -0.2825 -2.0831  2.9080
   60MOL   H10633264   0.474   6.325   7.548  0.1233  1.4317 -0.1918
   60MOL   H10733265   0.480   6.144   7.414 -0.8029 -2.1249  2.6721
   60MOL   H10833266   0.651   6.293   7.286 -0.8030 -0.1149  0.1831
   60MOL   H10933267   0.769   6.177   7.313 -0.5851  0.2968 -1.5407
   60MOL   H11033268   0.721   5.960   7.432  0.2627  2.5932 -0.0427
   60MOL   H11133269   0.580   5.934   7.350  0.0942  1.1071 -0.5252
   60MOL   H11233270   0.550   5.810   7.572  0.1522 -0.7244  2.3846
   60MOL   H11333271   0.437   5.943   7.549 -0.1790 -1.3652 -0.5867
   60MOL   O11433272   0.613   6.115   7.197  0.3413 -0.0383 -0.5660
   60MOL   C11533273   0.703   6.117   7.093 -0.4206 -0.2906  0.0904
   60MOL   C11633274   0.635   6.062   6.964  0.1541 -0.4453 -0.2117
   60MOL   O11733275   0.654   5.923   6.974 -0.6335  0.8361  0.1851
   60MOL   C11833276   0.484   6.104   6.955 -0.3425  0.3290 -0.2083
   60MOL   C11933277   0.391   6.007   7.044  0.4551  0.8221 -0.5285
   60MOL   C12033278   0.241   6.023   7.017 -0.0888 -0.2320  0.2776
   60MOL   O12133279   0.173   5.927   7.081  0.5778  0.5629  0.0963
   60MOL   C12233280   0.204   6.016   6.865 -0.1747  0.1176  0.0744
   60MOL   C12333281   0.054   6.038   6.843  0.2026 -0.0844 -0.1756
   60MOL   C12433282   0.285   6.129   6.794 -0.1749 -0.7173 -0.4075
   60MOL   C12533283   0.436   6.111   6.809 -0.0944  0.2859 -1.2015
   60MOL   H12633284   0.794   6.061   7.114  1.3031  2.9716  1.6087
   60MOL   H12733285   0.738   6.218   7.072 -0.2859 -0.7140 -1.8107
   60MOL   H12833286   0.690   6.101   6.879  0.2739 -0.1888 -0.0176
   60MOL   H12933287   0.679   5.898   7.062  0.6771  0.7615 -0.2002
   60MOL   H13033288   0.482   6.209   6.985 -0.4800  0.2471  0.0733
   60MOL   H13133289   0.414   5.902   7.027  0.7066  0.4545  1.8177
   60MOL   H13233290   0.414   6.027   7.149  2.6560 -0.1613 -0.7843
   60MOL   H13333291   0.212   6.118   7.062 -1.1675 -1.0881  1.4458
   60MOL   H13433292   0.196   5.927   7.173 -0.3606  0.4148  0.3300
   60MOL   H13533293   0.224   5.914   6.836  1.4208  0.2535  0.6522
   60MOL   H13633294   0.031   6.018   6.738 -1.4755  0.1460  0.1353
   60MOL   H13733295   7.621   5.964   6.893  0.7188 -0.8405 -0.6264
   60MOL   H13833296   0.268   6.227   6.839 -1.9351 -0.9175 -0.6310
   60MOL   H13933297   0.269   6.126   6.687 -0.5594 -0.8150 -0.3463
   60MOL   H14033298   0.486   6.182   6.743  2.0585  0.8921  1.0101
   60MOL   H14133299   0.473   6.021   6.759 -0.4882 -0.9323  0.6629
   60MOL   O14233300   0.023   6.168   6.890  0.1649 -0.4812  0.1416
   60MOL   C14333301   7.538   6.220   6.827  0.2075  0.0079 -0.5249
   60MOL   C14433302   7.522   6.367   6.871  0.0587  0.2905  0.7856
   60MOL   O14533303   7.531   6.454   6.757  0.2864  0.3716  0.0207
   60MOL   C14633304   7.401   6.387   6.952 -0.8399 -0.1589  0.3332
   60MOL   C14733305   7.277   6.375   6.863 -0.1294  0.2537  0.0148
   60MOL   C14833306   7.156   6.384   6.961 -0.0109  0.0383 -0.2188
   60MOL   O14933307   7.050   6.400   6.866 -0.0517  0.2751  0.4397
   60MOL   C15033308   7.159   6.521   7.034  0.7755 -0.3398 -0.4677
   60MOL   C15133309   7.040   6.561   7.119  0.2868  0.1139  0.0515
   60MOL   C15233310   7.294   6.539   7.110  0.6550  0.7000  0.0369
   60MOL   C15333311   7.408   6.522   7.011 -0.8810 -0.3673  0.5351
   60MOL   H15433312   7.461   6.152   6.865  0.4279  0.2256  0.3310
   60MOL   H15533313   7.542   6.210   6.719 -0.4453  2.9974 -0.8545
   60MOL   H15633314   7.611   6.380   6.933  0.4074  0.5139  0.2368
   60MOL   H15733315   7.443   6.470   6.725 -0.0923 -1.9942 -0.2292
   60MOL   H15833316   7.405   6.309   7.028  1.2930 -1.1504 -0.7474
   60MOL   H15933317   7.276   6.456   6.790  2.2456  1.0578  0.8450
   60MOL   H16033318   7.265   6.282   6.807  0.9271  0.6157 -0.8339
   60MOL   H16133319   7.138   6.302   7.030  0.7975  2.0690  2.4771
   60MOL   H16233320   7.066   6.471   6.806  1.2256 -0.9286 -0.6817
   60MOL   H16333321   7.168   6.603   6.962 -1.1611  0.2802 -0.0613
   60MOL   H16433322   6.945   6.560   7.065 -1.0165  0.0476  2.3198
   60MOL   H16533323   7.039   6.481   7.193 -5.0466  0.2842  0.3686
   60MOL   H16633324   7.316   6.463   7.185 -0.1343 -0.6995 -1.1237
   60MOL   H16733325   7.305   6.638   7.156 -0.8463  1.2696 -0.7950
   60MOL   H16833326   7.506   6.543   7.054 -1.0424  0.3800  0.5402
   60MOL   H16933327   7.401   6.603   6.938  1.2670 -1.7488 -1.2876
   60MOL   O17033328   7.068   6.683   7.185 -0.4176  0.2591 -0.6140
   60MOL   C17133329   7.003   6.793   7.123 -0.5647  0.8131 -0.4928
   60MOL   C17233330   7.002   6.899   7.235 -0.3492  0.0655 -0.4853
   60MOL   O17333331   6.933   6.838   7.340 -0.1342  0.6486 -0.1403
   60MOL   C17433332   7.139   6.933   7.285  0.0010 -0.0519 -0.9207
   60MOL   C17533333   7.113   7.049   7.386  0.1155 -0.6481 -0.5562
   60MOL   C17633334   7.245   7.104   7.448  0.0277 -0.1782 -0.3909
   60MOL   O17733335   7.225   7.208   7.544  0.3116  0.6686  0.7766
   60MOL   C17833336   7.341   7.158   7.329  0.5717  0.1782  0.2375
   60MOL   C17933337   7.468   7.220   7.391 -1.2551  0.6790  0.3217
   60MOL   C18033338   7.370   7.044   7.228 -0.0387  0.2576  0.2135
   60MOL   C18133339   7.234   6.989   7.177 -0.1972  0.3291  0.0757
   60MOL   H18233340   6.900   6.769   7.097 -0.1484  0.3501 -1.7751
   60MOL   H18333341   7.050   6.820   7.028  1.0548 -1.0042 -0.2380
   60MOL   H18433342   6.957   6.993   7.202  0.5495  0.6846  0.0478
   60MOL   H18533343   6.964   6.750   7.327  0.2699  0.9954 -1.5891
   60MOL   H18633344   7.189   6.854   7.341 -1.1871 -0.4634 -0.4378
   60MOL   H18733345   7.055   7.131   7.342  0.8844  0.3681  0.3163
   60MOL   H18833346   7.042   7.006   7.456 -0.0737  0.2210 -0.2036
   60MOL   H18933347   7.299   7.023   7.495  1.2570 -0.4149 -2.1834
   60MOL   H19033348   7.311   7.239   7.567  1.6282 -0.3409 -2.4574
   60MOL   H19133349   7.295   7.245   7.283  1.4271  1.4211  1.6488
   60MOL   H19233350   7.530   7.158   7.456 -0.1050 -0.3132 -1.6744
   60MOL   H19333351   7.537   7.243   7.309 -1.2450 -0.0333  0.1292
   60MOL   H19433352   7.414   6.960   7.280  2.4146  1.9596  0.9961
   60MOL   H19533353   7.436   7.064   7.143  0.0125 -1.5067 -0.1648
   60MOL   H19633354   7.240   6.906   7.106 -1.8123  0.3279 -0.0730
   60MOL   H19733355   7.176   7.061   7.120 -1.0575  1.0772  1.8562
   60MOL   O19833356   7.449   7.336   7.470 -0.0147 -0.3291  0.2032
   60MOL   C19933357   7.574   7.378   7.524  1.2625  0.0998 -0.1680
   60MOL   C20033358   7.564   7.499   7.617 -0.1389  0.2300 -0.0681
   60MOL   O20133359   7.516   7.614   7.542 -0.3234 -0.6309 -0.2747
   60MOL   C20233360   7.464   7.490   0.107 -0.5147 -0.4855 -0.5451
   60MOL   C20333361   7.492   7.613   0.192 -0.4269 -0.3989  0.1308
   60MOL   C20433362   7.417   7.611   0.326 -0.6169  0.4186 -0.1598
   60MOL   O20533363   7.463   0.092   0.401  0.2622 -0.2753 -0.2211
   60MOL   C20633364   7.437   7.481   0.404  0.4047  0.9860 -0.0518
   60MOL   C20733365   7.359   7.477   0.540  0.5939  0.0933 -0.2181
   60MOL   C20833366   7.390   7.366   0.314 -0.2530 -0.3037  0.1075
   60MOL   C20933367   7.474   7.362   0.187  0.1395 -0.1074 -0.0000
   60MOL   H21033368   0.002   7.413   7.438 -0.7350 -1.6198 -2.2689
   60MOL   H21133369   0.004   7.304   7.578 -0.0169 -0.2121  0.8515
   60MOL   H21233370   0.034   7.537   0.009  0.3159 -1.0425  0.1331
   60MOL   H21333371   7.436   7.597   7.494  0.8763  2.0819 -3.4078
   60MOL   H21433372   7.360   7.495   0.074 -0.2951  0.4578 -1.1166
   60MOL   H21533373   7.599   7.609   0.210 -0.3128 -1.8304 -0.8223
   60MOL   H21633374   7.468   0.076   0.140 -1.0046 -0.3568  0.4597
   60MOL   H21733375   7.311   7.616   0.299 -0.4817  0.2714 -0.7264
   60MOL   H21833376   7.382   0.140   0.416  1.3034  1.6514 -0.6093
   60MOL   H21933377   7.542   7.473   0.431  1.0047  0.1225 -2.5530
   60MOL   H22033378   7.399   7.552   0.608 -1.2763  0.0627  0.9799
   60MOL   H22133379   7.251   7.494   0.541  0.6638  0.5522  2.5527
   60MOL   H22233380   7.283   7.362   0.295 -0.4923 -0.9402  1.5301
   60MOL   H22333381   7.406   7.274   0.370 -1.4536 -0.6557 -0.1211
   60MOL   H22433382   7.429   7.285   0.126 -2.0382  1.0068  0.1575
   60MOL   H22533383   7.575   7.332   0.216  0.4108  0.1385 -0.6853
   60MOL   O22633384   7.385   7.357   0.612  0.3181  0.2067 -0.1470
   60MOL   C22733385   7.301   7.340   0.723 -0.0037 -0.5782 -0.9472
   60MOL   C22833386   7.362   7.236   0.820 -0.3175 -0.4491  0.7426
   60MOL   O22933387   7.450   7.310   0.907  0.0312  0.0583  0.1302
   60MOL   C23033388   7.258   7.140   0.876  0.4748  0.3566 -0.4474
   60MOL   C23133389   7.324   7.063   0.992 -0.2011 -0.0975  0.8069
   60MOL   C23233390   7.213   6.982   1.063 -0.3869  0.3631 -0.1509
   60MOL   O23333391   7.282   6.911   1.160  1.0970 -0.5827  0.2270
   60MOL   C23433392   7.152   6.883   0.969  0.5238  0.1082  0.2884
   60MOL   C23533393   7.046   6.796   1.034 -0.0783 -0.2076  0.0293
   60MOL   C23633394   7.097   6.945   0.837 -0.0774 -0.0203 -0.2090
   60MOL   C23733395   7.199   7.042   0.774  0.2696 -0.2597  1.1526
   60MOL   H23833396   7.204   7.312   0.682 -0.2947  0.7278 -1.1490
   60MOL   H23933397   7.285   7.435   0.773  2.0450 -0.6152 -0.1529
   60MOL   H24033398   7.424   7.172   0.757  0.0875  0.4152  0.2565
   60MOL   H24133399   7.494   7.380   0.862 -0.0156 -0.1655 -0.2688
   60MOL   H24233400   7.188   7.213   0.917  0.9917  1.1612 -1.0094
   60MOL   H24333401   7.405   7.005   0.947 -1.5115 -2.0907  0.9470
   60MOL   H24433402   7.356   7.134   1.068 -1.5954  1.0633  0.3469
   60MOL   H24533403   7.144   7.055   1.103 -2.1656 -1.9832  1.2194
   60MOL   H24633404   7.290   6.966   1.237 -1.0527 -0.2909  0.2588
   60MOL   H24733405   7.233   6.816   0.940  1.3381  0.7051  1.1788
   60MOL   H24833406   7.018   6.730   0.951 -1.1772  1.4490 -0.9440
   60MOL   H24933407   7.097   6.732   1.106  0.2364 -1.2735 -1.1091
   60MOL   H25033408   7.001   6.995   0.849 -0.3366 -0.3546 -0.8104
   60MOL   H25133409   7.070   6.860   0.773 -1.7838  1.5802 -1.6942
   60MOL   H25233410   7.154   7.096   0.690  0.6831  0.2584  1.2535
   60MOL   H25333411   7.279   6.981   0.732 -1.1294 -0.4814 -1.3052
   60MOL   O25433412   6.930   6.863   1.082 -0.7333  0.1340 -0.1659
   60MOL   C25533413   6.849   6.782   1.163  0.8283 -0.5905  0.0979
   60MOL   C25633414   6.756   6.868   1.247 -0.2524  0.1763 -0.2421
   60MOL   O25733415   6.665   6.924   1.155  0.8399  0.3220  0.1183
   60MOL   C25833416   6.682   6.792   1.362  0.3142  0.6785  0.4392
   60MOL   C25933417   6.578   6.892   1.419 -0.0225 -0.4032  0.1509
   60MOL   C26033418   6.503   6.841   1.547  0.2949 -0.3121 -0.1379
   60MOL   O26133419   6.451   6.962   1.606 -0.3176  0.2532 -0.1384
   60MOL   C26233420   6.599   6.772   1.651  0.4410 -0.3314  0.7534
   60MOL   C26333421   6.506   6.700   1.751 -0.2824  0.0089 -0.5617
   60MOL   C26433422   6.689   6.677   1.577 -0.1907  0.2893 -0.1193
   60MOL   C26533423   6.778   6.744   1.472 -0.5938 -0.2905 -0.2185
   60MOL   H26633424   6.911   6.721   1.229  2.7402  0.9895 -0.2159
   60MOL   H26733425   6.798   6.708   1.101  0.1573 -0.2568  0.2535
   60MOL   H26833426   6.818   6.947   1.288  0.2775 -0.5834  0.4206
   60MOL   H26933427   6.716   6.943   1.078 -2.6983  3.5495 -1.5849
   60MOL   H27033428   6.630   6.704   1.325  1.5073 -0.2680  0.9744
   60MOL   H27133429   6.632   6.985   1.440 -0.5446 -0.2088  0.6373
   60MOL   H27233430   6.504   6.908   1.340  1.4108  0.6776 -1.0155
   60MOL   H27333431   6.415   6.781   1.521 -0.1746  0.1220  0.4543
   60MOL   H27433432   6.372   6.980   1.557  0.3164  1.0057 -0.8875
   60MOL   H27533433   6.662   6.848   1.697  2.3025  0.5028 -2.9812
   60MOL   H27633434   6.455   6.778   1.808  1.8807  2.7481 -2.2614
   60MOL   H27733435   6.444   6.629   1.696 -0.3270  1.0424 -1.8519
   60MOL   H27833436   6.625   6.599   1.535 -0.2377 -0.1329  0.7276
   60MOL   H27933437   6.750   6.625   1.650 -0.8569 -0.5408 -0.1453
   60MOL   H28033438   6.857   6.674   1.443 -1.0736 -1.3941  1.0794
   60MOL   H28133439   6.831   6.830   1.514 -1.8142  0.2818  0.1699
   60MOL   O28233440   6.599   6.637   1.843  0.3159 -0.3773  0.0968
   60MOL   C28333441   6.536   6.557   1.939  0.1348 -0.3988 -0.2566
   60MOL   C28433442   6.496   6.418   1.879  1.1889 -0.0264 -0.8605
   60MOL   O28533443   6.609   6.395   1.788  0.1740 -0.3538  0.1137
   60MOL   C28633444   6.480   6.306   1.989 -0.4649  0.3713  0.9269
   60MOL   C28733445   6.441   6.179   1.911  0.0068 -0.0578 -0.5592
   60MOL   C28833446   6.427   6.063   2.016 -0.8269 -0.3904 -0.3652
   60MOL   O28933447   6.383   5.950   1.942 -0.5570 -0.3097 -0.4824
   60MOL   C29033448   6.327   6.098   2.132  0.1100  0.1204  0.5182
   60MOL   C29133449   6.342   5.989   2.246  0.1960 -0.3982  0.1143
   60MOL   C29233450   6.340   6.237   2.193  0.5118  1.1107 -0.3678
   60MOL   C29333451   6.360   6.346   2.083  0.3618 -0.1028  0.3715
   60MOL   H29433452   6.443   6.604   1.973 -1.2169 -3.5750  0.5499
   60MOL   H29533453   6.603   6.550   2.024  1.6013  2.0646 -1.1602
   60MOL   H29633454   6.400   6.433   1.831  0.1981 -0.5677  0.9145
   60MOL   H29733455   6.647   6.480   1.775  2.4300 -1.1411  1.2808
   60MOL   H29833456   6.571   6.299   2.047  0.6422 -1.0122 -0.9100
   60MOL   H29933457   6.352   6.194   1.851 -0.0918 -0.3107 -0.4737
   60MOL   H30033458   6.516   6.147   1.839  2.9687  1.1457  1.8557
   60MOL   H30133459   6.531   6.045   2.043 -0.8279  0.8058  0.4795
   60MOL   H30233460   6.343   5.889   2.003 -0.4604 -0.7681 -0.8710
   60MOL   H30333461   6.225   6.096   2.093  0.9665 -1.3989 -1.7964
   60MOL   H30433462   6.440   5.993   2.294 -0.3082  1.4876  1.0306
   60MOL   H30533463   6.272   6.013   2.327 -2.7279 -0.7143 -2.2449
   60MOL   H30633464   6.428   6.220   2.255 -0.8073 -1.5395  0.8309
   60MOL   H30733465   6.255   6.245   2.260  1.5635 -1.6862  1.3649
   60MOL   H30833466   6.383   6.436   2.141 -0.4438  0.9755 -0.9427
   60MOL   H30933467   6.268   6.363   2.027 -0.4093  0.6065  1.8259
   60MOL   O31033468   6.320   5.857   2.182 -0.2550  0.5092 -0.0338
   60MOL   C31133469   6.181   5.808   2.185  0.4704 -0.3429  0.4421
   60MOL   C31233470   6.138   5.737   2.321  0.3562  0.2381  0.1910
   60MOL   O31333471   6.025   5.663   2.291  0.7054 -0.2153 -0.2763
   60MOL   C31433472   6.250   5.647   2.379  0.1302  0.2158 -0.0351
   60MOL   C31533473   6.301   5.524   2.302  0.3667 -0.7581 -0.2074
   60MOL   C31633474   6.419   5.462   2.370  0.6407 -0.0215 -0.0378
   60MOL   O31733475   6.460   5.350   2.293  0.4061  0.0228  0.3349
   60MOL   C31833476   6.384   5.421   2.515  0.6393 -0.1250  0.0617
   60MOL   C31933477   6.505   5.350   2.586  0.1817  0.4986  0.2862
   60MOL   C32033478   6.354   5.551   2.594 -0.2230 -0.3371 -0.0706
   60MOL   C32133479   6.236   5.628   2.531 -0.8883 -0.2963 -0.1284
   60MOL   H32233480   6.182   5.736   2.103  1.8701 -1.2442  1.2428
   60MOL   H32333481   6.107   5.887   2.169  0.9816  0.2582  1.0562
   60MOL   H32433482   6.107   5.810   2.396 -0.7632  1.8634 -1.8240
   60MOL   H32533483   5.958   5.729   2.287  2.3844  1.5408  0.2441
   60MOL   H32633484   6.337   5.713   2.376 -0.5697  1.2219  1.3359
   60MOL   H32733485   6.215   5.459   2.290  0.1148 -0.2106 -1.4709
   60MOL   H32833486   6.338   5.557   2.205 -1.1135 -3.3200 -1.6793
   60MOL   H32933487   6.508   5.526   2.370 -0.5781  1.7168 -0.4347
   60MOL   H33033488   6.483   5.380   2.206  0.6318  3.0061  1.3688
   60MOL   H33133489   6.298   5.354   2.513  2.0440 -2.0247  1.4870
   60MOL   H33233490   6.520   5.251   2.543 -1.6196 -0.5427  1.9462
   60MOL   H33333491   6.597   5.403   2.564 -0.1799  0.5223 -1.2119
   60MOL   H33433492   6.444   5.611   2.607 -0.9391  0.7320 -0.0759
   60MOL   H33533493   6.322   5.512   2.691 -0.2502  1.0862  0.4998
   60MOL   H33633494   6.222   5.723   2.582 -0.4281 -1.0164  1.3909
   60MOL   H33733495   6.150   5.560   2.538  0.8721 -2.6986 -1.0002
   60MOL   O33833496   6.486   5.325   2.724  0.0225 -0.5208  0.6799
   60MOL   C33933497   6.593   5.379   2.801 -0.3370 -0.0976 -0.3424
   60MOL   C34033498   6.575   5.369   2.953 -0.1846  0.1360 -0.2411
   60MOL   O34133499   6.614   5.240   2.997 -0.7100  0.1254 -0.5522
   60MOL   C34233500   6.674   5.461   3.029 -0.8798 -0.1959  0.2220
   60MOL   C34333501   6.653   5.613   3.003 -0.1628  0.4994 -0.5185
   60MOL   C34433502   6.742   5.707   3.093 -0.7277 -0.6191  0.0943
   60MOL   O34533503   6.697   5.840   3.058  0.0415  0.3841  0.0845
   60MOL   C34633504   6.890   5.679   3.053  0.6719 -0.5215 -0.4258
   60MOL   C34733505   6.993   5.760   3.126 -0.8107 -0.5935  0.0421
   60MOL   C34833506   6.914   5.529   3.082 -0.0336  0.3941  0.5827
   60MOL   C34933507   6.822   5.431   3.005 -0.6354  0.6016  0.2103
   60MOL   H35033508   6.610   5.482   2.770 -0.3812 -0.2171 -0.7670
   60MOL   H35133509   6.685   5.324   2.779  0.9365  1.5367  0.6944
   60MOL   H35233510   6.474   5.397   2.985  0.1454  1.2614 -0.1458
   60MOL   H35333511   6.560   5.174   2.955 -0.7374  1.4806 -2.6827
   60MOL   H35433512   6.645   5.438   3.132  3.3251 -1.2537  1.2832
   60MOL   H35533513   6.670   5.636   2.897  0.1032  0.9244 -0.3854
   60MOL   H35633514   6.549   5.630   3.033 -0.2393 -2.3756  1.0325
   60MOL   H35733515   6.728   5.692   3.200 -1.7677  3.2880  0.5731
   60MOL   H35833516   6.769   5.901   3.049  2.8590 -2.5669  1.7250
   60MOL   H35933517   6.895   5.682   2.944 -0.2952  0.3625 -0.4440
   60MOL   H36033518   6.985   5.869   3.131  2.3152 -0.2568 -1.1161
   60MOL   H36133519   6.995   5.731   3.231  0.9709  2.4598  0.9265
   60MOL   H36233520   6.892   5.506   3.187  0.9409  1.3313  1.0022
   60MOL   H36333521   7.019   5.511   3.060  0.2033  2.5317 -0.1347
   60MOL   H36433522   6.848   5.330   3.035 -0.9006  0.4789  0.0232
   60MOL   H36533523   6.848   5.438   2.900 -1.1684  0.3360  0.0621
   60MOL   O36633524   7.111   5.724   3.059 -0.6795  0.3485  0.2280
   60MOL   C36733525   7.157   5.829   2.966  0.3820 -0.0216 -0.5399
   60MOL   C36833526   7.251   5.753   2.869 -0.1113  0.0599 -0.8116
   60MOL   O36933527   7.155   5.661   2.810  0.2561  0.6374 -0.5872
   60MOL   C37033528   7.328   5.844   2.766  0.8436  0.1095  0.5570
   60MOL   C37133529   7.392   5.742   2.661  0.1826 -0.0118 -0.4402
   60MOL   C37233530   7.475   5.818   2.553  0.7030 -0.2949 -0.0692
   60MOL   O37333531   7.525   5.724   2.461  0.4907 -0.8603  0.4469
   60MOL   C37433532   7.586   5.892   2.615 -0.0406  0.2091 -0.1694
   60MOL   C37533533   0.042   5.955   2.507  0.1303 -0.1676  0.2249
   60MOL   C37633534   7.533   5.992   2.729 -0.0058 -0.0246  0.1434
   60MOL   C37733535   7.437   5.930   2.829  0.4176  0.0615  0.3624
   60MOL   H37833536   7.205   5.909   3.022 -0.7151  0.9966 -1.0284
   60MOL   H37933537   7.079   5.886   2.915  0.3441  0.1842 -0.2511
   60MOL   H38033538   7.320   5.700   2.934  0.9895  1.6715 -0.6537
   60MOL   H38133539   7.172   5.576   2.848 -0.0430  1.0797  0.5520
   60MOL   H38233540   7.258   5.903   2.706 -1.1425 -1.6119  1.1161
   60MOL   H38333541   7.460   5.674   2.713 -0.9368 -1.0206 -0.2525
   60MOL   H38433542   7.314   5.676   2.622 -0.6034 -1.5908  3.4924
   60MOL   H38533543   7.405   5.883   2.500 -1.9456 -2.2305  0.9778
   60MOL   H38633544   7.452   5.714   2.402 -0.1421  1.6243  0.7793
   60MOL   H38733545   0.020   5.823   2.670 -0.8727  2.0640  3.2770
   60MOL   H38833546   0.069   5.893   2.421 -1.6544  1.0315 -1.2464
   60MOL   H38933547   7.621   6.046   2.474 -2.6357 -1.5992  0.2982
   60MOL   H39033548   7.469   6.067   2.682 -1.0948 -0.4750  0.8741
   60MOL   H39133549   7.612   6.036   2.789 -0.7606  2.0563 -0.3709
   60MOL   H39233550   7.388   6.015   2.877 -2.1242  0.6947 -3.1099
   60MOL   H39333551   7.487   5.886   2.915 -0.2540 -0.0758  0.6885
   60MOL   O39433552   0.161   5.997   2.569  0.0259  0.3177  0.2131
   60MOL   C39533553   0.249   6.053   2.481 -0.2900  0.5622  0.0551
   60MOL   C39633554   0.345   5.954   2.410  0.0138 -0.9359  0.3038
   60MOL   O39733555   0.388   6.003   2.283  0.7073 -0.2706  0.2165
   60MOL   C39833556   0.456   5.891   2.492  0.0815  0.2466  1.2738
   60MOL   C39933557   0.563   5.995   2.523  0.7383  0.9680 -0.1806
   60MOL   C40033558   0.679   5.928   2.602  0.3201  0.1851 -0.1117
   60MOL   O40133559   0.772   6.023   2.642  0.2588 -0.3272 -0.4860
   60MOL   C40233560   0.742   5.804   2.526 -0.7200 -0.1747  0.0096
   60MOL   C40333561   0.849   5.727   2.603 -0.0812 -0.3303  0.0502
   60MOL   C40433562   0.638   5.704   2.471  0.4069 -0.2172  0.0148
   60MOL   C40533563   0.510   5.768   2.410 -0.5522  0.4609  0.6634
   60MOL   H40633564   0.309   6.121   2.543  0.3362  2.2628 -2.3213
   60MOL   H40733565   0.214   6.120   2.402 -0.0600 -0.6183 -1.0584
   60MOL   H40833566   0.273   5.874   2.391  0.9725 -1.6432 -0.4310
   60MOL   H40933567   0.384   5.931   2.222  0.3151 -0.2102  0.1684
   60MOL   H41033568   0.423   5.852   2.588 -0.2928  0.3473  1.1885
   60MOL   H41133569   0.593   6.035   2.426 -0.2602  1.5756 -0.2447
   60MOL   H41233570   0.523   6.084   2.570  1.5504  0.9634  0.5301
   60MOL   H41333571   0.635   5.895   2.696  0.9898 -1.9899 -0.5150
   60MOL   H41433572   0.775   6.022   2.736 -0.2072 -2.2991 -0.4686
   60MOL   H41533573   0.778   5.854   2.437  2.4643 -1.4044  0.5531
   60MOL   H41633574   0.892   5.654   2.534  0.9671  1.0216 -0.7627
   60MOL   H41733575   0.923   5.804   2.625 -0.4930  0.8258 -2.4110
   60MOL   H41833576   0.596   5.628   2.536 -3.1405  0.6201 -1.1612
   60MOL   H41933577   0.681   5.640   2.393 -0.8504  0.6122 -1.3939
   60MOL   H42033578   0.432   5.694   2.393 -0.2666  0.8057 -2.4022
   60MOL   H42133579   0.530   5.801   2.308  0.1904 -0.6475  0.4470
   60MOL   O42233580   0.787   5.657   2.716 -0.1916 -0.1084 -0.2280
   60MOL   C42333581   0.876   5.569   2.789  0.4539 -0.3239 -0.6429
   60MOL   C42433582   0.784   5.472   2.862 -0.0002 -0.0599  0.2740
   60MOL   O42533583   0.721   5.547   2.972  0.2660  0.2531  0.6034
   60MOL   C42633584   0.687   5.388   2.771 -0.2309  0.0421  0.7008
   60MOL   C42733585   0.657   5.258   2.843  0.0276 -0.0873  0.0135
   60MOL   C42833586   0.538   5.182   2.770  0.3790  0.5955  0.3118
   60MOL   O42933587   0.521   5.057   2.843  0.6039 -0.2115 -0.3453
   60MOL   C43033588   0.577   5.157   2.619  0.1031 -0.2902 -0.4701
   60MOL   C43133589   0.475   5.078   2.544  0.4699 -0.4269 -0.1593
   60MOL   C43233590   0.613   5.287   2.554 -0.1840  0.0265 -0.0439
   60MOL   C43333591   0.727   5.356   2.624 -0.6913  0.2427  0.0506
   60MOL   H43433592   0.924   5.637   2.859  0.2866  0.3867 -1.2242
   60MOL   H43533593   0.953   5.508   2.743  0.3226 -0.6263 -0.4689
   60MOL   H43633594   0.857   5.410   2.914 -0.7425 -0.7679  0.4842
   60MOL   H43733595   0.745   5.636   2.948 -1.3877  0.0984 -1.7905
   60MOL   H43833596   0.605   5.458   2.758 -0.0929  0.2747  1.0614
   60MOL   H43933597   0.744   5.195   2.861 -0.3623 -1.7628 -3.5542
   60MOL   H44033598   0.621   5.284   2.942 -2.1828  2.4098 -1.3636
   60MOL   H44133599   0.450   5.245   2.784  0.4872  0.4540  1.8002
   60MOL   H44233600   0.430   5.037   2.834  1.0135 -2.3449  0.0340
   60MOL   H44333601   0.665   5.092   2.613  0.3139  0.0037 -0.5943
   60MOL   H44433602   0.444   4.996   2.608  0.9687 -0.4951 -0.0056
   60MOL   H44533603   0.396   5.153   2.537 -0.1134 -1.0517 -0.3392
   60MOL   H44633604   0.537   5.366   2.552  0.1266  0.3981  1.9096
   60MOL   H44733605   0.640   5.275   2.449 -1.8973  0.9340 -0.6261
   60MOL   H44833606   0.753   5.447   2.571 -0.9029  0.3716  0.1695
   60MOL   H44933607   0.809   5.284   2.615 -0.1798  0.7153  0.8310
   60MOL   O45033608   0.508   5.036   2.411 -0.1114 -0.2298  0.9818
   60MOL   C45133609   0.402   4.985   2.336  0.1390  0.4487  0.4499
   60MOL   C45233610   0.438   4.998   2.188  0.1516 -0.2286 -0.6063
   60MOL   O45333611   0.381   4.887   2.117  0.6104 -0.2848 -0.6798
   60MOL   C45433612   0.380   5.123   2.125  0.4953  0.1807 -0.1784
   60MOL   C45533613   0.391   5.122   1.969 -0.5314  0.8124 -0.9524
   60MOL   C45633614   0.342   5.246   1.904  0.1875 -0.2427 -0.9273
   60MOL   O45733615   0.355   5.218   1.766  0.6477  0.0608 -0.0825
   60MOL   C45833616   0.414   5.373   1.952  0.1143  0.4903 -0.0897
   60MOL   C45933617   0.369   5.497   1.869 -0.3281  0.1412 -0.8107
   60MOL   C46033618   0.401   5.379   2.108 -0.0834 -0.1142 -0.1975
   60MOL   C46133619   0.449   5.249   2.182 -0.1338  0.0767  0.4247
   60MOL   H46233620   0.309   5.030   2.371  0.3537  1.2888 -0.0421
   60MOL   H46333621   0.391   4.882   2.368  1.4546  0.3824  0.7192
   60MOL   H46433622   0.546   4.999   2.175  0.2482 -1.1151  0.1204
   60MOL   H46533623   0.447   4.850   2.061  2.2381  3.2327 -1.2705
   60MOL   H46633624   0.273   5.117   2.144  0.6567 -1.7381  0.2558
   60MOL   H46733625   0.497   5.106   1.950  0.0484  1.1747  1.7784
   60MOL   H46833626   0.333   5.037   1.934  0.2762 -0.6654  1.2066
   60MOL   H46933627   0.236   5.257   1.927  0.2725 -1.1153 -0.0597
   60MOL   H47033628   0.434   5.261   1.737  0.9037  0.1890  0.7812
   60MOL   H47133629   0.521   5.356   1.937  0.0902  0.0337  0.2499
   60MOL   H47233630   0.398   5.482   1.765  1.2542 -0.5920 -0.2824
   60MOL   H47333631   0.261   5.513   1.876  0.1136  1.8618  3.3383
   60MOL   H47433632   0.297   5.392   2.137  0.4213  1.1516  1.1106
   60MOL   H47533633   0.445   5.475   2.137  0.3858  0.3433 -2.3405
   60MOL   H47633634   0.436   5.250   2.290  0.7525 -2.7828  0.5799
   60MOL   H47733635   0.558   5.250   2.180 -0.0964 -2.8805 -2.4764
   60MOL   O47833636   0.440   5.606   1.916  0.5700 -0.0587  0.1228
   60MOL   C47933637   0.367   5.721   1.870 -0.0200 -0.1855 -0.6417
   60MOL   C48033638   0.282   5.768   1.991 -0.6479  0.7346  0.0152
   60MOL   O48133639   0.378   5.797   2.088  0.6467  0.4599  0.1710
   60MOL   C48233640   0.181   5.883   1.976 -0.3238  1.0378 -0.0928
   60MOL   C48333641   0.263   6.016   1.957 -0.2242 -0.2990  0.8798
   60MOL   C48433642   0.168   6.130   1.943  0.2517 -0.3350  0.1582
   60MOL   O48533643   0.242   6.242   1.903 -0.3944 -0.0488 -0.7164
   60MOL   C48633644   0.080   6.155   2.063  0.1194  0.0921 -0.0725
   60MOL   C48733645   7.613   6.272   2.039  0.5897 -0.0932 -0.4622
   60MOL   C48833646   7.627   6.025   2.092 -0.6128  0.2821 -0.3514
   60MOL   C48933647   0.089   5.898   2.098 -0.4060  0.1243  0.0444
   60MOL   H49033648   0.308   5.710   1.779 -0.2696 -1.6358 -0.3203
   60MOL   H49133649   0.432   5.802   1.835 -0.2228 -0.3159 -1.3223
   60MOL   H49233650   0.225   5.680   2.021  0.9812  0.1000  1.3547
   60MOL   H49333651   0.440   5.728   2.072  0.1133 -0.0962  0.4942
   60MOL   H49433652   0.129   5.845   1.889 -0.4514 -1.8483  1.1879
   60MOL   H49533653   0.335   6.049   2.032  0.5889 -0.5560  0.2216
   60MOL   H49633654   0.324   6.020   1.867  2.1621 -0.1237  2.4504
   60MOL   H49733655   0.100   6.101   1.863 -1.6976 -0.5435  1.8496
   60MOL   H49833656   0.298   6.267   1.975 -1.0267  0.5154 -0.4119
   60MOL   H49933657   0.137   6.176   2.153 -0.7650 -4.3011  1.6131
   60MOL   H50033658   0.025   6.369   2.009  1.2498 -0.7043 -1.5404
   60MOL   H50133659   7.549   6.237   1.958 -1.1547 -1.1162  1.3175
   60MOL   H50233660   7.559   6.011   2.007 -1.3599 -0.2722  0.3340
   60MOL   H50333661   7.568   6.021   2.183 -1.9456  0.6789 -1.1762
   60MOL   H50433662   0.031   5.806   2.102  0.8709 -0.7217 -0.5837
   60MOL   H50533663   0.146   5.897   2.191 -1.3867  0.2265  0.6454
   60MOL   O50633664   7.534   6.288   2.159  0.0718  0.3596  0.7140
   60MOL   C50733665   7.426   6.380   2.143 -0.1902  0.1851 -0.2243
   60MOL   C50833666   7.308   6.326   2.222 -0.9224  0.5809  0.4310
   60MOL   O50933667   7.303   6.183   2.198 -0.0802  0.0027  0.2432
   60MOL   C51033668   7.324   6.354   2.372 -0.4237  0.0415 -0.0578
   60MOL   C51133669   7.450   6.299   2.442  0.5462  0.1175  0.3025
   60MOL   C51233670   7.460   6.352   2.588  0.3160  0.1554  0.0733
   60MOL   O51333671   7.574   6.301   2.645 -0.3065 -0.0247 -0.5475
   60MOL   C51433672   7.336   6.313   2.673 -0.2247  0.1368 -0.3131
   60MOL   C51533673   7.339   6.357   2.826 -0.1911  0.6730  0.3775
   60MOL   C51633674   7.219   6.378   2.596 -0.3701  0.6215 -0.8824
   60MOL   C51733675   7.208   6.313   2.454 -0.0077 -0.1220 -0.1141
   60MOL   H51833676   7.408   6.397   2.037  0.1439  1.4619 -0.0869
   60MOL   H51933677   7.444   6.482   2.179  0.7920  0.3556 -1.1886
   60MOL   H52033678   7.213   6.368   2.191 -0.3038  1.2282 -0.5991
   60MOL   H52133679   7.393   6.170   2.172 -0.6372  0.4596 -2.0407
   60MOL   H52233680   7.331   6.463   2.379 -2.3648  0.1347  0.8619
   60MOL   H52333681   7.432   6.192   2.451 -0.0039  0.0337 -1.5429
   60MOL   H52433682   7.547   6.313   2.395  0.7983  0.1832  0.8409
   60MOL   H52533683   7.470   6.460   2.588  0.6360  0.1312  1.5952
   60MOL   H52633684   7.554   6.314   2.736 -0.3768 -0.9994 -0.4219
   60MOL   H52733685   7.324   6.205   2.669 -2.1933  0.2512  1.6198
   60MOL   H52833686   7.369   6.460   2.842  1.5587  0.6811 -2.5353
   60MOL   H52933687   7.239   6.346   2.867 -0.5351 -3.4339 -1.2766
   60MOL   H53033688   7.225   6.486   2.589  2.3734  0.5044 -1.0834
   60MOL   H53133689   7.125   6.364   2.650  0.1337  1.4681  0.2334
   60MOL   H53233690   7.124   6.348   2.395 -0.3400 -0.1792  0.3308
   60MOL   H53333691   7.209   6.204   2.459  1.6113 -0.1377 -0.4946
   60MOL   O53433692   7.437   6.271   2.887 -0.1188  0.3588  0.2783
   60MOL   C53533693   7.517   6.329   2.992 -0.5281  0.1364  0.4417
   60MOL   C53633694   7.629   6.216   3.015 -0.3222 -0.0670  0.6768
   60MOL   O53733695   0.093   6.235   2.902  0.1620  0.6088 -0.1978
   60MOL   C53833696   0.072   6.232   3.144 -0.5708  0.2158  0.4797
   60MOL   C53933697   7.616   6.228   3.270 -0.6071 -0.3679 -0.1838
   60MOL   C54033698   0.077   6.201   3.400  0.3239  0.7689 -0.8660
   60MOL   O54133699   7.626   6.183   3.518 -0.0405 -0.4100 -0.7584
   60MOL   C54233700   0.164   6.328   3.417  0.2168  0.0864 -0.2013
   60MOL   C54333701   0.262   6.318   3.537 -0.7148 -0.3656 -0.1701
   60MOL   C54433702   0.246   6.349   3.289 -0.1411 -0.5086 -0.1751
   60MOL   C54533703   0.162   6.353   3.163 -0.0179  0.1634  0.2788
   60MOL   H54633704   7.452   6.343   3.078 -2.8304  1.0545 -1.3617
   60MOL   H54733705   7.564   6.422   2.960 -0.3801 -0.3085 -0.6733
   60MOL   H54833706   7.585   6.117   3.004  0.9133 -0.5990  0.3375
   60MOL   H54933707   0.050   6.195   2.828  0.9429  0.2072 -0.4450
   60MOL   H55033708   0.141   6.148   3.134 -1.9584 -0.7660 -1.0391
   60MOL   H55133709   7.553   6.317   3.279  2.1725  1.7204 -0.5536
   60MOL   H55233710   7.549   6.142   3.264 -0.9302 -0.1012 -0.4118
   60MOL   H55333711   0.138   6.113   3.379 -0.9772 -0.0932 -1.0740
   60MOL   H55433712   7.611   6.269   3.553 -0.5058 -0.7326 -0.1649
   60MOL   H55533713   0.100   6.415   3.429  0.3723  0.4597 -2.0151
   60MOL   H55633714   0.312   6.221   3.532  1.7859  0.8625  0.2684
   60MOL   H55733715   0.328   6.405   3.547 -0.7871 -0.3520  0.2168
   60MOL   H55833716   0.317   6.267   3.278  2.3441  1.6606 -0.6517
   60MOL   H55933717   0.306   6.440   3.294  0.5423 -0.9088 -1.1094
   60MOL   H56033718   0.226   6.355   3.074 -1.5810 -1.4724 -0.9208
   60MOL   H56133719   0.110   6.449   3.169  3.0802  1.9722 -0.8766
   60MOL   H56233720   0.206   6.326   3.630 -2.0380 -2.5760 -0.7643
   61MOL     O133721   5.215   0.733   2.564 -0.4175 -0.6003 -0.2991
   61MOL     C233722   5.213   0.595   2.530 -0.1552  0.1980  0.2877
   61MOL     C333723   5.241   0.592   2.379  0.2640  0.1934  0.0411
   61MOL     O433724   5.323   0.698   2.342 -0.4496  0.0109  0.2841
   61MOL     C533725   5.299   0.461   2.329  0.6209 -0.0203 -0.7694
   61MOL     C633726   5.447   0.441   2.368  0.2662 -0.1584 -0.7258
   61MOL     C733727   5.478   0.293   2.350  0.2232  0.0557  0.0078
   61MOL     O833728   5.603   0.256   2.412 -0.5680  0.6351 -0.0684
   61MOL     C933729   5.468   0.253   2.207 -0.3145  0.4244  0.2609
   61MOL    C1033730   5.495   0.103   2.193  0.2611 -0.1956  0.1271
   61MOL    C1133731   5.319   0.278   2.150  0.1677  0.4712  1.0085
   61MOL    C1233732   5.287   0.425   2.179  0.7268  0.6497  0.1975
   61MOL    H1333733   5.116   0.558   2.563 -0.9289  0.9259 -1.1312
   61MOL    H1433734   5.292   0.551   2.592 -0.7942 -1.2098  0.1115
   61MOL    H1533735   5.143   0.611   2.336  0.7527  0.4283 -0.9648
   61MOL    H1633736   5.407   0.688   2.384  0.0972  0.2947 -0.7090
   61MOL    H1733737   5.242   0.388   2.387  0.4114  0.4446 -0.3939
   61MOL    H1833738   5.515   0.499   2.306  0.9463 -1.0308 -0.7983
   61MOL    H1933739   5.454   0.473   2.472 -1.2493  0.0335 -0.6596
   61MOL    H2033740   5.403   0.233   2.402  1.5296 -2.6380 -1.1369
   61MOL    H2133741   5.590   0.265   2.506 -0.1619 -0.3528  0.0848
   61MOL    H2233742   5.544   0.313   2.156 -0.1021 -0.4873 -0.5100
   61MOL    H2333743   5.591   0.083   2.239 -0.2807 -1.0309  0.9335
   61MOL    H2433744   5.422   0.035   2.238  0.0171 -1.7468 -2.4706
   61MOL    H2533745   5.251   0.209   2.200 -0.0363 -0.5291 -0.5987
   61MOL    H2633746   5.305   0.248   2.046 -0.4051  0.3799  1.1136
   61MOL    H2733747   5.184   0.448   2.151  0.5339  1.2075  1.3508
   61MOL    H2833748   5.361   0.480   2.121  2.2528 -2.1062 -0.5504
   61MOL    H2933749   5.253   0.789   2.498 -0.5829 -0.3793 -0.2069
   61MOL    O3033750   5.506   0.087   2.051 -0.2812 -0.0800  0.0142
   61MOL    C3133751   5.644   0.088   1.998 -0.2194  0.4948  0.0913
   61MOL    C3233752   5.653   0.037   1.857 -0.7672 -0.1360  0.4887
   61MOL    O3333753   5.787   0.055   1.809 -0.4656  0.3123  0.2265
   61MOL    C3433754   5.628   7.511   1.853  0.2115 -0.3298  0.2005
   61MOL    C3533755   5.721   7.422   1.941 -0.6689  0.4147  0.0814
   61MOL    C3633756   5.679   7.272   1.929  0.2767 -0.2089  0.0281
   61MOL    O3733757   5.773   7.205   1.993 -0.3797  0.2430 -0.0088
   61MOL    C3833758   5.676   7.233   1.771 -0.2120  0.1079  0.3644
   61MOL    C3933759   5.607   7.089   1.766 -0.2712  0.2403  0.2503
   61MOL    C4033760   5.583   7.328   1.691 -0.8800  0.2594  1.4352
   61MOL    C4133761   5.629   7.474   1.703 -0.4693  0.4803 -1.0230
   61MOL    H4233762   5.716   0.035   2.061 -1.9470  0.2811  1.9202
   61MOL    H4333763   5.673   0.193   1.994 -2.4958  1.1674  0.5920
   61MOL    H4433764   5.586   0.086   1.787  0.9039 -1.2604 -1.9722
   61MOL    H4533765   5.840   0.053   1.887 -2.5275 -0.6291  1.6616
   61MOL    H4633766   5.531   7.495   1.898 -0.9909 -0.6697 -2.3965
   61MOL    H4733767   5.820   7.424   1.896 -0.8649 -0.7661 -0.4311
   61MOL    H4833768   5.718   7.440   2.048 -2.9670 -0.5217  0.2001
   61MOL    H4933769   5.579   7.251   1.967 -0.6236  4.9543  0.8015
   61MOL    H5033770   5.753   7.200   2.085 -0.5927  0.9757 -0.0147
   61MOL    H5133771   5.776   7.244   1.731 -0.8973  0.4791 -1.2810
   61MOL    H5233772   5.658   7.028   1.841 -0.8190 -0.5634 -0.0292
   61MOL    H5333773   5.499   7.090   1.771 -0.4101 -0.4262 -2.0827
   61MOL    H5433774   5.479   7.331   1.724 -0.8841 -0.2436  1.4639
   61MOL    H5533775   5.597   7.299   1.587  1.9703 -1.8662  2.3419
   61MOL    H5633776   5.561   7.529   1.637  1.2384 -1.0407 -4.1963
   61MOL    H5733777   5.730   7.488   1.663 -0.4666 -0.9352 -1.5463
   61MOL    O5833778   5.618   7.025   1.643 -0.3140 -0.4192 -0.3673
   61MOL    C5933779   5.737   6.956   1.635 -0.6615 -0.4582  0.2020
   61MOL    C6033780   5.758   6.921   1.484 -0.1500  0.0755  0.1984
   61MOL    O6133781   5.753   7.041   1.396  0.2760  0.3478  0.5335
   61MOL    C6233782   5.903   6.852   1.457 -0.8117  0.0268 -0.7287
   61MOL    C6333783   6.017   6.952   1.442 -0.4267 -0.6140 -1.1586
   61MOL    C6433784   6.143   6.893   1.396  0.2397 -0.0624 -0.1332
   61MOL    O6533785   6.234   7.000   1.390  0.4191  0.0110 -0.2115
   61MOL    C6633786   6.122   6.825   1.258 -0.0893  0.2369  1.0211
   61MOL    C6733787   6.260   6.780   1.184 -0.3963 -0.2177 -0.4244
   61MOL    C6833788   6.022   6.708   1.278 -0.5725 -0.1488  0.4309
   61MOL    C6933789   5.884   6.746   1.342  0.1908 -0.2632  0.0039
   61MOL    H7033790   5.735   6.862   1.690 -0.0171  0.7476  2.3358
   61MOL    H7133791   5.819   7.018   1.671  1.2355 -2.7382 -0.0542
   61MOL    H7233792   5.675   6.853   1.463  1.4907 -1.5020 -1.3566
   61MOL    H7333793   5.716   7.113   1.445 -0.9130  1.0972 -1.4030
   61MOL    H7433794   5.917   6.796   1.549  0.7716  0.3844 -0.7410
   61MOL    H7533795   5.991   7.037   1.380  0.9292 -0.2967 -1.2907
   61MOL    H7633796   6.034   7.001   1.538  0.3214 -0.2123 -1.5008
   61MOL    H7733797   6.174   6.822   1.471  0.9659 -0.1794 -0.5431
   61MOL    H7833798   6.207   7.066   1.328 -0.6676  0.3741  0.6299
   61MOL    H7933799   6.072   6.889   1.186  2.0035  0.5305 -0.1924
   61MOL    H8033800   6.324   6.866   1.166  0.4052 -0.0198  2.9027
   61MOL    H8133801   6.310   6.707   1.248 -0.1537 -1.4148 -1.9406
   61MOL    H8233802   6.080   6.631   1.329  1.1698  1.0834  0.3531
   61MOL    H8333803   5.998   6.667   1.180  0.4650  1.4187 -0.5102
   61MOL    H8433804   5.824   6.659   1.369 -1.2035  0.4582 -0.7479
   61MOL    H8533805   5.830   6.793   1.260  0.9798 -2.1890 -1.6890
   61MOL    O8633806   6.223   6.718   1.063 -0.9366  0.2686 -0.1006
   61MOL    C8733807   6.338   6.724   0.979 -0.1031 -0.2781 -0.0168
   61MOL    C8833808   6.338   6.628   0.858  0.6359  0.0441  0.1675
   61MOL    O8933809   6.437   6.658   0.765  0.4405  0.4594 -0.0682
   61MOL    C9033810   6.329   6.474   0.884 -0.0026  0.6795  0.2449
   61MOL    C9133811   6.192   6.431   0.940 -0.1379  0.0415  0.2162
   61MOL    C9233812   6.182   6.273   0.953 -0.0151 -0.0855  0.1061
   61MOL    O9333813   6.063   6.242   1.020 -0.3813 -0.7948 -0.2648
   61MOL    C9433814   6.303   6.213   1.029  0.1657 -0.1433  0.2043
   61MOL    C9533815   6.309   6.061   1.043 -0.1260 -0.6512  0.1848
   61MOL    C9633816   6.433   6.252   0.959 -0.8914  0.7419 -0.0657
   61MOL    C9733817   6.440   6.407   0.963 -0.0197  0.3787 -0.1092
   61MOL    H9833818   6.432   6.707   1.031 -0.0963 -0.4243 -0.0764
   61MOL    H9933819   6.326   6.824   0.937  0.4470  0.2688  1.1182
   61MOL   H10033820   6.245   6.647   0.803  0.5986 -1.0755 -0.1757
   61MOL   H10133821   6.410   6.620   0.683  1.4198  0.1518 -0.2548
   61MOL   H10233822   6.325   6.424   0.788  0.7271 -1.0596  1.0921
   61MOL   H10333823   6.190   6.479   1.038 -0.6876 -0.8500  0.6474
   61MOL   H10433824   6.112   6.477   0.882  0.5601  0.4517 -0.4237
   61MOL   H10533825   6.168   6.229   0.855 -2.1498 -0.7582  0.6876
   61MOL   H10633826   6.018   6.325   1.025  0.9173 -0.1577  1.3814
   61MOL   H10733827   6.313   6.260   1.127  0.3226  0.9182 -0.3097
   61MOL   H10833828   6.212   6.045   1.091 -0.1892  0.5606  0.4774
   61MOL   H10933829   6.309   5.998   0.953 -1.1024 -0.9372  0.3739
   61MOL   H11033830   6.434   6.222   0.854 -0.7105 -0.1530  0.1930
   61MOL   H11133831   6.521   6.212   1.008 -1.1487 -0.7488 -0.7813
   61MOL   H11233832   6.536   6.432   0.916  1.0548  2.3121  2.9225
   61MOL   H11333833   6.435   6.439   1.067 -0.9602  2.0007 -0.6248
   61MOL   O11433834   6.407   6.009   1.131 -1.0752 -0.0839 -0.0823
   61MOL   C11533835   6.415   5.864   1.128  0.2050 -0.3159 -0.5737
   61MOL   C11633836   6.494   5.825   1.259 -0.3538  0.1966  0.2155
   61MOL   O11733837   6.614   5.893   1.262  0.5798 -1.2942  0.0580
   61MOL   C11833838   6.418   5.838   1.394  1.0417  0.3677  0.2583
   61MOL   C11933839   6.505   5.811   1.521  0.8287  0.6903 -0.0911
   61MOL   C12033840   6.425   5.823   1.647 -0.2163  0.5318 -0.0722
   61MOL   O12133841   6.508   5.794   1.758  0.1275 -0.3590  0.0367
   61MOL   C12233842   6.304   5.727   1.645  0.7112  0.2224  0.6015
   61MOL   C12333843   6.215   5.736   1.766  0.0515 -0.5461 -0.6237
   61MOL   C12433844   6.217   5.765   1.528  0.1672  0.1321 -0.8327
   61MOL   C12533845   6.290   5.755   1.396  0.2616  0.5235 -0.2090
   61MOL   H12633846   6.462   5.829   1.036 -0.8116  1.6855 -1.8860
   61MOL   H12733847   6.318   5.815   1.137  1.3235 -2.8775 -1.8723
   61MOL   H12833848   6.517   5.720   1.240  1.0556  0.2603  1.4202
   61MOL   H12933849   6.631   5.945   1.184 -0.8590  1.4663  1.5180
   61MOL   H13033850   6.375   5.938   1.393 -0.2137 -0.0645  3.7595
   61MOL   H13133851   6.547   5.711   1.507  2.6241  1.6768 -1.9928
   61MOL   H13233852   6.594   5.872   1.531  1.0943  0.1463  0.9367
   61MOL   H13333853   6.395   5.926   1.663 -3.7206 -0.4744  0.2630
   61MOL   H13433854   6.469   5.842   1.828 -0.6085 -0.0422 -0.5869
   61MOL   H13533855   6.341   5.625   1.635 -0.3940 -0.2679  1.4936
   61MOL   H13633856   6.272   5.721   1.858  1.1957  0.0425 -1.2246
   61MOL   H13733857   6.171   5.836   1.770  0.5761 -0.3761  1.1957
   61MOL   H13833858   6.173   5.864   1.542 -2.8729 -1.2745 -0.1818
   61MOL   H13933859   6.133   5.696   1.525  0.3944 -0.1858 -0.0231
   61MOL   H14033860   6.223   5.795   1.321 -0.0197  0.2676 -0.0933
   61MOL   H14133861   6.311   5.649   1.379  1.3464  0.3157  2.2257
   61MOL   O14233862   6.116   5.626   1.772  0.2574  0.0193  0.0532
   61MOL   C14333863   5.997   5.650   1.842 -0.0428  0.2288 -0.8379
   61MOL   C14433864   5.894   5.735   1.764 -0.5311  0.0148 -0.0411
   61MOL   O14533865   5.888   5.682   1.634  0.5277 -0.1422 -0.3233
   61MOL   C14633866   5.749   5.748   1.826 -0.1537 -0.1862 -0.3527
   61MOL   C14733867   5.653   5.837   1.740  1.1370  0.2621 -0.0910
   61MOL   C14833868   5.516   5.870   1.808  0.4741 -0.3372  0.5880
   61MOL   O14933869   5.447   5.969   1.739 -0.1711 -0.0890 -0.0902
   61MOL   C15033870   5.525   5.916   1.952 -0.4122  0.2133  0.2086
   61MOL   C15133871   5.380   5.935   2.004 -0.2998  0.4564  0.7461
   61MOL   C15233872   5.603   5.812   2.032  0.2894  0.1165  0.3410
   61MOL   C15333873   5.749   5.790   1.971 -0.5960 -0.9237 -0.6591
   61MOL   H15433874   6.015   5.702   1.936 -0.0624  0.4668 -0.9647
   61MOL   H15533875   5.962   5.548   1.858  0.2276  0.3295  0.4059
   61MOL   H15633876   5.937   5.835   1.754  1.0164 -0.4263  1.8948
   61MOL   H15733877   5.980   5.682   1.611  0.6396  2.7900 -0.0704
   61MOL   H15833878   5.690   5.657   1.830  2.2514 -1.6835  1.6121
   61MOL   H15933879   5.706   5.929   1.718  0.5928  0.6093  0.0235
   61MOL   H16033880   5.628   5.782   1.649  2.0039  1.6289 -1.1793
   61MOL   H16133881   5.460   5.778   1.795 -0.7166  0.7218 -2.0681
   61MOL   H16233882   5.497   6.048   1.755 -0.9178  0.7295 -1.6415
   61MOL   H16333883   5.578   6.010   1.968  0.2713 -0.3384  1.3119
   61MOL   H16433884   5.335   6.016   1.946 -1.4127 -1.1187 -0.6420
   61MOL   H16533885   5.332   5.841   1.979  2.1379  0.2377 -3.7158
   61MOL   H16633886   5.557   5.714   2.027  1.5403 -0.5120  0.7496
   61MOL   H16733887   5.622   5.853   2.131  2.7693  1.0513 -0.4862
   61MOL   H16833888   5.794   5.713   2.034  0.2178  1.4386  1.7288
   61MOL   H16933889   5.813   5.877   1.987 -0.8881 -0.7506 -0.4224
   61MOL   O17033890   5.384   5.969   2.144  0.1720  0.0696  0.3958
   61MOL   C17133891   5.257   5.968   2.215  0.1730  0.0248 -0.1589
   61MOL   C17233892   5.298   6.015   2.359 -0.4141 -0.2391 -0.5721
   61MOL   O17333893   5.355   6.141   2.339  0.1617  0.2326  0.5078
   61MOL   C17433894   5.175   6.021   2.463 -0.5634  0.4227 -0.9731
   61MOL   C17533895   5.055   6.107   2.410 -0.1394 -0.2127  0.0599
   61MOL   C17633896   4.947   6.135   2.515  0.1347  0.8279  0.6559
   61MOL   O17733897   4.844   6.217   2.464 -0.2245  0.0580 -0.5345
   61MOL   C17833898   5.001   6.198   2.648  0.7010  0.6207  0.4740
   61MOL   C17933899   4.907   6.205   2.763  0.1822 -0.3836 -0.4388
   61MOL   C18033900   5.131   6.121   2.700  0.1975  0.4718 -0.2634
   61MOL   C18133901   5.233   6.096   2.590 -0.3699  0.2952  0.1156
   61MOL   H18233902   5.214   5.868   2.227  2.9283 -1.2115 -0.2201
   61MOL   H18333903   5.185   6.038   2.174  0.4850  0.9352  0.8419
   61MOL   H18433904   5.378   5.953   2.398  0.7581  1.9643  0.5891
   61MOL   H18533905   5.398   6.132   2.255 -1.8051 -0.2003 -0.4575
   61MOL   H18633906   5.146   5.916   2.466  0.5369  0.1368 -0.3994
   61MOL   H18733907   5.082   6.203   2.368 -1.5919 -0.2518 -0.9809
   61MOL   H18833908   5.010   6.042   2.335 -2.2175  0.5377  0.6278
   61MOL   H18933909   4.906   6.041   2.552  0.0108  0.4247 -0.5115
   61MOL   H19033910   4.802   6.178   2.389 -1.0456  2.3257 -1.3158
   61MOL   H19133911   5.046   6.293   2.618 -0.1971  0.4505 -1.5597
   61MOL   H19233912   4.824   6.272   2.738  0.6023 -0.2759 -1.5691
   61MOL   H19333913   4.868   6.104   2.773 -0.2005  0.0472  3.0138
   61MOL   H19433914   5.110   6.025   2.747  0.6308  0.8012  0.6130
   61MOL   H19533915   5.187   6.161   2.785 -1.5144  1.8961  0.2333
   61MOL   H19633916   5.317   6.038   2.627 -0.4965  0.8584  1.3200
   61MOL   H19733917   5.278   6.194   2.573  3.0069 -1.0775  0.8067
   61MOL   O19833918   4.977   6.256   2.874  0.3063  0.3407  1.1807
   61MOL   C19933919   4.914   6.244   3.000  0.3584 -0.0991 -0.3909
   61MOL   C20033920   4.994   6.334   3.100 -0.8606 -0.2927  1.2947
   61MOL   O20133921   5.130   6.297   3.091  0.5842  0.0144  0.4908
   61MOL   C20233922   4.978   6.483   3.074  0.0181 -0.4268 -0.0186
   61MOL   C20333923   5.046   6.561   3.192 -0.1693  0.5530 -0.6379
   61MOL   C20433924   5.039   6.713   3.164 -0.0731 -0.0262 -1.2510
   61MOL   O20533925   5.105   6.780   3.272  0.1365  0.4842  0.4875
   61MOL   C20633926   4.901   6.770   3.148 -0.0429 -0.2536 -0.7626
   61MOL   C20733927   4.903   6.919   3.122  0.2545  0.2194 -0.0596
   61MOL   C20833928   4.823   6.693   3.045 -0.2315 -0.3763 -0.5305
   61MOL   C20933929   4.836   6.538   3.052  0.3089  0.3753 -0.3194
   61MOL   H21033930   4.909   6.143   3.041 -1.7584  1.2010  2.7666
   61MOL   H21133931   4.818   6.295   2.995 -0.2078 -0.8876  1.6799
   61MOL   H21233932   4.957   6.321   3.202 -0.4955  0.6630  1.5508
   61MOL   H21333933   5.154   6.294   2.999  1.3688 -0.6350  0.7108
   61MOL   H21433934   5.039   6.506   2.986 -1.9014 -1.1887 -1.5826
   61MOL   H21533935   4.991   6.536   3.282  1.4282 -1.9270 -0.3063
   61MOL   H21633936   5.150   6.534   3.214 -0.9302 -1.1986  0.8792
   61MOL   H21733937   5.091   6.735   3.070 -0.1193 -0.9788 -1.5082
   61MOL   H21833938   5.050   6.791   3.349  2.8070  1.3311  2.3502
   61MOL   H21933939   4.857   6.754   3.247  0.2975  1.7598 -0.2660
   61MOL   H22033940   4.941   6.980   3.204  0.9949  0.2911 -0.4492
   61MOL   H22133941   4.963   6.935   3.032 -0.6574 -2.4549 -1.1949
   61MOL   H22233942   4.859   6.733   2.950 -2.1852 -0.0943 -1.1863
   61MOL   H22333943   4.717   6.714   3.062 -0.5639 -1.6770 -0.9643
   61MOL   H22433944   4.794   6.495   2.961  1.3823  1.3783 -1.3243
   61MOL   H22533945   4.764   6.520   3.131  0.0396  2.0987 -0.1392
   61MOL   O22633946   4.766   6.958   3.083 -0.6122 -0.1773  0.1474
   61MOL   C22733947   4.733   7.090   3.034 -0.1061  0.0638 -0.5231
   61MOL   C22833948   4.654   7.162   3.137  0.3548  0.2666  0.4553
   61MOL   O22933949   4.741   7.244   3.211  0.0598 -0.0647 -0.5311
   61MOL   C23033950   4.527   7.236   3.081  0.2595  0.1421 -0.1229
   61MOL   C23133951   4.551   7.352   2.974 -0.5076 -0.4562  0.3954
   61MOL   C23233952   4.417   7.413   2.924  0.1027 -0.7957 -0.4026
   61MOL   O23333953   4.453   7.535   2.841 -0.6486  0.1995  0.5993
   61MOL   C23433954   4.321   7.460   3.040  0.0240  0.5520  0.0996
   61MOL   C23533955   4.195   7.521   2.984  0.9653 -0.0033  0.7541
   61MOL   C23633956   4.298   7.345   3.139 -0.2142  0.1103 -0.6740
   61MOL   C23733957   4.430   7.284   3.199  0.1841 -0.2136  0.1147
   61MOL   H23833958   4.673   7.067   2.947 -2.2406 -1.0872  1.2094
   61MOL   H23933959   4.819   7.149   3.002  1.1561 -1.9762 -0.9825
   61MOL   H24033960   4.622   7.087   3.209 -0.1136 -0.0117 -0.0481
   61MOL   H24133961   4.814   7.274   3.159  2.2553  0.0530  2.4706
   61MOL   H24233962   4.474   7.156   3.029 -2.5961  0.5356  2.0685
   61MOL   H24333963   4.602   7.437   3.019  0.6190 -0.0832 -1.5484
   61MOL   H24433964   4.618   7.315   2.898 -0.9075 -1.3646  0.4817
   61MOL   H24533965   4.372   7.346   2.851  0.7164  0.1204 -1.6599
   61MOL   H24633966   4.373   7.574   2.809 -0.0770  2.1168  1.4442
   61MOL   H24733967   4.373   7.541   3.090 -0.0182 -0.7082  2.2658
   61MOL   H24833968   4.208   7.606   2.918  0.2768  0.1424  0.8017
   61MOL   H24933969   4.133   7.445   2.935  1.0365 -0.0225  0.6947
   61MOL   H25033970   4.241   7.269   3.085  0.4364  0.6802 -2.2008
   61MOL   H25133971   4.230   7.371   3.220  0.4064 -2.0423  0.5766
   61MOL   H25233972   4.404   7.208   3.273  1.4628 -1.1881 -0.4349
   61MOL   H25333973   4.485   7.365   3.247  0.5437 -1.7742  2.3877
   61MOL   O25433974   4.121   7.564   3.092  0.0165  0.4160  0.1104
   61MOL   C25533975   4.010   0.011   3.041 -0.2247  0.1749  1.7948
   61MOL   C25633976   3.899   0.039   3.143  0.3954  0.3227  0.4810
   61MOL   O25733977   3.785   7.586   3.132 -0.4330  0.4392 -0.0945
   61MOL   C25833978   3.937   0.051   3.293 -0.0979  0.1021 -0.3436
   61MOL   C25933979   3.992   7.553   3.363 -0.2096  0.0132 -0.3539
   61MOL   C26033980   4.032   7.569   3.503 -0.2371  0.0033 -0.6238
   61MOL   O26133981   4.074   7.448   3.554 -0.5885 -0.3206 -0.3110
   61MOL   C26233982   3.913   7.626   3.596 -0.4674 -0.2634 -0.9457
   61MOL   C26333983   3.957   0.019   3.742  0.4374 -0.4321  0.0682
   61MOL   C26433984   3.861   0.125   3.530 -0.1208  0.4484  0.7179
   61MOL   C26533985   3.821   0.098   3.384 -0.0049  0.0980 -0.6127
   61MOL   H26633986   3.965   7.594   2.953  0.5838  0.2092  1.3533
   61MOL   H26733987   4.061   0.105   3.017  1.5314 -1.3163 -0.6382
   61MOL   H26833988   3.865   0.138   3.114  0.0330 -0.0659 -0.4563
   61MOL   H26933989   3.810   7.504   3.172 -2.9035  0.3282  1.3456
   61MOL   H27033990   4.022   0.119   3.296  0.8141 -1.0643  0.7652
   61MOL   H27133991   3.913   7.477   3.368  2.2808 -2.6049  0.6782
   61MOL   H27233992   4.071   7.501   3.309  1.4167  1.1461  0.9029
   61MOL   H27333993   4.127   7.621   3.518 -0.0798 -0.5792  0.4408
   61MOL   H27433994   4.002   7.397   3.589 -2.0787  0.2505 -2.4757
   61MOL   H27533995   3.822   7.566   3.591 -1.3615  1.1248 -1.6075
   61MOL   H27633996   3.992   7.553   3.781 -1.8415 -0.9003  1.0751
   61MOL   H27733997   4.047   0.080   3.750 -0.0094  0.2178  0.1490
   61MOL   H27833998   3.939   0.200   3.517 -0.5661  1.0476  1.4377
   61MOL   H27933999   3.777   0.164   3.587 -1.7443 -1.3626 -0.3881
   61MOL   H28034000   3.771   0.192   3.359 -0.7092 -0.1578 -0.1972
   61MOL   H28134001   3.738   0.026   3.383  0.3671 -0.3225 -2.0421
   61MOL   O28234002   3.850   0.072   3.821  0.1207  0.3483  0.1953
   61MOL   C28334003   3.898   0.127   3.943  0.1227 -0.5791  0.3803
   61MOL   C28434004   3.776   0.205   4.000  0.3701  0.2829 -0.3763
   61MOL   O28534005   3.822   0.291   4.111 -0.8489  0.1507 -0.5213
   61MOL   C28634006   3.681   0.281   3.903  0.6472  0.5584  0.4215
   61MOL   C28734007   3.759   0.392   3.826  0.1279 -0.4781  0.4657
   61MOL   C28834008   3.663   0.452   3.716 -0.7928 -0.5481 -0.1934
   61MOL   O28934009   3.741   0.557   3.662  0.0304 -0.4296 -1.0829
   61MOL   C29034010   3.523   0.493   3.769  0.0773 -0.1825 -0.6862
   61MOL   C29134011   3.416   0.503   3.654 -0.3491 -0.5222  0.5290
   61MOL   C29234012   3.463   0.390   3.867 -0.3468 -0.6118  0.1424
   61MOL   C29334013   3.556   0.342   3.974 -0.3163 -0.1339  0.3546
   61MOL   H29434014   3.981   0.194   3.922 -1.5380  0.9395 -1.5657
   61MOL   H29534015   3.933   0.046   4.007 -0.8139 -0.8252  0.5908
   61MOL   H29634016   3.711   0.126   4.038  1.0300  1.0558  2.5499
   61MOL   H29734017   3.893   0.351   4.091 -0.2452 -0.0164  0.9891
   61MOL   H29834018   3.648   0.204   3.833  0.0963 -1.0091  2.3337
   61MOL   H29934019   3.787   0.470   3.896  2.4960 -0.1835 -0.7436
   61MOL   H30034020   3.856   0.359   3.788  0.2589 -0.7687  1.0509
   61MOL   H30134021   3.652   0.376   3.639  4.4056  0.9023 -2.5650
   61MOL   H30234022   3.763   0.615   3.733 -0.0996 -4.4909  2.4445
   61MOL   H30334023   3.528   0.584   3.828 -1.9145 -1.0565  0.8703
   61MOL   H30434024   3.323   0.535   3.701 -0.8669 -2.0785  0.5719
   61MOL   H30534025   3.445   0.576   3.578  2.1230 -0.3824  1.5430
   61MOL   H30634026   3.426   0.300   3.818 -1.2915  0.7549 -1.6938
   61MOL   H30734027   3.384   0.438   3.925 -2.4750 -2.9243 -0.7830
   61MOL   H30834028   3.509   0.263   4.031 -1.4620  0.3650  0.1101
   61MOL   H30934029   3.567   0.427   4.042  0.3944  1.7748 -2.0474
   61MOL   O31034030   3.390   0.377   3.594 -0.1804  0.2057 -0.8004
   61MOL   C31134031   3.261   0.371   3.535  0.2511  0.0290 -0.2147
   61MOL   C31234032   3.258   0.246   3.446  0.1187 -0.0205 -0.2229
   61MOL   O31334033   3.120   0.211   3.433  0.3494  0.2111  0.3151
   61MOL   C31434034   3.329   0.255   3.313 -0.2614 -0.0430  0.2043
   61MOL   C31534035   3.371   0.117   3.246 -0.8421 -0.0281  0.8676
   61MOL   C31634036   3.439   0.135   3.110  0.1508  0.3591 -0.6038
   61MOL   O31734037   3.477   0.004   3.066 -0.0192 -0.2753 -0.4897
   61MOL   C31834038   3.554   0.229   3.125 -0.5569 -0.6542 -0.0886
   61MOL   C31934039   3.643   0.246   3.004 -0.4088  0.1263  1.0802
   61MOL   C32034040   3.500   0.367   3.177 -0.6066  0.1177  0.1685
   61MOL   C32134041   3.432   0.363   3.306 -0.2477  0.1965 -0.2453
   61MOL   H32234042   3.230   0.466   3.491  2.0895  0.2102 -1.1723
   61MOL   H32334043   3.188   0.362   3.615 -1.9673 -1.9595 -2.3839
   61MOL   H32434044   3.324   0.180   3.502  0.5152 -1.3483 -2.1828
   61MOL   H32534045   3.087   0.251   3.354 -0.2650 -0.3459  0.2857
   61MOL   H32634046   3.245   0.298   3.258 -1.6326  0.5617  2.7142
   61MOL   H32734047   3.426   0.055   3.317  1.8273  1.6555  0.3599
   61MOL   H32834048   3.281   0.061   3.222  0.6640 -2.7694  1.3626
   61MOL   H32934049   3.377   0.180   3.033 -0.0468  1.0726 -0.0358
   61MOL   H33034050   3.565   7.617   3.096  0.7056  1.0894 -1.8186
   61MOL   H33134051   3.628   0.187   3.194 -1.5426 -2.4152 -0.0793
   61MOL   H33234052   3.737   0.297   3.028 -0.0688  0.5846 -1.1092
   61MOL   H33334053   3.662   0.150   2.957 -0.4451  1.0818 -0.9342
   61MOL   H33434054   3.439   0.412   3.099 -0.4755 -1.0797 -0.6315
   61MOL   H33534055   3.588   0.430   3.174  0.1737 -0.9779 -0.3199
   61MOL   H33634056   3.397   0.459   3.344  1.0738  1.3813 -1.9720
   61MOL   H33734057   3.503   0.345   3.386 -1.7679  0.4502  1.1886
   61MOL   O33834058   3.561   0.301   2.899 -0.7134 -0.4677  0.4703
   61MOL   C33934059   3.632   0.310   2.774  0.2204  0.3601 -0.6804
   61MOL   C34034060   3.547   0.377   2.669  0.8982  0.0166 -0.4416
   61MOL   O34134061   3.512   0.503   2.715 -0.1517 -0.2500  0.4200
   61MOL   C34234062   3.596   0.386   2.525  0.2837  0.3777 -0.2370
   61MOL   C34334063   3.730   0.468   2.516  0.4769  0.3934  0.2758
   61MOL   C34434064   3.781   0.478   2.369  0.3148 -0.0176 -0.0894
   61MOL   O34534065   3.893   0.564   2.373 -0.0729 -0.0666  0.7801
   61MOL   C34634066   3.665   0.551   2.284  0.0746 -0.4289 -0.5673
   61MOL   C34734067   3.714   0.566   2.142 -0.3561  0.0230  0.0737
   61MOL   C34834068   3.537   0.471   2.289 -0.6757 -0.1508  0.2046
   61MOL   C34934069   3.491   0.447   2.430  0.3040 -0.4588 -0.4528
   61MOL   H35034070   3.654   0.211   2.736  0.2785  0.3180 -0.5362
   61MOL   H35134071   3.720   0.374   2.784 -0.3583  1.0921 -0.1706
   61MOL   H35234072   3.454   0.321   2.654 -0.9044  2.0236  2.5267
   61MOL   H35334073   3.525   0.498   2.808 -1.3871 -0.5598  0.5936
   61MOL   H35434074   3.621   0.285   2.492  0.4766  1.0674 -2.3144
   61MOL   H35534075   3.723   0.566   2.564 -0.4460  1.5943 -2.2104
   61MOL   H35634076   3.804   0.417   2.578 -0.1794  2.8886  3.2431
   61MOL   H35734077   3.803   0.375   2.339  1.5976  0.1274  0.3329
   61MOL   H35834078   3.872   0.655   2.387 -3.9050 -0.4431 -1.8803
   61MOL   H35934079   3.640   0.650   2.321  0.1156 -0.2128 -1.1212
   61MOL   H36034080   3.787   0.646   2.128 -0.7695  0.1824 -1.2448
   61MOL   H36134081   3.762   0.479   2.099  0.4583  1.1501 -1.3635
   61MOL   H36234082   3.558   0.384   2.226 -0.1551 -0.2132  0.4661
   61MOL   H36334083   3.456   0.524   2.238 -2.2445 -1.8586  0.8514
   61MOL   H36434084   3.402   0.385   2.423  1.7750 -2.4463 -2.5609
   61MOL   H36534085   3.454   0.546   2.455  1.7123 -0.8325  3.3360
   61MOL   O36634086   3.607   0.589   2.049  0.0749 -0.1468 -0.3083
   61MOL   C36734087   3.555   0.723   2.047 -0.0853  0.3099 -0.5932
   61MOL   C36834088   3.427   0.714   1.966  1.0495 -0.8575  0.2593
   61MOL   O36934089   3.389   0.838   1.912 -0.3809  0.2225  0.9453
   61MOL   C37034090   3.425   0.609   1.854  0.5755  0.3576  0.1627
   61MOL   C37134091   3.507   0.644   1.736  0.5131  0.0740 -0.1316
   61MOL   C37234092   3.496   0.531   1.625  0.5391 -0.2815  0.1267
   61MOL   O37334093   3.578   0.572   1.508  0.0935 -0.2756  0.4299
   61MOL   C37434094   3.347   0.501   1.580 -0.3584  0.1597 -0.6311
   61MOL   C37534095   3.347   0.372   1.493 -0.2494 -0.7151  0.0813
   61MOL   C37634096   3.255   0.482   1.701  1.0263  0.3071 -0.0741
   61MOL   C37734097   3.275   0.589   1.809  1.1382 -0.4996  0.1606
   61MOL   H37834098   3.627   0.783   1.992  0.8408 -0.3964 -0.1802
   61MOL   H37934099   3.529   0.761   2.145  1.1224 -0.6893  0.1315
   61MOL   H38034100   3.349   0.677   2.032 -0.5403  2.3086  0.2089
   61MOL   H38134101   3.415   0.847   1.821 -2.3645  1.3818  0.4592
   61MOL   H38234102   3.460   0.511   1.887  1.9702  1.5659  2.4227
   61MOL   H38334103   3.478   0.741   1.696  0.2139  0.2534  0.5114
   61MOL   H38434104   3.610   0.652   1.768  0.8087 -3.0897 -0.0996
   61MOL   H38534105   3.540   0.439   1.662 -1.0987 -1.5115 -0.9533
   61MOL   H38634106   3.572   0.662   1.481  1.5253 -0.3551 -0.2056
   61MOL   H38734107   3.317   0.580   1.512  1.0991  1.4983  0.2204
   61MOL   H38834108   3.414   0.388   1.408 -1.7242 -0.1255 -0.9991
   61MOL   H38934109   3.380   0.282   1.544  1.7248  0.3602  0.7298
   61MOL   H39034110   3.288   0.390   1.751 -1.3140 -0.4399  0.1416
   61MOL   H39134111   3.151   0.470   1.672  0.6048  1.9720  0.7080
   61MOL   H39234112   3.216   0.564   1.897  1.1534  1.6601  0.8154
   61MOL   H39334113   3.237   0.683   1.770  1.8754 -0.3992 -0.3455
   61MOL   O39434114   3.208   0.352   1.447  0.5455 -0.3250 -0.2248
   61MOL   C39534115   3.205   0.237   1.366 -0.7456 -0.1761 -0.0589
   61MOL   C39634116   3.065   0.216   1.305  0.4665  0.9413 -0.9595
   61MOL   O39734117   3.039   0.325   1.218 -0.0251  0.5364  0.1937
   61MOL   C39834118   3.059   0.092   1.212 -0.4558  0.5840  0.4919
   61MOL   C39934119   2.937   0.076   1.121  0.5118 -0.5388  0.2772
   61MOL   C40034120   2.949   7.579   1.038 -0.0336 -0.2398  0.1347
   61MOL   O40134121   2.832   7.579   0.954 -0.1257 -0.0913 -0.1299
   61MOL   C40234122   2.960   7.455   1.123  0.3167 -0.9248  0.6002
   61MOL   C40334123   2.970   7.329   1.034 -0.6772 -0.4793 -0.0704
   61MOL   C40434124   3.077   7.464   1.220  0.5331 -0.7254  0.1030
   61MOL   C40534125   3.062   7.594   1.302 -0.5674 -0.0743  0.5004
   61MOL   H40634126   3.226   0.161   1.442 -0.6020 -0.8565 -0.7754
   61MOL   H40734127   3.280   0.239   1.288 -1.5540 -0.6630 -0.8550
   61MOL   H40834128   2.997   0.217   1.391  2.1637  1.1168  0.4214
   61MOL   H40934129   3.112   0.333   1.158 -0.0033  1.0800  0.2903
   61MOL   H41034130   3.149   0.093   1.151 -1.8200  0.3616 -1.5490
   61MOL   H41134131   2.845   0.086   1.179 -0.3416 -0.7710 -1.0309
   61MOL   H41234132   2.939   0.155   1.047 -1.2960 -0.0976  0.6907
   61MOL   H41334133   3.036   7.585   0.971 -0.2756  0.3558 -0.1305
   61MOL   H41434134   2.858   7.565   0.864  2.4377  0.2854  0.5180
   61MOL   H41534135   2.874   7.436   1.187  1.4774 -0.3792  2.3473
   61MOL   H41634136   2.891   7.327   0.959 -1.7006  3.8705  0.7197
   61MOL   H41734137   3.067   7.321   0.985 -0.3533  1.6272  0.1473
   61MOL   H41834138   3.174   7.463   1.169 -0.0253  0.5759 -1.0003
   61MOL   H41934139   3.086   7.381   1.290  1.4141 -0.0640  0.7830
   61MOL   H42034140   3.140   7.603   1.377 -1.1765  1.7887  0.9238
   61MOL   H42134141   2.966   7.596   1.354 -0.7042 -3.2950  0.4710
   61MOL   O42234142   2.953   7.228   1.129  0.3060 -0.0236 -0.0996
   61MOL   C42334143   2.979   7.101   1.079 -0.0163 -0.2692 -0.4612
   61MOL   C42434144   2.957   6.995   1.191 -0.0144 -0.1074 -0.6056
   61MOL   O42534145   2.947   6.877   1.117 -0.1834  0.1347  0.4406
   61MOL   C42634146   3.066   6.985   1.301 -0.0271 -1.0509 -0.0180
   61MOL   C42734147   3.027   6.875   1.394  0.7137 -0.6447  0.3760
   61MOL   C42834148   3.107   6.856   1.522 -0.4781 -0.3828 -0.1871
   61MOL   O42934149   3.030   6.779   1.614  0.4281  0.3476 -0.0318
   61MOL   C43034150   3.143   6.996   1.588  0.4133  0.0556 -0.8393
   61MOL   C43134151   3.234   6.979   1.713  0.3188 -0.8278  0.7140
   61MOL   C43234152   3.201   7.093   1.487 -0.3531  0.3845 -0.2280
   61MOL   C43334153   3.099   7.118   1.378 -0.2110 -0.6286  0.5548
   61MOL   H43434154   3.078   7.098   1.034 -0.7188 -0.7613 -1.9874
   61MOL   H43534155   2.914   7.074   0.996  1.4115  1.6013 -2.2516
   61MOL   H43634156   2.858   7.014   1.232 -0.8379 -1.0515 -2.1179
   61MOL   H43734157   3.038   6.864   1.093  0.5895  0.8672  2.8716
   61MOL   H43834158   3.156   6.951   1.250 -1.1239  0.4854 -3.0607
   61MOL   H43934159   2.924   6.896   1.421  1.1869 -0.7331  2.3120
   61MOL   H44034160   3.045   6.780   1.343  0.2831 -1.7188  2.1735
   61MOL   H44134161   3.193   6.791   1.507 -0.2226  0.1917 -1.2187
   61MOL   H44234162   3.052   6.812   1.699  0.0120  1.5356 -0.3702
   61MOL   H44334163   3.052   7.045   1.621 -0.3265 -2.4951  1.1271
   61MOL   H44434164   3.323   6.920   1.690 -0.1088 -1.1011 -0.2811
   61MOL   H44534165   3.253   7.083   1.741 -0.8136 -0.4557  0.1209
   61MOL   H44634166   3.293   7.061   1.438 -1.2249 -1.5073 -0.6942
   61MOL   H44734167   3.229   7.189   1.529 -1.7957  0.6118  0.2412
   61MOL   H44834168   3.133   7.185   1.299  0.2736 -0.0988  1.2045
   61MOL   H44934169   3.013   7.166   1.426 -0.3961  0.0616 -0.4551
   61MOL   O45034170   3.168   6.910   1.818  0.0123  0.6147  0.1954
   61MOL   C45134171   3.259   6.915   1.927 -0.2316  0.0666  0.5817
   61MOL   C45234172   3.219   6.829   2.049  0.9535 -0.1910 -0.2019
   61MOL   O45334173   3.118   6.905   2.113 -0.6924 -0.7767  0.2493
   61MOL   C45434174   3.155   6.692   2.013  0.2563 -0.1994 -0.3191
   61MOL   C45534175   3.090   6.624   2.136  0.0739  0.2706 -0.8249
   61MOL   C45634176   3.021   6.496   2.094  0.1771  0.0688 -0.4294
   61MOL   O45734177   2.964   6.430   2.209  0.0066  0.1939 -0.1067
   61MOL   C45834178   3.117   6.396   2.021 -0.4524 -0.1616  0.1816
   61MOL   C45934179   3.042   6.262   1.982  0.4027 -0.3373 -0.1658
   61MOL   C46034180   3.170   6.470   1.896  0.0018  0.6287  0.5080
   61MOL   C46134181   3.245   6.598   1.939 -0.2713 -0.4509  0.1151
   61MOL   H46234182   3.269   7.018   1.961  2.9553 -0.0029  0.0643
   61MOL   H46334183   3.362   6.884   1.906  0.3030  2.2185 -0.1415
   61MOL   H46434184   3.291   6.826   2.131  1.1778  2.3859 -0.2674
   61MOL   H46534185   3.053   6.914   2.045  0.7260  0.7948 -0.9149
   61MOL   H46634186   3.074   6.712   1.943 -0.1244  0.2578  0.2425
   61MOL   H46734187   3.171   6.600   2.205  0.3442  0.2150 -1.1592
   61MOL   H46834188   3.018   6.681   2.195 -0.3887 -1.5477  0.4097
   61MOL   H46934189   2.929   6.513   2.038 -1.0678  1.0301  1.8582
   61MOL   H47034190   3.038   6.431   2.267  0.9360  1.2414 -1.2705
   61MOL   H47134191   3.200   6.373   2.087  0.4268  1.2839 -0.3910
   61MOL   H47234192   3.043   6.209   2.077  0.6766  5.2118  3.1589
   61MOL   H47334193   2.937   6.273   1.954  0.9630 -1.1299 -2.7604
   61MOL   H47434194   3.081   6.492   1.836 -0.1039 -1.4033 -0.1297
   61MOL   H47534195   3.226   6.399   1.834  0.6857  0.1613  1.6494
   61MOL   H47634196   3.284   6.647   1.849 -2.4011 -1.2922 -1.3048
   61MOL   H47734197   3.329   6.566   2.000  0.2247  2.6020  1.1199
   61MOL   O47834198   3.102   6.186   1.876  0.4212 -0.0346  0.3611
   61MOL   C47934199   3.229   6.127   1.897  0.5233  0.1868  0.8487
   61MOL   C48034200   3.257   6.046   1.761  0.0045  0.2459 -0.2973
   61MOL   O48134201   3.229   6.127   1.650  0.1529  0.3361  0.0271
   61MOL   C48234202   3.398   5.989   1.740  0.1173  0.0877 -0.6036
   61MOL   C48334203   3.399   5.894   1.617  0.2399  0.0098 -0.0863
   61MOL   C48434204   3.538   5.825   1.591  0.3738  0.2609 -0.0530
   61MOL   O48534205   3.505   5.739   1.483 -0.0576  0.4775  0.0513
   61MOL   C48634206   3.572   5.733   1.714 -0.6421  0.3477 -0.0406
   61MOL   C48734207   3.697   5.660   1.687 -0.0474  0.4648  0.2714
   61MOL   C48834208   3.577   5.823   1.838  0.2727 -0.3124  0.2938
   61MOL   C48934209   3.451   5.914   1.863 -0.1975 -0.1493  0.1413
   61MOL   H49034210   3.236   6.077   1.993  0.1668  1.0048  1.3112
   61MOL   H49134211   3.300   6.210   1.901  1.0859 -0.3385  1.9586
   61MOL   H49234212   3.191   5.960   1.758  1.5025 -0.9113 -0.4440
   61MOL   H49334213   3.159   6.185   1.676  0.0903  0.9442 -1.4392
   61MOL   H49434214   3.462   6.075   1.720 -0.0761 -0.6355 -4.6718
   61MOL   H49534215   3.323   5.820   1.641 -0.4209  0.3713 -1.0369
   61MOL   H49634216   3.362   5.950   1.531  0.0620 -0.0085 -0.0213
   61MOL   H49734217   3.616   5.899   1.570  1.4606 -1.3840 -1.8968
   61MOL   H49834218   3.587   5.709   1.448 -1.0014 -0.3923 -1.4227
   61MOL   H49934219   3.494   5.658   1.731 -0.5940  0.3459  0.1705
   61MOL   H50034220   3.685   5.582   1.611  3.7795 -0.4880  0.5685
   61MOL   H50134221   3.788   5.716   1.669  0.7633 -0.8132  0.3836
   61MOL   H50234222   3.667   5.883   1.840 -0.6914  1.1393  0.4578
   61MOL   H50334223   3.593   5.764   1.928  1.9535  0.2214  0.3583
   61MOL   H50434224   3.471   5.981   1.946 -1.2881  1.3995 -0.8247
   61MOL   H50534225   3.375   5.844   1.898  0.2830 -1.2656 -0.9800
   61MOL   O50634226   3.732   5.600   1.812 -0.7384  0.1146 -0.2424
   61MOL   C50734227   3.848   5.521   1.814  0.8391 -0.1756 -0.1922
   61MOL   C50834228   3.890   5.492   1.959 -0.7940 -0.4296 -0.0729
   61MOL   O50934229   3.809   5.381   1.995  0.4165  0.5142  0.4657
   61MOL   C51034230   4.040   5.470   1.981 -0.2025  0.3022 -0.2576
   61MOL   C51134231   4.096   5.331   1.932 -0.1573  0.0922 -0.3337
   61MOL   C51234232   4.250   5.328   1.947 -1.4129 -0.0874 -0.5190
   61MOL   O51334233   4.304   5.206   1.894 -0.5376 -0.6341 -0.8615
   61MOL   C51434234   4.293   5.357   2.090 -0.4390  0.4153 -0.5135
   61MOL   C51534235   4.445   5.370   2.099 -0.2578  0.7180 -0.1693
   61MOL   C51634236   4.227   5.479   2.153 -0.0766  0.0071 -1.2817
   61MOL   C51734237   4.075   5.485   2.126  0.1995  1.0534 -0.2682
   61MOL   H51834238   3.922   5.582   1.762  0.4181  0.0539 -0.5288
   61MOL   H51934239   3.837   5.428   1.759  3.5457  0.0651 -1.2052
   61MOL   H52034240   3.862   5.580   2.018  0.3614  1.1567 -1.8461
   61MOL   H52134241   3.722   5.390   1.959  0.5508  0.8664  0.2304
   61MOL   H52234242   4.083   5.557   1.931  0.1068 -0.2487 -0.9582
   61MOL   H52334243   4.049   5.247   1.984  0.8555 -0.0401  0.3844
   61MOL   H52434244   4.078   5.319   1.826 -0.2937 -1.4531 -0.1487
   61MOL   H52534245   4.295   5.401   1.880  0.8690  0.0827  1.1585
   61MOL   H52634246   4.239   5.138   1.907 -1.9293  0.7517 -0.3886
   61MOL   H52734247   4.256   5.285   2.164 -0.3539  0.6909 -0.2001
   61MOL   H52834248   4.493   5.278   2.065 -1.7690 -0.0250 -0.3283
   61MOL   H52934249   4.487   5.449   2.037 -0.3580 -1.3470 -3.0047
   61MOL   H53034250   4.271   5.570   2.111  0.7940  0.1875 -0.0032
   61MOL   H53134251   4.241   5.475   2.261 -2.2719  2.1307 -0.8903
   61MOL   H53234252   4.034   5.579   2.163 -1.0242  0.1789  0.6325
   61MOL   H53334253   4.039   5.408   2.194 -1.5398  2.1679  0.0943
   61MOL   O53434254   4.481   5.384   2.235  0.5497  0.4036 -0.1764
   61MOL   C53534255   4.614   5.415   2.264  0.2434 -0.0461 -0.0466
   61MOL   C53634256   4.641   5.433   2.420  0.4111 -0.2583  0.1824
   61MOL   O53734257   4.610   5.307   2.481  0.1749  0.1252 -0.0209
   61MOL   C53834258   4.787   5.479   2.450 -0.1557  0.2042  0.5424
   61MOL   C53934259   4.826   5.452   2.598 -0.3956  0.5898 -0.0070
   61MOL   C54034260   4.978   5.473   2.625  0.1061 -0.2104  0.0694
   61MOL   O54134261   4.998   5.438   2.761  0.0602 -0.1916  0.1549
   61MOL   C54234262   5.011   5.616   2.599  0.0451  0.1424  0.3070
   61MOL   C54334263   5.154   5.661   2.636 -0.2468  0.1418 -0.5834
   61MOL   C54434264   4.972   5.657   2.456 -1.1109  0.4244 -0.0182
   61MOL   C54534265   4.827   5.627   2.419 -0.1664  0.3067 -0.4475
   61MOL   H54634266   4.647   5.503   2.209  2.3912  0.2597  1.6824
   61MOL   H54734267   4.665   5.329   2.223 -1.2661 -0.4666 -1.1132
   61MOL   H54834268   4.568   5.502   2.463  0.8375  0.8837 -0.8954
   61MOL   H54934269   4.525   5.293   2.441  0.5462 -1.0748 -0.3938
   61MOL   H55034270   4.851   5.418   2.385 -1.8259  0.7247 -1.6408
   61MOL   H55134271   4.761   5.501   2.670  0.2995  1.9017 -0.2631
   61MOL   H55234272   4.818   5.349   2.632 -0.1613  0.4365 -0.4062
   61MOL   H55334273   5.037   5.407   2.561 -1.0420 -0.9895 -0.2174
   61MOL   H55434274   5.079   5.475   2.792  1.0226 -2.1606  0.0825
   61MOL   H55534275   4.938   5.676   2.653 -0.4997 -0.6910  0.4968
   61MOL   H55634276   5.167   5.769   2.649 -0.4709  0.0630  0.3553
   61MOL   H55734277   5.191   5.618   2.729  0.0820  0.1146 -0.7289
   61MOL   H55834278   5.037   5.607   2.383 -0.1999  1.9895 -0.3108
   61MOL   H55934279   4.990   5.761   2.429 -0.0811 -0.5608 -3.3673
   61MOL   H56034280   4.815   5.653   2.313  1.0137 -0.5008 -0.7805
   61MOL   H56134281   4.757   5.688   2.476 -2.7790 -1.1849 -1.9698
   61MOL   H56234282   5.226   5.626   2.563  0.4773  2.3922 -1.0119
   62MOL     O134283   2.146   3.651   6.253 -0.1039 -0.4700 -0.8669
   62MOL     C234284   2.019   3.614   6.205 -0.3107  0.0461 -0.8388
   62MOL     C334285   2.015   3.458   6.228  0.5545  0.7521  0.2479
   62MOL     O434286   2.058   3.427   6.355  0.1377  0.2417 -0.2094
   62MOL     C534287   1.881   3.391   6.194 -0.1336  0.1060 -0.1784
   62MOL     C634288   1.761   3.466   6.254 -0.1450 -0.1306 -0.0208
   62MOL     C734289   1.627   3.398   6.222  0.1438  0.1818 -0.4114
   62MOL     O834290   1.532   3.475   6.291 -0.0450  0.9475 -0.4536
   62MOL     C934291   1.624   3.251   6.275 -0.0429 -0.6959 -0.5629
   62MOL    C1034292   1.490   3.178   6.260 -0.0673 -0.2282 -0.2563
   62MOL    C1134293   1.732   3.180   6.193 -0.9857  0.4016 -0.8460
   62MOL    C1234294   1.870   3.243   6.234  0.3314 -0.0622  0.2845
   62MOL    H1334295   2.007   3.638   6.100 -0.2643 -0.0073 -0.8561
   62MOL    H1434296   1.937   3.666   6.255 -0.8661 -0.7958 -0.8720
   62MOL    H1534297   2.087   3.412   6.159 -0.7726  3.2283 -2.9282
   62MOL    H1634298   2.081   3.337   6.371  0.2469  0.6323  2.0055
   62MOL    H1734299   1.881   3.392   6.085  0.1266 -0.9666 -0.1907
   62MOL    H1834300   1.762   3.473   6.363 -0.5741  1.5944 -0.1057
   62MOL    H1934301   1.758   3.570   6.219  1.4711  0.4381  1.4755
   62MOL    H2034302   1.599   3.409   6.117 -0.1662 -0.1399 -0.3606
   62MOL    H2134303   1.484   3.411   6.341  1.3635 -0.4671 -0.8742
   62MOL    H2234304   1.641   3.235   6.381 -2.1050  0.2289 -0.0700
   62MOL    H2334305   1.460   3.188   6.156 -2.4379  2.4971  0.6371
   62MOL    H2434306   1.494   3.076   6.297 -1.8870  0.4389  1.9393
   62MOL    H2534307   1.707   3.191   6.088  0.1773 -1.1175 -1.3006
   62MOL    H2634308   1.710   3.076   6.217 -2.6309  1.4725  2.5947
   62MOL    H2734309   1.953   3.189   6.187 -0.8495  0.1068 -2.0487
   62MOL    H2834310   1.886   3.220   6.339  0.3680 -0.5925  0.1670
   62MOL    H2934311   2.168   3.589   6.321  0.8861 -0.0209 -0.7695
   62MOL    O3034312   1.399   3.230   6.358  0.7458  0.1041 -0.2764
   62MOL    C3134313   1.285   3.144   6.373 -0.3896 -0.3110 -0.1364
   62MOL    C3234314   1.206   3.203   6.485 -0.2356 -0.6382  0.2617
   62MOL    O3334315   1.266   3.138   6.600  0.4886 -0.4067 -0.2779
   62MOL    C3434316   1.204   3.356   6.500  0.3273 -0.3439  0.4588
   62MOL    C3534317   1.308   3.412   6.596 -0.4752 -0.3234 -0.3287
   62MOL    C3634318   1.311   3.566   6.614 -0.3801 -1.0739 -0.1366
   62MOL    O3734319   1.409   3.599   6.705 -0.0750 -0.0237 -0.1661
   62MOL    C3834320   1.177   3.624   6.660 -0.0602 -0.0443  0.1007
   62MOL    C3934321   1.173   3.777   6.649 -0.9049  0.1248 -0.4035
   62MOL    C4034322   1.063   3.563   6.578  0.0365  0.2737  0.4744
   62MOL    C4134323   1.066   3.412   6.549  0.1795 -0.3215  0.0513
   62MOL    H4234324   1.309   3.040   6.393 -0.8364 -0.4429 -0.2714
   62MOL    H4334325   1.232   3.151   6.278  1.7106  1.2239 -1.2303
   62MOL    H4434326   1.105   3.164   6.472 -1.0064  1.8779 -1.6263
   62MOL    H4534327   1.199   3.130   6.667  0.3244  0.1002 -0.3742
   62MOL    H4634328   1.231   3.406   6.407  0.9375  0.7548  1.2126
   62MOL    H4734329   1.305   3.368   6.696  1.2072 -0.1155 -0.1605
   62MOL    H4834330   1.408   3.372   6.575 -1.8428 -3.4163 -1.2418
   62MOL    H4934331   1.356   3.614   6.527  2.6120 -1.5831  1.0580
   62MOL    H5034332   1.480   3.537   6.698  0.2766  0.0762  2.1917
   62MOL    H5134333   1.168   3.607   6.767  2.6866  0.7977  0.5106
   62MOL    H5234334   1.269   3.819   6.679 -0.7537 -1.1808  1.0121
   62MOL    H5334335   1.170   3.808   6.545 -2.8871 -1.0026 -0.7039
   62MOL    H5434336   1.059   3.605   6.478  2.1653  0.1993  0.3408
   62MOL    H5534337   0.971   3.588   6.631 -0.2519 -1.6912  0.9343
   62MOL    H5634338   0.992   3.382   6.476 -0.9341  0.8874  0.6666
   62MOL    H5734339   1.035   3.363   6.641  0.9669 -0.4407  0.2567
   62MOL    O5834340   1.066   3.836   6.725  0.3453  0.1201  0.5930
   62MOL    C5934341   1.061   3.975   6.725  0.3081 -0.4785  0.3620
   62MOL    C6034342   0.943   4.042   6.804 -0.6485  0.5158 -0.5362
   62MOL    O6134343   0.973   4.016   6.939  0.1090  0.0143  0.1604
   62MOL    C6234344   0.953   4.192   6.777  0.2086 -0.0616 -0.0370
   62MOL    C6334345   1.058   4.265   6.855  0.6939  0.5398  0.2265
   62MOL    C6434346   1.051   4.419   6.842  0.2146 -0.0240  0.1192
   62MOL    O6534347   1.134   4.458   6.949 -0.5413  0.0919  0.1152
   62MOL    C6634348   0.906   4.479   6.850 -0.7430  0.5556 -0.4853
   62MOL    C6734349   0.897   4.625   6.803  0.2881  0.2555 -0.0548
   62MOL    C6834350   0.805   4.395   6.771  0.2318 -0.0891 -0.0304
   62MOL    C6934351   0.810   4.252   6.819  0.9175 -0.5555  0.1779
   62MOL    H7034352   1.057   3.999   6.619  2.6150  0.2600  0.3983
   62MOL    H7134353   1.151   4.022   6.766 -0.3832  0.4058  0.8827
   62MOL    H7234354   0.852   3.999   6.760 -1.4997  1.1264  0.6056
   62MOL    H7334355   0.964   3.922   6.948  0.7171  0.0874  1.6090
   62MOL    H7434356   0.964   4.218   6.672 -0.4619  1.5929  0.2772
   62MOL    H7534357   1.042   4.241   6.960 -0.2511 -1.7812 -0.4286
   62MOL    H7634358   1.159   4.233   6.828  0.1893 -0.1700 -0.8372
   62MOL    H7734359   1.103   4.451   6.751  0.0343  0.9732  0.3557
   62MOL    H7834360   1.087   4.434   7.028  0.8324  1.0649  1.2596
   62MOL    H7934361   0.873   4.468   6.953  0.1942 -2.9333 -0.4942
   62MOL    H8034362   0.791   4.638   6.828  0.6511 -0.4874  1.9610
   62MOL    H8134363   0.957   4.684   6.872  1.0792 -2.6794  1.8652
   62MOL    H8234364   0.816   4.392   6.662 -0.6148  0.0526 -0.1263
   62MOL    H8334365   0.709   4.442   6.792 -0.5074 -0.5697 -2.1447
   62MOL    H8434366   0.728   4.196   6.774  2.1200 -0.7028 -1.9025
   62MOL    H8534367   0.796   4.246   6.926  0.9383  1.4947  0.3184
   62MOL    O8634368   0.941   4.642   6.671 -0.4536  0.1031  0.1858
   62MOL    C8734369   0.944   4.771   6.621 -0.6040 -0.2690 -0.1650
   62MOL    C8834370   1.038   4.777   6.501 -0.4441 -0.3212  0.0940
   62MOL    O8934371   1.160   4.731   6.558  0.1834  0.5150  1.0949
   62MOL    C9034372   1.004   4.709   6.365  0.3004  0.1832 -0.1451
   62MOL    C9134373   0.914   4.799   6.280  0.4419  0.1743  0.4775
   62MOL    C9234374   0.917   4.749   6.138 -0.0851  0.3433  0.3146
   62MOL    O9334375   0.823   4.819   6.061  0.7458 -0.7496  0.8714
   62MOL    C9434376   0.873   4.604   6.139  0.0410  0.6603 -0.0744
   62MOL    C9534377   0.855   4.554   5.999 -0.3334 -0.4062  0.7316
   62MOL    C9634378   0.965   4.512   6.224  0.3235 -0.3343  0.1895
   62MOL    C9734379   0.973   4.563   6.370 -0.2796 -0.2545 -0.0619
   62MOL    H9834380   0.963   4.848   6.696 -0.4873 -0.6550  0.2023
   62MOL    H9934381   0.844   4.797   6.587 -0.0443 -0.7101 -2.1961
   62MOL   H10034382   1.063   4.881   6.483 -0.6774 -0.3816 -0.5779
   62MOL   H10134383   1.124   4.679   6.628  1.1825 -0.6349  0.7870
   62MOL   H10234384   1.100   4.713   6.313 -0.0908  0.1586 -0.8686
   62MOL   H10334385   0.811   4.808   6.314  0.1137 -0.4327 -0.3651
   62MOL   H10434386   0.966   4.895   6.272  0.5642  0.1264  0.7047
   62MOL   H10534387   1.012   4.762   6.087  0.8964  2.5122  2.6133
   62MOL   H10634388   0.860   4.897   6.024  2.6108 -2.0125  0.0188
   62MOL   H10734389   0.776   4.589   6.187  1.5010  1.5403  3.3026
   62MOL   H10834390   0.792   4.610   5.931 -2.3902 -1.7558  1.4810
   62MOL   H10934391   0.949   4.536   5.947 -1.0133 -1.8254 -0.0316
   62MOL   H11034392   1.064   4.503   6.178  0.7454  0.0545  1.0053
   62MOL   H11134393   0.940   4.407   6.214  0.3004 -0.1361 -1.9776
   62MOL   H11234394   1.042   4.501   6.427 -0.8363  0.1787  1.0919
   62MOL   H11334395   0.875   4.554   6.417 -1.1098 -1.5785 -1.9483
   62MOL   O11434396   0.794   4.426   6.004 -0.1065 -0.1690 -0.1074
   62MOL   C11534397   0.804   4.353   5.884  0.2844 -0.2793  0.0998
   62MOL   C11634398   0.713   4.234   5.911  0.8753 -0.1521  0.1177
   62MOL   O11734399   0.587   4.296   5.934 -0.1784  0.2521 -0.0853
   62MOL   C11834400   0.696   4.127   5.801 -0.3188 -0.7292  0.1949
   62MOL   C11934401   0.810   4.024   5.808 -0.1115 -0.2318 -0.2835
   62MOL   C12034402   0.802   3.925   5.689 -0.5015  0.5495 -0.5064
   62MOL   O12134403   0.916   3.845   5.697 -0.3519 -0.2818 -0.1494
   62MOL   C12234404   0.796   3.989   5.547  0.1887  0.2130  0.1810
   62MOL   C12334405   0.798   3.885   5.431  0.4226  0.3083 -0.3564
   62MOL   C12434406   0.673   4.074   5.545 -0.5004  0.2542  0.1211
   62MOL   C12534407   0.668   4.187   5.664 -0.8350 -0.1167  0.1909
   62MOL   H12634408   0.903   4.309   5.870 -0.1940 -1.3161 -0.0744
   62MOL   H12734409   0.777   4.414   5.797 -2.6105 -0.4810  0.8290
   62MOL   H12834410   0.739   4.177   6.000 -0.6021 -0.2933  0.4678
   62MOL   H12934411   0.597   4.368   5.994 -0.7733 -0.7186  1.1948
   62MOL   H13034412   0.611   4.065   5.831 -0.0438 -2.1497 -1.8223
   62MOL   H13134413   0.898   4.088   5.815 -1.0881  1.4724 -2.7647
   62MOL   H13234414   0.800   3.967   5.900  1.2312 -1.7525 -1.0421
   62MOL   H13334415   0.705   3.876   5.697  0.2313 -0.9331 -0.5538
   62MOL   H13434416   0.892   3.754   5.692 -0.4537 -0.2266 -0.7009
   62MOL   H13534417   0.887   4.049   5.542 -0.6495  1.3656 -2.5051
   62MOL   H13634418   0.870   3.805   5.446 -0.8685 -0.5425  1.4237
   62MOL   H13734419   0.702   3.835   5.421 -1.2632  3.3783 -0.2905
   62MOL   H13834420   0.587   4.007   5.540  0.6646 -1.1227 -2.4267
   62MOL   H13934421   0.682   4.131   5.452 -0.9653 -0.0175 -0.0927
   62MOL   H14034422   0.565   4.222   5.656 -1.4377 -1.5053  1.5182
   62MOL   H14134423   0.735   4.267   5.634 -0.2564 -0.1773  1.2895
   62MOL   O14234424   0.819   3.957   5.308  0.3473 -1.0985 -0.3420
   62MOL   C14334425   0.802   3.877   5.191 -0.0351  0.0774  0.0497
   62MOL   C14434426   0.767   3.965   5.076 -0.3819 -0.0536 -0.0511
   62MOL   O14534427   0.791   3.896   4.955  0.4524 -0.0906  0.2117
   62MOL   C14634428   0.621   4.018   5.072 -0.3262  0.5637 -0.2671
   62MOL   C14734429   0.614   4.136   4.976 -0.3692 -0.4827  0.5191
   62MOL   C14834430   0.466   4.182   4.962 -0.0214  0.5405  0.3868
   62MOL   O14934431   0.474   4.290   4.879  0.6252  0.3037 -0.4040
   62MOL   C15034432   0.407   4.230   5.099 -1.0017  1.2725 -0.6084
   62MOL   C15134433   0.265   4.280   5.103 -0.2511 -0.5104  0.0933
   62MOL   C15234434   0.420   4.112   5.206 -0.2435 -0.2800 -0.3653
   62MOL   C15334435   0.564   4.055   5.208 -0.0502  0.2086  0.6622
   62MOL   H15434436   0.727   3.798   5.199 -0.5141  0.5890  0.6726
   62MOL   H15534437   0.895   3.821   5.182  0.0569  0.1806  0.3876
   62MOL   H15634438   0.830   4.054   5.077  0.6955 -0.7829 -1.8060
   62MOL   H15734439   0.880   3.866   4.949  0.0834 -0.9413 -1.5666
   62MOL   H15834440   0.554   3.947   5.024 -1.6585  3.6675 -3.2625
   62MOL   H15934441   0.683   4.214   5.009  0.1863 -1.4157  1.5583
   62MOL   H16034442   0.646   4.101   4.878  0.4429 -0.6668  0.8527
   62MOL   H16134443   0.399   4.105   4.924  1.1300  1.7020 -4.1886
   62MOL   H16234444   0.390   4.288   4.836  0.1121 -3.7566  0.5945
   62MOL   H16334445   0.458   4.322   5.125 -2.9094  2.0807  0.3475
   62MOL   H16434446   0.251   4.332   5.198 -0.3930 -0.4894  0.0616
   62MOL   H16534447   0.256   4.352   5.022 -2.1547 -0.3257  0.4353
   62MOL   H16634448   0.355   4.028   5.181 -0.6667  0.0184 -0.2757
   62MOL   H16734449   0.408   4.145   5.309 -0.0506 -0.8253 -0.1685
   62MOL   H16834450   0.567   3.964   5.269 -0.8260 -1.7780 -2.1560
   62MOL   H16934451   0.635   4.130   5.244  2.0792  0.1915 -3.2745
   62MOL   O17034452   0.174   4.179   5.091  0.8979 -0.6365 -0.8048
   62MOL   C17134453   0.041   4.225   5.083 -0.3606 -0.4056 -0.0536
   62MOL   C17234454   7.592   4.111   5.136  0.3518 -0.0358  0.4954
   62MOL   O17334455   0.019   4.086   5.262 -0.6660  0.0763 -0.1670
   62MOL   C17434456   7.438   4.128   5.145  0.4258  0.7982 -0.0685
   62MOL   C17534457   7.375   3.996   5.204 -0.2219 -0.1164  0.5332
   62MOL   C17634458   7.221   3.985   5.207 -0.0920  0.0717  0.1848
   62MOL   O17734459   7.202   3.841   5.244 -0.1837 -0.2876 -0.7025
   62MOL   C17834460   7.151   4.027   5.078  0.2786  0.0752  0.4600
   62MOL   C17934461   6.998   4.037   5.096  1.0140  0.2030 -0.1651
   62MOL   C18034462   7.221   4.152   5.005  0.4970 -0.9945  0.4971
   62MOL   C18134463   7.375   4.140   5.006 -0.4972 -0.3038  0.4844
   62MOL   H18234464   0.018   4.250   4.980  0.9789 -2.8439 -0.9903
   62MOL   H18334465   0.022   4.312   5.146  1.8702  0.1810 -0.1490
   62MOL   H18434466   7.620   4.029   5.070  1.0574  0.8028 -0.2509
   62MOL   H18534467   0.112   4.083   5.245 -0.4758 -3.0050  1.1955
   62MOL   H18634468   7.415   4.217   5.203 -2.6277  0.4850 -0.6991
   62MOL   H18734469   7.402   3.911   5.141 -3.5417 -0.6347 -0.3131
   62MOL   H18834470   7.406   3.973   5.305  0.0624 -0.3915  0.3821
   62MOL   H18934471   7.179   4.043   5.290 -0.9508 -0.0684 -0.1503
   62MOL   H19034472   7.222   3.819   5.334  2.1848  0.0729 -1.1251
   62MOL   H19134473   7.152   3.948   5.003 -1.8405  1.7709 -1.3900
   62MOL   H19234474   6.966   3.936   5.123  0.2936  0.8108  1.3007
   62MOL   H19334475   6.970   4.099   5.180 -0.1850  0.3452 -0.6661
   62MOL   H19434476   7.193   4.244   5.057  1.3846 -0.9685  0.9350
   62MOL   H19534477   7.184   4.172   4.905  1.4804  0.2372  0.3699
   62MOL   H19634478   7.412   4.230   4.957 -3.4712  0.3020 -0.7554
   62MOL   H19734479   7.408   4.056   4.945  1.2208  0.7794 -0.1081
   62MOL   O19834480   6.925   4.084   4.982 -0.0429 -0.0853 -0.2791
   62MOL   C19934481   6.877   4.216   4.995  0.3376  0.9438  0.2944
   62MOL   C20034482   6.794   4.244   4.866 -0.1858  0.2643 -0.0941
   62MOL   O20134483   6.698   4.147   4.860 -0.2107 -0.0262  0.5255
   62MOL   C20234484   6.727   4.378   4.887 -0.0588 -0.0585  0.3238
   62MOL   C20334485   6.626   4.387   5.001  0.8312  0.3201  0.3001
   62MOL   C20434486   6.546   4.521   5.004 -0.1353  0.0983  0.4895
   62MOL   O20534487   6.456   4.511   5.112 -0.1082 -0.1208  0.2871
   62MOL   C20634488   6.488   4.562   4.867  0.0684  0.3215 -0.4015
   62MOL   C20734489   6.413   4.702   4.876  0.4190  0.1663 -0.5148
   62MOL   C20834490   6.599   4.556   4.754  0.8585 -0.1912  0.2576
   62MOL   C20934491   6.671   4.417   4.748 -0.8112  0.2748 -0.4912
   62MOL   H21034492   6.961   4.284   5.002  0.7224  0.4427  0.5585
   62MOL   H21134493   6.803   4.214   5.076  0.3164  0.9437  0.2741
   62MOL   H21234494   6.858   4.249   4.778 -2.2536  3.4195 -1.5332
   62MOL   H21334495   6.747   4.068   4.879 -0.1067  0.0538  0.5859
   62MOL   H21434496   6.803   4.452   4.914 -0.4469  0.6966 -0.6183
   62MOL   H21534497   6.551   4.308   5.000  1.2346 -0.0619 -1.0387
   62MOL   H21634498   6.661   4.369   5.103  0.0182 -3.1989  0.0436
   62MOL   H21734499   6.615   4.604   5.019 -0.3315  1.1776 -3.8513
   62MOL   H21834500   6.437   4.597   5.148  0.3229  0.8249 -1.6516
   62MOL   H21934501   6.426   4.476   4.842  0.8439 -0.0871 -0.9410
   62MOL   H22034502   6.361   4.736   4.787 -0.0691  0.7600 -0.0098
   62MOL   H22134503   6.333   4.690   4.949  0.0629 -2.3033 -1.2585
   62MOL   H22234504   6.677   4.630   4.773  1.0785 -0.3568 -0.0049
   62MOL   H22334505   6.546   4.588   4.664 -2.0478 -1.2712  1.5005
   62MOL   H22434506   6.753   4.415   4.677  0.0344 -1.2980  0.5042
   62MOL   H22534507   6.602   4.336   4.723  0.1918 -1.6532  2.7218
   62MOL   O22634508   6.515   4.797   4.903 -0.0343 -0.1225 -0.2439
   62MOL   C22734509   6.456   4.924   4.912 -0.0209 -0.4343  0.2068
   62MOL   C22834510   6.516   5.015   4.803  0.0292 -0.6233 -0.6026
   62MOL   O22934511   6.477   4.970   4.670 -0.0277  0.1697 -0.3525
   62MOL   C23034512   6.485   5.161   4.838  0.1048 -0.3727  0.2734
   62MOL   C23134513   6.335   5.196   4.832  0.3006  0.4195  0.3381
   62MOL   C23234514   6.318   5.343   4.877 -0.0353 -0.3568  0.0422
   62MOL   O23334515   6.180   5.368   4.897  0.3215 -0.0161  0.4772
   62MOL   C23434516   6.380   5.428   4.772 -0.2810 -0.1783 -0.0252
   62MOL   C23534517   6.351   5.577   4.807 -0.5249 -0.9082 -0.0226
   62MOL   C23634518   6.532   5.396   4.782 -0.1442  0.0325 -0.2574
   62MOL   C23734519   6.571   5.253   4.746  0.6012  0.0914 -0.4567
   62MOL   H23834520   6.482   4.956   5.013  0.2135  1.3981 -0.4260
   62MOL   H23934521   6.347   4.926   4.914 -0.0524 -1.2160 -0.3524
   62MOL   H24034522   6.625   5.009   4.801  0.2562  2.8265 -0.8594
   62MOL   H24134523   6.394   4.925   4.684  0.8574 -1.4022 -0.0488
   62MOL   H24234524   6.520   5.183   4.939 -0.5553  0.8196  0.2576
   62MOL   H24334525   6.304   5.171   4.730  0.9325 -3.5440  1.0454
   62MOL   H24434526   6.287   5.134   4.906 -0.4340  1.5402  0.8151
   62MOL   H24534527   6.362   5.358   4.975 -1.5489 -0.6961  0.7820
   62MOL   H24634528   6.162   5.453   4.933  0.8996 -0.2134  1.2253
   62MOL   H24734529   6.354   5.407   4.669 -0.8323 -0.9265  0.2588
   62MOL   H24834530   6.250   5.589   4.845  0.3120 -0.3754  2.1306
   62MOL   H24934531   6.398   5.598   4.903 -2.0581  2.3423  0.0944
   62MOL   H25034532   6.565   5.434   4.879  0.9873 -0.9226 -0.2712
   62MOL   H25134533   6.573   5.468   4.712 -0.1882 -0.2180 -0.5404
   62MOL   H25234534   6.678   5.234   4.742  0.1667 -2.3857 -1.2827
   62MOL   H25334535   6.535   5.227   4.647 -1.5418  0.7813  0.1166
   62MOL   O25434536   6.394   5.651   4.691 -0.1464 -0.9912  0.7467
   62MOL   C25534537   6.332   5.776   4.691 -0.1680 -0.0638  0.4628
   62MOL   C25634538   6.211   5.769   4.596 -0.0518 -0.2474  0.1540
   62MOL   O25734539   6.115   5.690   4.662 -0.5657  0.4104 -0.2263
   62MOL   C25834540   6.147   5.904   4.556 -0.6858 -1.1975  0.4047
   62MOL   C25934541   6.115   6.001   4.677  0.2199  0.1081  0.2280
   62MOL   C26034542   6.039   6.126   4.642 -0.4031 -0.0930 -0.2364
   62MOL   O26134543   6.014   6.200   4.757 -0.5716 -0.4557 -0.1363
   62MOL   C26234544   5.909   6.092   4.556  0.1019  0.1256  0.0218
   62MOL   C26334545   5.840   6.220   4.521  0.5285  0.0158 -0.4972
   62MOL   C26434546   5.947   6.011   4.428 -0.0797  0.0421 -0.2785
   62MOL   C26534547   6.022   5.880   4.461 -0.0140  0.3342 -0.4968
   62MOL   H26634548   6.404   5.845   4.646 -0.3321  0.2047  0.6142
   62MOL   H26734549   6.310   5.818   4.789  3.1335  0.2459  1.1516
   62MOL   H26834550   6.244   5.705   4.514 -2.9021  0.5652 -1.7242
   62MOL   H26934551   6.102   5.731   4.746  1.0049 -0.2359  0.3607
   62MOL   H27034552   6.231   5.942   4.497  0.9781 -0.8278  2.9512
   62MOL   H27134553   6.050   5.937   4.735 -1.6286  0.5382 -1.3082
   62MOL   H27234554   6.203   6.028   4.735  0.9248 -0.6376 -0.4820
   62MOL   H27334555   6.109   6.186   4.584 -0.7826  0.5857 -0.0008
   62MOL   H27434556   6.082   6.261   4.780 -1.3786  1.3877 -2.4408
   62MOL   H27534557   5.844   6.032   4.619  0.3184 -0.9481 -0.7731
   62MOL   H27634558   5.832   6.293   4.602 -1.7848 -0.2392 -0.4668
   62MOL   H27734559   5.908   6.271   4.453  1.5324  1.5065  1.5417
   62MOL   H27834560   6.007   6.079   4.367 -1.1392  1.2168 -0.0354
   62MOL   H27934561   5.855   5.988   4.374  0.9609 -2.0679 -1.2052
   62MOL   H28034562   6.046   5.833   4.365  1.0237 -0.1325 -0.0278
   62MOL   H28134563   5.948   5.829   4.523 -1.8905  0.4963 -2.5611
   62MOL   O28234564   5.723   6.208   4.444 -0.0419  0.5320  0.2718
   62MOL   C28334565   5.602   6.186   4.523  0.1688  0.3689 -0.8234
   62MOL   C28434566   5.497   6.109   4.435  0.0534 -0.1825  0.0755
   62MOL   O28534567   5.411   6.032   4.521  0.1654 -0.0791  0.4409
   62MOL   C28634568   5.409   6.207   4.357 -0.0589 -0.4626  0.3216
   62MOL   C28734569   5.286   6.137   4.292 -0.3400  0.5417  0.5936
   62MOL   C28834570   5.192   6.231   4.201  0.1284  0.0560  0.1610
   62MOL   O28934571   5.092   6.153   4.134  0.4197 -0.0139 -0.3913
   62MOL   C29034572   5.277   6.312   4.100 -0.3096  0.2711 -0.5186
   62MOL   C29134573   5.191   6.422   4.045  0.7225  0.6088 -0.7557
   62MOL   C29234574   5.399   6.374   4.174 -0.0425 -1.0966 -0.3043
   62MOL   C29334575   5.487   6.276   4.243  0.0467  0.4393 -0.8849
   62MOL   H29434576   5.567   6.268   4.585  3.2704 -0.4933  2.2659
   62MOL   H29534577   5.645   6.114   4.593  0.3028  2.6349  1.5204
   62MOL   H29634578   5.541   6.041   4.363 -1.5747  0.8720 -1.9552
   62MOL   H29734579   5.347   6.086   4.567  1.0400  1.2733  0.1071
   62MOL   H29834580   5.380   6.284   4.429  0.3824  1.1721 -1.2033
   62MOL   H29934581   5.322   6.062   4.223 -1.4022  0.9444 -0.4136
   62MOL   H30034582   5.230   6.078   4.365 -0.4931  1.0654  0.9063
   62MOL   H30134583   5.143   6.292   4.277 -0.9861 -0.5092 -0.1050
   62MOL   H30234584   5.031   6.119   4.197 -1.5901  0.1372 -2.1777
   62MOL   H30334585   5.303   6.248   4.016  0.6619  0.5935 -0.4709
   62MOL   H30434586   5.099   6.384   4.000  1.0410 -0.7898 -0.2414
   62MOL   H30534587   5.158   6.474   4.135 -0.5744 -3.0630  0.9677
   62MOL   H30634588   5.360   6.449   4.244  0.6003 -1.3725  0.3541
   62MOL   H30734589   5.453   6.427   4.095 -0.8164 -1.3905 -1.0321
   62MOL   H30834590   5.585   6.313   4.274  0.4603 -1.4103  0.0927
   62MOL   H30934591   5.498   6.193   4.174  1.0054 -1.1688  1.1655
   62MOL   O31034592   5.265   6.501   3.952  0.2106 -0.3107  0.0488
   62MOL   C31134593   5.174   6.580   3.876  0.6068 -0.0177 -0.1447
   62MOL   C31234594   5.104   6.497   3.766  0.1632  0.4910 -0.0235
   62MOL   O31334595   5.007   6.582   3.702 -0.3994  0.4368 -0.7940
   62MOL   C31434596   5.207   6.439   3.670 -0.0274  0.3895 -0.5883
   62MOL   C31534597   5.244   6.541   3.560  0.4903 -0.1672  0.0637
   62MOL   C31634598   5.350   6.491   3.461 -0.8597  0.3853  0.2508
   62MOL   O31734599   5.370   6.586   3.356 -0.5728 -0.4366  0.1395
   62MOL   C31834600   5.321   6.342   3.403 -0.4112 -0.7497  0.6295
   62MOL   C31934601   5.432   6.270   3.322 -0.1425  0.1263 -1.0296
   62MOL   C32034602   5.267   6.256   3.517 -0.3691  0.0476  0.7040
   62MOL   C32134603   5.154   6.313   3.599 -0.0813 -0.2267 -0.3519
   62MOL   H32234604   5.245   6.647   3.828  1.2520 -0.2239  0.5189
   62MOL   H32334605   5.107   6.651   3.925  0.9946  0.4747 -0.3246
   62MOL   H32434606   5.040   6.420   3.809 -0.7920  1.5590  0.5143
   62MOL   H32534607   4.920   6.546   3.710  0.0276 -0.3518  0.4396
   62MOL   H32634608   5.293   6.403   3.725 -1.5094 -1.5438  0.5390
   62MOL   H32734609   5.153   6.568   3.505  0.0261  1.4241  1.5599
   62MOL   H32834610   5.280   6.637   3.598  1.2416  0.1895 -1.5035
   62MOL   H32934611   5.445   6.477   3.512 -1.3001 -1.4263  0.6291
   62MOL   H33034612   5.290   6.613   3.315  0.0588  0.7600 -0.3304
   62MOL   H33134613   5.237   6.341   3.334  1.1407  0.9574 -1.3457
   62MOL   H33234614   5.437   6.323   3.227 -1.3004  1.9393 -0.1080
   62MOL   H33334615   5.528   6.288   3.369 -1.1228  1.6828  0.4383
   62MOL   H33434616   5.339   6.212   3.586 -0.2678  1.0944  1.2803
   62MOL   H33534617   5.227   6.160   3.484 -1.1018  0.0136  1.6683
   62MOL   H33634618   5.109   6.239   3.665  0.5868 -0.4443 -0.1340
   62MOL   H33734619   5.085   6.354   3.526 -1.1195 -1.8087 -0.2866
   62MOL   O33834620   5.406   6.133   3.302 -0.0368  0.3655 -0.1775
   62MOL   C33934621   5.497   6.073   3.214 -0.0675 -0.5513 -0.1780
   62MOL   C34034622   5.463   5.921   3.198 -0.7274  0.1749 -0.9371
   62MOL   O34134623   5.503   5.854   3.323  0.1412  0.0130 -0.2622
   62MOL   C34234624   5.323   5.875   3.164  0.1856 -0.0685 -0.3552
   62MOL   C34334625   5.321   5.725   3.123  0.2766 -0.0960  0.3389
   62MOL   C34434626   5.182   5.675   3.095 -0.1959  0.5548  0.1930
   62MOL   O34534627   5.195   5.549   3.047 -0.1525  0.2558 -0.7651
   62MOL   C34634628   5.097   5.756   3.002  0.0741 -0.7642  0.4258
   62MOL   C34734629   4.948   5.709   3.008 -0.1638  0.0941 -0.4691
   62MOL   C34834630   5.105   5.912   3.044  0.2419  0.3707  0.4461
   62MOL   C34934631   5.252   5.961   3.057 -0.8920  0.4178  0.1792
   62MOL   H35034632   5.596   6.095   3.253 -0.9341  1.5425  0.8925
   62MOL   H35134633   5.477   6.126   3.121  1.2533 -1.3205 -0.9151
   62MOL   H35234634   5.531   5.883   3.121  2.1138 -0.4980  1.7835
   62MOL   H35334635   5.440   5.889   3.384 -0.4543 -1.6162  0.0833
   62MOL   H35434636   5.269   5.891   3.257  0.7771 -0.7020  0.0964
   62MOL   H35534637   5.380   5.713   3.032  0.1734 -2.9064  0.5873
   62MOL   H35634638   5.357   5.661   3.204 -2.3426 -1.4927  0.4340
   62MOL   H35734639   5.138   5.669   3.194 -0.4194 -3.0675 -0.0760
   62MOL   H35834640   5.116   5.499   3.059  1.0537 -1.4255  0.3130
   62MOL   H35934641   5.134   5.739   2.901 -0.7501  1.4765 -0.2737
   62MOL   H36034642   4.946   5.609   2.963  1.8359 -1.4718  2.7230
   62MOL   H36134643   4.918   5.710   3.113  1.7402  0.3234  0.0947
   62MOL   H36234644   5.056   5.922   3.140  1.2051  0.8516  0.8995
   62MOL   H36334645   5.051   5.977   2.975  0.0515  0.4639  0.6864
   62MOL   H36434646   5.253   6.065   3.090 -0.7873  0.9021 -1.3237
   62MOL   H36534647   5.296   5.965   2.957 -2.1710  0.6444 -0.3825
   62MOL   O36634648   4.875   5.803   2.932  0.8055 -0.0278 -0.0205
   62MOL   C36734649   4.753   5.745   2.883 -1.1146 -0.3675 -0.1071
   62MOL   C36834650   4.667   5.833   2.797  0.7668 -0.0984 -0.2829
   62MOL   O36934651   4.603   5.756   2.696 -0.3031 -0.0372 -0.5139
   62MOL   C37034652   4.564   5.923   2.875  0.2263 -0.2129  0.1245
   62MOL   C37134653   4.520   6.031   2.776 -0.0759 -0.6695 -0.3964
   62MOL   C37234654   4.431   6.138   2.852 -0.1381 -0.0514  0.4394
   62MOL   O37334655   4.396   6.244   2.765 -0.2455  0.5523  0.5207
   62MOL   C37434656   4.503   6.204   2.967  0.1925 -0.1678  0.1069
   62MOL   C37534657   4.423   6.314   3.033 -0.5213 -0.1948  0.1262
   62MOL   C37634658   4.540   6.092   3.072  0.0801 -0.4835 -0.0295
   62MOL   C37734659   4.623   5.986   3.000 -0.2641 -0.1045 -0.2920
   62MOL   H37834660   4.687   5.707   2.960 -1.0952 -0.9573 -0.3794
   62MOL   H37934661   4.791   5.663   2.822 -0.1870 -2.1414  2.7595
   62MOL   H38034662   4.727   5.907   2.744  1.6525 -0.2130  0.5493
   62MOL   H38134663   4.601   5.667   2.730  2.8478 -0.4546 -1.2543
   62MOL   H38234664   4.489   5.855   2.914 -2.2391  1.3889 -1.6714
   62MOL   H38334665   4.608   6.074   2.728  0.5058  0.8140  1.8957
   62MOL   H38434666   4.456   5.977   2.707  0.0863  2.0222 -2.7377
   62MOL   H38534667   4.336   6.098   2.887  0.1123  0.5144  1.7909
   62MOL   H38634668   4.473   6.284   2.728 -1.4617  1.3907 -1.1788
   62MOL   H38734669   4.593   6.256   2.933 -0.8165  1.7926  0.3561
   62MOL   H38834670   4.392   6.388   2.959 -2.1922 -1.7257 -0.7496
   62MOL   H38934671   4.327   6.268   3.060 -0.9059 -1.5145 -3.2043
   62MOL   H39034672   4.445   6.049   3.106 -0.5578  1.7922  1.1122
   62MOL   H39134673   4.592   6.141   3.154 -0.7082 -0.1386  0.2693
   62MOL   H39234674   4.632   5.903   3.070 -1.6350  0.1531  0.1989
   62MOL   H39334675   4.725   6.022   2.987 -0.6305  0.6115 -1.1978
   62MOL   O39434676   4.487   6.370   3.145  0.3447  0.1653  0.4123
   62MOL   C39534677   4.396   6.450   3.225  0.6344  0.2835  0.5689
   62MOL   C39634678   4.480   6.521   3.328 -0.2282  0.3851  0.1609
   62MOL   O39734679   4.391   6.622   3.378  1.1740  0.0030 -0.6497
   62MOL   C39834680   4.519   6.429   3.450  1.1766 -0.6662  0.4138
   62MOL   C39934681   4.577   6.514   3.569  0.5319  0.0467 -0.1187
   62MOL   C40034682   4.645   6.435   3.686  0.3128 -0.3486 -0.6162
   62MOL   O40134683   4.730   6.527   3.753  0.0549 -0.1799  0.0515
   62MOL   C40234684   4.727   6.318   3.635  0.1244  0.5132 -0.1374
   62MOL   C40334685   4.771   6.241   3.755 -0.2729 -0.5182  0.0153
   62MOL   C40434686   4.654   6.231   3.524  0.3100 -0.4885 -0.3035
   62MOL   C40534687   4.607   6.310   3.407 -0.6830  0.3232  0.3443
   62MOL   H40634688   4.327   6.388   3.281  0.6642  0.0043  0.2930
   62MOL   H40734689   4.343   6.527   3.170  2.1135 -0.1597 -1.5200
   62MOL   H40834690   4.563   6.569   3.275 -1.4753 -0.7219 -2.9593
   62MOL   H40934691   4.326   6.576   3.429  1.3564 -1.4894 -1.7248
   62MOL   H41034692   4.430   6.380   3.491  0.4934 -0.5550 -0.9248
   62MOL   H41134693   4.649   6.577   3.516 -0.2309  0.3815 -0.7734
   62MOL   H41234694   4.503   6.577   3.618 -0.2676  1.4896 -3.0790
   62MOL   H41334695   4.566   6.395   3.749 -0.9186 -1.1106 -2.6094
   62MOL   H41434696   4.672   6.563   3.818 -1.0585 -1.1500 -0.3904
   62MOL   H41534697   4.818   6.363   3.594  0.1910  2.6502  2.2287
   62MOL   H41634698   4.812   6.309   3.829 -1.6122 -0.2700  0.5536
   62MOL   H41734699   4.688   6.189   3.803  2.8830 -5.8110  0.1570
   62MOL   H41834700   4.571   6.178   3.571 -0.5783 -0.2434 -1.5633
   62MOL   H41934701   4.720   6.158   3.478 -2.0007 -2.1898 -1.0321
   62MOL   H42034702   4.551   6.233   3.354 -1.5046 -0.2967  2.0854
   62MOL   H42134703   4.697   6.335   3.350 -2.3960  1.4413 -1.9716
   62MOL   O42234704   4.875   6.145   3.728  0.0365 -0.1360 -0.1499
   62MOL   C42334705   4.914   6.064   3.841 -0.1897 -0.5284  0.5410
   62MOL   C42434706   5.021   5.965   3.813 -0.2784  0.2676  0.2110
   62MOL   O42534707   5.087   5.921   3.936 -0.4357  0.1084  0.0377
   62MOL   C42634708   4.971   5.845   3.733 -0.3733  0.6750 -0.6027
   62MOL   C42734709   5.076   5.744   3.687 -0.0006  0.4229 -0.4170
   62MOL   C42834710   5.009   5.618   3.622  0.4083 -0.1369 -0.4468
   62MOL   O42934711   5.104   5.516   3.605  0.4531  0.0937 -0.0356
   62MOL   C43034712   4.942   5.657   3.489  0.3980 -0.6097  0.5352
   62MOL   C43134713   4.883   5.536   3.413  0.3501 -0.3216 -0.0249
   62MOL   C43234714   4.838   5.773   3.513  0.3204  0.1518  0.2744
   62MOL   C43334715   4.895   5.887   3.601  0.2173 -0.3139  0.3763
   62MOL   H43434716   4.831   6.018   3.893 -0.8791  0.9826  0.8146
   62MOL   H43534717   4.951   6.126   3.923  1.9039 -0.1059 -0.6525
   62MOL   H43634718   5.100   6.016   3.758  0.9211 -0.5917  1.1153
   62MOL   H43734719   5.111   5.999   3.984 -0.3774 -0.0890  0.3347
   62MOL   H43834720   4.904   5.800   3.806  0.9129 -0.3011  0.0198
   62MOL   H43934721   5.152   5.795   3.628  1.7295 -0.6597  0.8360
   62MOL   H44034722   5.121   5.704   3.778  1.4609 -0.1914 -1.3807
   62MOL   H44134723   4.938   5.584   3.698  1.5512  1.3858  1.3265
   62MOL   H44234724   5.158   5.514   3.683  0.7945  1.4311 -0.2282
   62MOL   H44334725   5.031   5.685   3.432 -0.7605 -1.4518 -1.7267
   62MOL   H44434726   4.873   5.560   3.307  2.6610 -0.7654 -0.3582
   62MOL   H44534727   4.947   5.449   3.413  0.8336 -0.0003 -2.1748
   62MOL   H44634728   4.756   5.724   3.565  0.3796 -0.9783 -0.6592
   62MOL   H44734729   4.803   5.818   3.420  2.2552 -0.8205 -0.9523
   62MOL   H44834730   4.797   5.927   3.625  0.2847  0.4436 -0.6042
   62MOL   H44934731   4.943   5.961   3.537 -2.4094  0.5264 -0.6857
   62MOL   O45034732   4.768   5.504   3.493  0.2331 -0.5791 -0.4380
   62MOL   C45134733   4.651   5.473   3.418  0.3420 -0.2910  0.2834
   62MOL   C45234734   4.533   5.447   3.515  0.8033 -0.7933 -0.2166
   62MOL   O45334735   4.502   5.578   3.570  0.5147 -0.1876 -0.1982
   62MOL   C45434736   4.407   5.382   3.455 -0.1104  0.1518  0.5158
   62MOL   C45534737   4.331   5.479   3.356  0.6554 -0.1612 -0.3382
   62MOL   C45634738   4.233   5.394   3.267  0.3408  0.5060  0.1463
   62MOL   O45734739   4.172   5.478   3.176  0.1801  0.2227 -0.2723
   62MOL   C45834740   4.125   5.321   3.354 -0.5004  0.1798  0.3506
   62MOL   C45934741   4.025   5.235   3.279  0.4506  0.4518  0.2137
   62MOL   C46034742   4.198   5.232   3.463  0.4474 -0.4637  0.0645
   62MOL   C46134743   4.308   5.302   3.542 -0.3950  0.0821 -0.4958
   62MOL   H46234744   4.662   5.396   3.342  0.8288  1.4454 -1.4375
   62MOL   H46334745   4.617   5.553   3.353 -1.3563 -1.7380 -0.6389
   62MOL   H46434746   4.572   5.377   3.589  0.0207  0.9981  1.9376
   62MOL   H46534747   4.424   5.563   3.620  1.3969 -1.9452  0.7294
   62MOL   H46634748   4.451   5.307   3.390 -2.7058  1.5355 -3.0270
   62MOL   H46734749   4.269   5.550   3.410  1.0622 -0.9221  1.1460
   62MOL   H46834750   4.409   5.530   3.299  0.7007  1.3960  1.0870
   62MOL   H46934751   4.293   5.318   3.216 -0.6603  0.0191 -0.3209
   62MOL   H47034752   4.101   5.516   3.224  0.7872 -0.2451  1.0099
   62MOL   H47134753   4.066   5.394   3.408  1.2150  1.2487  0.8419
   62MOL   H47234754   4.061   5.205   3.181 -0.0299  1.1169 -0.1731
   62MOL   H47334755   4.002   5.145   3.335  0.0310  0.1254 -0.4821
   62MOL   H47434756   4.233   5.140   3.416 -1.3005 -0.6129 -0.9880
   62MOL   H47534757   4.115   5.204   3.527 -0.1471  1.4592  0.1404
   62MOL   H47634758   4.379   5.239   3.595  1.6239  0.8872 -2.1896
   62MOL   H47734759   4.258   5.371   3.610 -2.0209 -0.3635 -1.2174
   62MOL   O47834760   3.905   5.304   3.252  0.1343 -0.1389  0.1888
   62MOL   C47934761   3.822   5.236   3.159 -0.5141 -1.3088  0.0674
   62MOL   C48034762   3.734   5.348   3.102  0.9055 -0.2191  0.2136
   62MOL   O48134763   3.640   5.393   3.205  0.0279 -0.5849  0.0703
   62MOL   C48234764   3.813   5.471   3.054  0.1483 -0.3309 -0.4058
   62MOL   C48334765   3.723   5.595   3.010 -0.1778  0.2706  0.0941
   62MOL   C48434766   3.811   5.704   2.948  0.0583  0.8416 -0.1326
   62MOL   O48534767   3.732   5.818   2.920  0.0756 -0.6291 -0.7779
   62MOL   C48634768   3.905   5.665   2.826 -0.3752 -0.5753 -0.1028
   62MOL   C48734769   4.001   5.771   2.797 -0.4096 -0.4155  0.0318
   62MOL   C48834770   3.980   5.533   2.861 -0.2628  0.2032  0.4861
   62MOL   C48934771   3.899   5.422   2.929  0.9181  0.1319 -0.1009
   62MOL   H49034772   3.757   5.167   3.213 -0.0154 -3.8355 -2.4291
   62MOL   H49134773   3.879   5.175   3.088 -1.1990  0.2859 -1.8840
   62MOL   H49234774   3.682   5.304   3.017 -0.1737 -0.1674  0.8317
   62MOL   H49334775   3.692   5.415   3.280 -1.8263  1.2109  0.8866
   62MOL   H49434776   3.880   5.513   3.128 -0.6734  3.2861 -1.5890
   62MOL   H49534777   3.651   5.565   2.934  1.0041  0.9434 -1.3183
   62MOL   H49634778   3.676   5.637   3.099 -1.1943 -1.2856  0.3128
   62MOL   H49734779   3.877   5.725   3.033 -0.1652 -0.3204  0.3445
   62MOL   H49834780   3.693   5.842   3.003 -1.4534 -1.9544 -1.0931
   62MOL   H49934781   3.840   5.646   2.741 -0.2953  0.9813 -0.5436
   62MOL   H50034782   3.940   5.860   2.792 -1.0318 -0.7961  0.7112
   62MOL   H50134783   4.067   5.787   2.883 -0.1601 -2.2834  0.2155
   62MOL   H50234784   4.065   5.550   2.927  0.2702 -0.6509  0.0343
   62MOL   H50334785   4.019   5.491   2.768  1.1001  1.9443  0.2470
   62MOL   H50434786   3.969   5.342   2.952 -1.2339 -1.6201  0.4852
   62MOL   H50534787   3.825   5.389   2.856  0.0396 -1.1849  1.3365
   62MOL   O50634788   4.089   5.726   2.691  0.1257 -0.4437  0.1670
   62MOL   C50734789   4.151   5.826   2.622 -0.9973 -0.4127  0.2419
   62MOL   C50834790   4.182   5.795   2.474 -0.0858 -0.0417  0.2122
   62MOL   O50934791   4.084   5.849   2.378 -0.0476  0.0031  0.1841
   62MOL   C51034792   4.330   5.829   2.444 -0.7378 -0.5768 -1.1288
   62MOL   C51134793   4.349   5.975   2.416 -0.6460 -0.3906 -0.3943
   62MOL   C51234794   4.508   6.002   2.410 -0.5947 -0.4301  1.0700
   62MOL   O51334795   4.536   6.140   2.396  0.5049 -0.3810  0.2545
   62MOL   C51434796   4.557   5.932   2.283  0.5154 -0.3301  0.8537
   62MOL   C51534797   4.710   5.959   2.260  0.6376 -0.0478 -0.5468
   62MOL   C51634798   4.520   5.783   2.277  0.3599  0.0226 -0.7830
   62MOL   C51734799   4.373   5.751   2.320 -0.6160 -0.0240  0.4638
   62MOL   H51834800   4.240   5.855   2.676 -2.1600  0.2495  1.8377
   62MOL   H51934801   4.093   5.919   2.623  1.7447  1.3416  1.6281
   62MOL   H52034802   4.169   5.687   2.468  0.7621 -0.0764 -1.1073
   62MOL   H52134803   4.000   5.831   2.418  0.6945 -0.7932  1.4091
   62MOL   H52234804   4.389   5.810   2.533 -3.7135 -1.2841  0.7863
   62MOL   H52334805   4.308   6.003   2.319  3.3027 -1.5379 -2.4753
   62MOL   H52434806   4.308   6.031   2.501 -1.8465 -0.6286 -0.8047
   62MOL   H52534807   4.558   5.967   2.501 -0.0240  2.4667  1.9002
   62MOL   H52634808   4.506   6.185   2.473 -0.8338  0.8771 -0.9928
   62MOL   H52734809   4.506   5.971   2.195 -0.0275 -0.8881  0.9227
   62MOL   H52834810   4.731   6.066   2.267 -2.8344  0.6233  0.6421
   62MOL   H52934811   4.770   5.914   2.339 -0.5883  1.2364  1.1592
   62MOL   H53034812   4.587   5.737   2.350  0.1198  1.4077  0.3191
   62MOL   H53134813   4.538   5.741   2.178 -0.3766 -1.2727 -0.3739
   62MOL   H53234814   4.369   5.643   2.333 -0.2180 -0.4625 -2.7662
   62MOL   H53334815   4.304   5.763   2.236  0.5403 -0.6403 -0.5781
   62MOL   O53434816   4.755   5.908   2.142 -0.3173  0.5268 -0.4656
   62MOL   C53534817   4.892   5.942   2.090  0.3247 -0.4783 -0.1636
   62MOL   C53634818   4.904   5.882   1.945  0.6926  0.1997 -0.0494
   62MOL   O53734819   5.035   5.927   1.902  0.0650  0.7183  0.0143
   62MOL   C53834820   4.900   5.726   1.950 -0.4857 -0.6272  0.2129
   62MOL   C53934821   5.010   5.660   2.045  0.1018 -0.2410  0.5571
   62MOL   C54034822   5.016   5.503   2.039 -0.2986 -0.0009 -1.1212
   62MOL   O54134823   5.114   5.455   2.123  0.1960 -0.1295  0.1381
   62MOL   C54234824   5.057   5.453   1.900  0.7774  0.0718  0.0833
   62MOL   C54334825   5.053   5.297   1.885 -0.0454  0.4636 -0.1301
   62MOL   C54434826   4.951   5.521   1.798  0.4261  0.0401 -0.1288
   62MOL   C54534827   4.924   5.669   1.808  0.5504 -0.1420  0.5426
   62MOL   H54634828   4.969   5.902   2.156  0.9537  2.0977  0.7021
   62MOL   H54734829   4.893   6.050   2.081 -1.3400 -0.6235 -2.5255
   62MOL   H54834830   4.832   5.925   1.876  0.8334  2.7933  1.3457
   62MOL   H54934831   5.065   5.899   1.817 -0.8919  3.3179 -1.2184
   62MOL   H55034832   4.807   5.672   1.968 -1.4557 -0.5886 -4.0370
   62MOL   H55134833   5.107   5.702   2.019 -0.0603 -0.2934 -0.1276
   62MOL   H55234834   4.984   5.686   2.148 -0.3715  1.1327  0.1027
   62MOL   H55334835   4.921   5.456   2.066 -0.5130  1.6332  1.1126
   62MOL   H55434836   5.111   5.361   2.135  1.5374  0.0928  2.2731
   62MOL   H55534837   5.153   5.502   1.881  2.4078 -2.6589  0.9345
   62MOL   H55634838   5.072   5.270   1.781  0.7666  1.1382 -0.1708
   62MOL   H55734839   5.118   5.249   1.958 -0.1848 -1.4029 -1.2278
   62MOL   H55834840   4.858   5.471   1.825 -0.2360  2.5806  2.6033
   62MOL   H55934841   4.966   5.490   1.695  1.5527 -1.6258  0.5218
   62MOL   H56034842   4.842   5.694   1.741  1.9132  0.0744 -1.0643
   62MOL   H56134843   5.014   5.715   1.767  0.2170  1.3176  1.3672
   62MOL   H56234844   4.956   5.262   1.920 -0.2740 -0.5606 -1.7323
   63MOL     O134845   6.474   4.410   0.860 -0.2836 -0.2406  0.0249
   63MOL     C234846   6.420   4.280   0.829 -0.4387  0.2569 -0.1973
   63MOL     C334847   6.267   4.285   0.830  0.2087  0.7699  0.6993
   63MOL     O434848   6.223   4.384   0.730  0.5313 -0.5385  0.0561
   63MOL     C534849   6.192   4.157   0.797 -0.5032 -0.0547 -0.5556
   63MOL     C634850   6.043   4.178   0.784  0.6457 -0.1158  0.2954
   63MOL     C734851   5.962   4.051   0.763 -0.2115 -0.9367  0.5329
   63MOL     O834852   5.823   4.082   0.743  0.1639 -0.0750  0.1371
   63MOL     C934853   5.984   3.949   0.869  0.3097  0.1755 -0.2609
   63MOL    C1034854   5.916   3.820   0.830  0.5869 -0.4274 -0.2467
   63MOL    C1134855   6.134   3.919   0.885  0.4485 -0.9238  0.5133
   63MOL    C1234856   6.209   4.051   0.904  0.0091  0.3571 -0.1115
   63MOL    H1334857   6.458   4.212   0.905  3.1646  1.2205 -1.0174
   63MOL    H1434858   6.460   4.248   0.732  2.4114 -0.7963  1.2744
   63MOL    H1534859   6.247   4.321   0.931 -0.3041 -3.4928  2.2187
   63MOL    H1634860   6.231   4.346   0.644 -0.9511 -2.2340  0.6238
   63MOL    H1734861   6.222   4.116   0.701  0.7575  2.2119 -1.1652
   63MOL    H1834862   6.003   4.216   0.878 -0.2255  0.2691 -0.2299
   63MOL    H1934863   6.014   4.257   0.715 -0.5597 -0.2096  0.6757
   63MOL    H2034864   6.000   4.019   0.666 -0.1913 -0.6407  0.4418
   63MOL    H2134865   5.819   4.156   0.685  1.2634 -1.2838 -1.5003
   63MOL    H2234866   5.953   3.986   0.966 -0.0937 -1.5287  0.2771
   63MOL    H2334867   5.811   3.833   0.806  0.2484 -1.1595  0.7923
   63MOL    H2434868   5.969   3.773   0.747 -3.6221 -2.3445 -1.9901
   63MOL    H2534869   6.178   3.859   0.804  0.0814 -1.9842  1.0858
   63MOL    H2634870   6.140   3.861   0.977 -0.0672 -1.0074  0.4949
   63MOL    H2734871   6.313   4.023   0.892  0.3019  1.5577 -0.3763
   63MOL    H2834872   6.197   4.082   1.008 -1.1156  1.8056 -0.6551
   63MOL    H2934873   6.414   4.476   0.829  0.2732  0.7557  0.9880
   63MOL    O3034874   5.920   3.721   0.934  0.0298 -0.0568  0.1985
   63MOL    C3134875   5.918   3.586   0.893 -0.3541  0.0617 -0.1786
   63MOL    C3234876   5.801   3.542   0.800 -0.0172  0.3922  0.4434
   63MOL    O3334877   5.851   3.541   0.667 -0.5217 -0.3136  0.4705
   63MOL    C3434878   5.761   3.394   0.839 -1.0744  0.2136  0.9517
   63MOL    C3534879   5.880   3.292   0.843  0.4311  0.3649 -0.5391
   63MOL    C3634880   5.842   3.160   0.886  0.9560  0.7334 -0.1622
   63MOL    O3734881   5.966   3.086   0.892  0.1588  0.1221 -0.5330
   63MOL    C3834882   5.740   3.109   0.785  0.9407  0.2936 -0.6589
   63MOL    C3934883   5.716   2.955   0.805 -0.2807 -0.0512  0.4221
   63MOL    C4034884   5.612   3.195   0.790  0.0217  0.2727 -0.7145
   63MOL    C4134885   5.650   3.337   0.753  0.0862  0.0299 -0.3355
   63MOL    H4234886   5.916   3.539   0.992 -0.2398  1.1376  0.3387
   63MOL    H4334887   6.021   3.568   0.862 -0.9577 -2.2305 -0.9647
   63MOL    H4434888   5.721   3.614   0.814 -0.5070 -0.5252  2.5158
   63MOL    H4534889   5.789   3.489   0.619 -0.5770 -0.2194  0.4400
   63MOL    H4634890   5.717   3.401   0.938 -0.9717  2.3786  0.8830
   63MOL    H4734891   5.918   3.268   0.744 -0.6211 -0.2187 -0.8055
   63MOL    H4834892   5.962   3.333   0.902 -1.5698 -0.9939  3.4008
   63MOL    H4934893   5.802   3.162   0.987 -1.4632 -3.6110 -0.9033
   63MOL    H5034894   5.945   3.005   0.938 -0.6403 -0.4220 -1.8353
   63MOL    H5134895   5.797   3.111   0.693 -0.2063  1.4285 -1.3609
   63MOL    H5234896   5.811   2.903   0.787  0.6762  1.6015  0.6376
   63MOL    H5334897   5.677   2.936   0.905 -1.1777 -2.2395 -0.2989
   63MOL    H5434898   5.582   3.197   0.895  1.7612  1.5735 -0.2297
   63MOL    H5534899   5.527   3.157   0.732  1.8638 -0.5010 -2.9770
   63MOL    H5634900   5.566   3.404   0.767 -0.7043 -0.8494 -0.7762
   63MOL    H5734901   5.673   3.337   0.647 -2.1944 -0.9585 -0.8599
   63MOL    O5834902   5.608   2.915   0.720  0.6586  0.5255 -0.3444
   63MOL    C5934903   5.558   2.782   0.744 -0.2501  0.6114 -0.2537
   63MOL    C6034904   5.406   2.776   0.732 -0.4722  0.1158  0.1516
   63MOL    O6134905   5.370   2.643   0.702  0.1525  0.5822  0.3686
   63MOL    C6234906   5.336   2.810   0.866  0.0068  0.0269  0.0002
   63MOL    C6334907   5.191   2.787   0.860 -0.2227 -0.6703  0.2175
   63MOL    C6434908   5.126   2.818   0.992  0.5616 -0.0460 -0.1170
   63MOL    O6534909   4.994   2.796   0.980  0.1365 -1.1241  0.4083
   63MOL    C6634910   5.136   2.971   1.017 -0.1130 -0.3043 -0.1963
   63MOL    C6734911   5.068   3.018   1.143  0.2850 -0.1570 -0.9538
   63MOL    C6834912   5.283   3.020   1.015 -0.9228  0.0030 -0.0943
   63MOL    C6934913   5.360   2.960   0.897  0.0593 -0.4125  0.2330
   63MOL    H7034914   5.595   2.737   0.836 -2.2820  2.8294  1.7669
   63MOL    H7134915   5.607   2.719   0.670  0.0732  0.4436  0.1027
   63MOL    H7234916   5.373   2.846   0.656  0.9632 -0.5295 -1.1007
   63MOL    H7334917   5.298   2.646   0.642 -0.7671  2.9577  1.5176
   63MOL    H7434918   5.375   2.746   0.945 -1.0557 -1.9855 -1.0464
   63MOL    H7534919   5.139   2.849   0.787 -2.3304  0.5737  2.7108
   63MOL    H7634920   5.178   2.680   0.841 -1.4145 -0.3229 -0.9643
   63MOL    H7734921   5.160   2.768   1.083 -2.1703  2.9556  2.7396
   63MOL    H7834922   4.961   2.832   0.899  2.1298 -0.2878 -0.0458
   63MOL    H7934923   5.090   3.019   0.930  1.8850  0.3051 -0.9321
   63MOL    H8034924   4.969   2.974   1.148  0.8588 -1.2904  1.4499
   63MOL    H8134925   5.115   3.000   1.240 -0.3900 -0.0862 -0.6092
   63MOL    H8234926   5.339   2.987   1.103  1.4368 -0.1587 -1.6165
   63MOL    H8334927   5.283   3.128   1.020 -1.1986 -0.0190  0.4728
   63MOL    H8434928   5.466   2.982   0.909  0.1367 -0.9619  0.5678
   63MOL    H8534929   5.315   3.016   0.815  1.1534  0.0500 -0.0598
   63MOL    O8634930   5.048   3.160   1.129  0.0460  0.2416  0.5773
   63MOL    C8734931   4.923   3.199   1.063  0.1520  0.4578  0.0410
   63MOL    C8834932   4.918   3.351   1.047  0.6577  0.1158  0.4818
   63MOL    O8934933   4.977   3.379   0.918  0.1396 -0.0909 -0.2032
   63MOL    C9034934   4.770   3.404   1.047  1.0757  0.3953  0.7952
   63MOL    C9134935   4.666   3.326   0.959 -0.1074 -0.2669 -0.2872
   63MOL    C9234936   4.525   3.391   0.967 -0.2094  0.5474 -1.2305
   63MOL    O9334937   4.449   3.312   0.883 -0.2984  0.2983 -0.5886
   63MOL    C9434938   4.537   3.535   0.917  0.3331 -0.7320 -0.2346
   63MOL    C9534939   4.400   3.607   0.913 -0.6456  0.2482 -0.5739
   63MOL    C9634940   4.629   3.613   1.012 -0.2534  0.6228 -0.1018
   63MOL    C9734941   4.765   3.552   1.010  0.0182 -0.1215  0.3581
   63MOL    H9834942   4.845   3.180   1.137  0.4716 -0.2692  0.1959
   63MOL    H9934943   4.903   3.134   0.977 -3.8803 -1.6272  2.3659
   63MOL   H10034944   4.979   3.395   1.126  2.0866  1.7908 -1.4906
   63MOL   H10134945   4.973   3.474   0.918  2.4016  0.0681  1.7175
   63MOL   H10234946   4.723   3.392   1.145 -1.1873  0.4242 -0.2571
   63MOL   H10334947   4.694   3.328   0.854  3.2410  2.1524  0.5375
   63MOL   H10434948   4.650   3.225   0.997 -2.3115  0.2183  0.1049
   63MOL   H10534949   4.497   3.384   1.073  0.7825 -0.6733 -1.0401
   63MOL   H10634950   4.363   3.304   0.922  0.8456  2.1098  2.4728
   63MOL   H10734951   4.576   3.545   0.816 -0.5103 -0.6339 -0.5521
   63MOL   H10834952   4.345   3.599   1.007  2.3505 -0.4622  1.1880
   63MOL   H10934953   4.421   3.714   0.907  0.8871  0.0439  0.6892
   63MOL   H11034954   4.590   3.614   1.114 -2.7958 -0.6743 -1.0241
   63MOL   H11134955   4.644   3.716   0.979 -0.8735  0.8589  0.3511
   63MOL   H11234956   4.834   3.612   1.069  2.0392 -1.3558 -0.6965
   63MOL   H11334957   4.795   3.565   0.906  0.5994  1.7644  0.7384
   63MOL   O11434958   4.325   3.563   0.802  0.2845  0.1173 -0.0688
   63MOL   C11534959   4.204   3.637   0.793 -0.2888 -0.5555 -0.4259
   63MOL   C11634960   4.145   3.619   0.649 -0.3399  0.2028 -0.0401
   63MOL   O11734961   4.090   3.489   0.628  0.1322 -0.3816 -0.5360
   63MOL   C11834962   4.020   3.704   0.614  0.4110 -0.0081 -0.3267
   63MOL   C11934963   4.043   3.854   0.583 -0.1467 -0.4301  0.6550
   63MOL   C12034964   3.921   3.923   0.520  0.1350 -0.3944  0.3194
   63MOL   O12134965   3.948   4.059   0.489 -0.0974  0.2381  0.4858
   63MOL   C12234966   3.795   3.912   0.614  0.6796  0.3684  0.2207
   63MOL   C12334967   3.681   3.989   0.553 -0.2687  0.7028  0.2332
   63MOL   C12434968   3.769   3.760   0.637 -0.5594 -0.5279  0.3073
   63MOL   C12534969   3.892   3.684   0.695  0.1495  0.1390 -0.4506
   63MOL   H12634970   4.208   3.743   0.821 -2.3244 -0.3347 -0.8663
   63MOL   H12734971   4.142   3.591   0.870 -1.3107  0.1708 -0.8042
   63MOL   H12834972   4.219   3.632   0.570 -0.6407  0.5495 -0.2651
   63MOL   H12934973   4.152   3.420   0.645 -1.0366 -1.0424  1.2225
   63MOL   H13034974   3.991   3.659   0.519 -1.5917 -2.3685  1.3336
   63MOL   H13134975   4.082   3.900   0.674 -0.7144 -0.9264  1.1529
   63MOL   H13234976   4.116   3.859   0.502  0.2236  4.6235  1.1438
   63MOL   H13334977   3.901   3.871   0.426 -0.5140  3.3466 -1.6960
   63MOL   H13434978   3.897   4.078   0.413 -1.2087 -3.7838  0.0948
   63MOL   H13534979   3.823   3.942   0.715  0.8660 -0.9577  0.5663
   63MOL   H13634980   3.671   3.963   0.448 -0.9621 -2.0887  0.9323
   63MOL   H13734981   3.588   3.956   0.600 -1.2123 -0.2183 -2.2171
   63MOL   H13834982   3.734   3.701   0.553 -1.3053 -0.6624  0.7027
   63MOL   H13934983   3.680   3.761   0.701  0.1667 -0.7318  1.3459
   63MOL   H14034984   3.859   3.581   0.707 -1.0107  0.0117 -4.3154
   63MOL   H14134985   3.912   3.717   0.797 -0.0873 -0.4063 -0.2260
   63MOL   O14234986   3.703   4.120   0.595 -0.7636  0.0477 -0.3077
   63MOL   C14334987   3.604   4.215   0.572 -0.1175  0.8867  0.2695
   63MOL   C14434988   3.631   4.340   0.656 -0.5691  0.1293 -0.1832
   63MOL   O14534989   3.759   4.392   0.625  0.0516  0.7832 -0.9352
   63MOL   C14634990   3.527   4.449   0.640 -0.3317 -0.6926 -0.9592
   63MOL   C14734991   3.567   4.571   0.731 -0.0129  0.0885  0.2808
   63MOL   C14834992   3.465   4.683   0.737  0.3467 -0.2210  0.1319
   63MOL   O14934993   3.501   4.766   0.849  0.2206 -0.1567 -0.4490
   63MOL   C15034994   3.321   4.633   0.764  0.0458  0.1763  1.1822
   63MOL   C15134995   3.209   4.737   0.774  0.3304  0.0842  0.0385
   63MOL   C15234996   3.290   4.524   0.666 -0.0487  0.1653 -0.2814
   63MOL   C15334997   3.385   4.404   0.668  0.1983  0.0235  0.1374
   63MOL   H15434998   3.514   4.161   0.603  0.6127 -0.1921  0.5579
   63MOL   H15534999   3.606   4.243   0.467  0.6280 -0.9455 -0.2259
   63MOL   H15635000   3.646   4.325   0.763 -3.2752  2.2753  0.5703
   63MOL   H15735001   3.822   4.327   0.651 -0.4987  0.1251 -1.2136
   63MOL   H15835002   3.541   4.485   0.538  0.0732  0.0509 -0.6428
   63MOL   H15935003   3.606   4.537   0.827 -0.8703 -0.0491  0.5820
   63MOL   H16035004   3.656   4.617   0.687 -1.0771  1.8974 -0.0512
   63MOL   H16135005   3.464   4.736   0.643  0.9874  0.0998  0.3068
   63MOL   H16235006   3.433   4.826   0.876  1.0189  1.0742 -1.0853
   63MOL   H16335007   3.317   4.579   0.859  0.5945 -1.8756  0.0600
   63MOL   H16435008   3.201   4.781   0.675  0.9199 -1.0540 -0.5250
   63MOL   H16535009   3.116   4.686   0.796  0.5319 -0.8721 -1.2446
   63MOL   H16635010   3.297   4.569   0.567  0.8819  0.5483 -0.0448
   63MOL   H16735011   3.187   4.494   0.687  0.5156 -0.1180  2.2428
   63MOL   H16835012   3.368   4.352   0.574  1.5194 -2.0346  0.9850
   63MOL   H16935013   3.374   4.351   0.763 -0.2009 -0.2295 -0.0464
   63MOL   O17035014   3.236   4.843   0.869 -0.0831  0.5725 -0.3938
   63MOL   C17135015   3.161   4.959   0.839 -0.2494  0.1352 -0.1856
   63MOL   C17235016   3.155   5.064   0.957 -0.0828  0.2274 -0.1983
   63MOL   O17335017   3.065   5.167   0.914  0.0460 -0.1643  0.2154
   63MOL   C17435018   3.105   5.012   1.092  0.4412  0.4958 -0.5481
   63MOL   C17535019   2.961   4.956   1.088 -0.2255 -0.2465  0.5148
   63MOL   C17635020   2.905   4.919   1.221  0.4800  0.4872 -0.1725
   63MOL   O17735021   2.768   4.881   1.202 -0.0119 -0.4352  0.1953
   63MOL   C17835022   2.918   5.028   1.335  0.1135  0.4422  0.1188
   63MOL   C17935023   2.878   4.982   1.475 -0.3051 -0.2976 -0.0242
   63MOL   C18035024   3.064   5.073   1.336  0.3258  0.4108 -0.1230
   63MOL   C18135025   3.118   5.126   1.203  0.7380 -0.0832  0.0739
   63MOL   H18235026   3.058   4.930   0.818  0.2069 -1.1491 -0.6801
   63MOL   H18335027   3.195   5.014   0.751  0.2174  0.6265  0.2892
   63MOL   H18435028   3.250   5.114   0.973 -0.7175  0.5715  2.8850
   63MOL   H18535029   2.974   5.151   0.935 -0.2740  2.5517  1.0980
   63MOL   H18635030   3.171   4.934   1.130 -0.4784 -0.6641 -1.2868
   63MOL   H18735031   2.894   5.023   1.035  1.9772 -0.4689 -2.7248
   63MOL   H18835032   2.975   4.868   1.025 -1.5548 -1.5917  2.0686
   63MOL   H18935033   2.963   4.831   1.250 -0.3170 -0.6906 -2.0867
   63MOL   H19035034   2.710   4.955   1.197 -1.7791 -1.6331  2.0982
   63MOL   H19135035   2.860   5.114   1.299 -0.5201  0.1765  0.5004
   63MOL   H19235036   2.875   5.076   1.529 -0.1637 -0.1334 -0.3037
   63MOL   H19335037   2.774   4.952   1.463 -0.7167  0.8512  0.5893
   63MOL   H19435038   3.132   4.990   1.356  0.1071  0.1232 -0.5503
   63MOL   H19535039   3.073   5.141   1.420 -1.4476 -0.5713  0.8802
   63MOL   H19635040   3.223   5.156   1.214  0.4418  0.4944  1.3891
   63MOL   H19735041   3.066   5.215   1.169  3.2010  0.8036 -1.5131
   63MOL   O19835042   2.965   4.896   1.549 -0.1588 -0.3258  0.2299
   63MOL   C19935043   2.945   4.868   1.685 -0.0835  0.0017  0.3785
   63MOL   C20035044   3.009   4.732   1.696 -0.5265  0.0730  0.4604
   63MOL   O20135045   2.969   4.649   1.596  1.3979  0.1820 -0.0425
   63MOL   C20235046   3.168   4.721   1.704  0.1872  0.6623  0.2631
   63MOL   C20335047   3.243   4.769   1.582 -0.1951 -0.1275 -0.4815
   63MOL   C20435048   3.398   4.765   1.625 -0.0068  0.0127  0.7414
   63MOL   O20535049   3.485   4.809   1.520 -0.0588 -0.2809  0.6317
   63MOL   C20635050   3.447   4.620   1.661 -0.6488 -0.5555 -0.5434
   63MOL   C20735051   3.596   4.630   1.701  0.2918  0.5303  0.4597
   63MOL   C20835052   3.372   4.577   1.781  0.9373 -0.2349 -0.1958
   63MOL   C20935053   3.222   4.584   1.755 -0.5167  0.1464  0.7947
   63MOL   H21035054   2.840   4.853   1.710 -0.1360 -3.6389 -1.8206
   63MOL   H21135055   2.979   4.949   1.750  2.5787 -0.2835 -0.5859
   63MOL   H21235056   2.975   4.695   1.793 -1.2687  0.0891  0.2044
   63MOL   H21335057   2.946   4.710   1.527 -3.0883  0.2740  1.4050
   63MOL   H21435058   3.193   4.794   1.780 -0.8536  1.4080 -0.0906
   63MOL   H21535059   3.216   4.695   1.507  2.3480 -0.0703 -1.5048
   63MOL   H21635060   3.212   4.869   1.550  0.3179 -0.0691 -0.7912
   63MOL   H21735061   3.408   4.835   1.708 -1.8335  1.0331  0.1280
   63MOL   H21835062   3.467   4.778   1.433 -2.6185  1.1986  0.5723
   63MOL   H21935063   3.422   4.547   1.583  0.2517 -2.0567  0.5428
   63MOL   H22035064   3.657   4.668   1.619 -0.7382  2.8036  0.7086
   63MOL   H22135065   3.607   4.707   1.776 -0.6642  1.0836  0.0352
   63MOL   H22235066   3.407   4.632   1.868 -1.1573  0.0794  0.4615
   63MOL   H22335067   3.398   4.472   1.794  1.1688 -0.1384  0.1223
   63MOL   H22435068   3.177   4.580   1.854 -0.2510  3.7384  1.1368
   63MOL   H22535069   3.177   4.506   1.694  0.8109 -0.0007 -0.0023
   63MOL   O22635070   3.657   4.512   1.751 -0.1571  0.1696 -0.3443
   63MOL   C22735071   3.695   4.508   1.889 -0.1068  0.4214 -0.5870
   63MOL   C22835072   3.759   4.367   1.895 -0.5589 -0.4005 -0.1560
   63MOL   O22935073   3.893   4.379   1.834 -0.6748 -0.2612  0.1517
   63MOL   C23035074   3.772   4.301   2.030 -0.0131 -0.4568 -0.1233
   63MOL   C23135075   3.851   4.378   2.131 -0.3014 -0.1376  0.5088
   63MOL   C23235076   3.853   4.310   2.268 -0.0931  0.2860 -0.0504
   63MOL   O23335077   3.940   4.376   2.358  0.3536 -0.0334  0.2265
   63MOL   C23435078   3.874   4.161   2.265  1.0293  0.7691 -0.6765
   63MOL   C23535079   3.825   4.098   2.407 -0.1629  0.2884 -0.3154
   63MOL   C23635080   3.813   4.081   2.143 -0.4307 -0.1608 -0.2949
   63MOL   C23735081   3.830   4.155   2.014 -0.1596 -0.9550  0.1124
   63MOL   H23835082   3.622   4.527   1.968 -1.9531  0.2615 -2.2448
   63MOL   H23935083   3.771   4.587   1.892  1.6254 -1.1878 -1.1787
   63MOL   H24035084   3.701   4.301   1.830 -3.5160  2.4631 -0.5883
   63MOL   H24135085   3.890   4.432   1.756 -0.3442 -0.8548 -0.2696
   63MOL   H24235086   3.670   4.299   2.067 -0.0663 -1.9142 -0.3122
   63MOL   H24335087   3.950   4.398   2.090  1.1121 -4.5307  1.5328
   63MOL   H24435088   3.797   4.473   2.130  0.8826  0.5399  0.0562
   63MOL   H24535089   3.755   4.331   2.309 -0.1956 -0.9159  0.3233
   63MOL   H24635090   3.927   4.469   2.358 -1.1199 -0.2142  1.4064
   63MOL   H24735091   3.980   4.136   2.271  0.3852 -2.3198 -0.9725
   63MOL   H24835092   3.876   4.133   2.496 -0.7801  2.2435 -0.6945
   63MOL   H24935093   3.724   4.138   2.416  1.5216  4.5851  1.0064
   63MOL   H25035094   3.706   4.066   2.156 -1.3620  2.2042 -4.2189
   63MOL   H25135095   3.866   3.986   2.141  1.5198  0.8895 -2.1540
   63MOL   H25235096   3.763   4.109   1.941 -2.0001  0.1794  1.0545
   63MOL   H25335097   3.934   4.155   1.981 -0.4220  0.7448 -0.8052
   63MOL   O25435098   3.853   3.961   2.401 -0.2878  0.2357  0.2842
   63MOL   C25535099   3.776   3.878   2.489 -0.9536 -0.4168  0.1861
   63MOL   C25635100   3.641   3.826   2.443 -0.4227 -0.0527 -0.6814
   63MOL   O25735101   3.595   3.729   2.538 -0.3163 -0.1133 -0.2145
   63MOL   C25835102   3.537   3.934   2.442  1.0337 -0.1737 -0.4453
   63MOL   C25935103   3.513   4.014   2.571 -0.1844 -0.1438  0.1647
   63MOL   C26035104   3.405   4.125   2.549  0.3450 -0.0252 -0.3388
   63MOL   O26135105   3.377   4.183   2.672  0.0482  0.4287  0.5285
   63MOL   C26235106   3.275   4.074   2.479  0.4702 -0.2709 -0.4798
   63MOL   C26335107   3.184   4.183   2.429 -0.8829 -0.1020 -0.7683
   63MOL   C26435108   3.307   3.983   2.357 -0.6788  0.4217  0.0999
   63MOL   C26535109   3.405   3.872   2.392 -0.8064  0.3232  0.2610
   63MOL   H26635110   3.776   3.917   2.591 -0.2857  1.2716 -0.4321
   63MOL   H26735111   3.833   3.787   2.510 -0.1314  0.5118  2.1031
   63MOL   H26835112   3.654   3.780   2.345  0.7848  1.1164 -1.0918
   63MOL   H26935113   3.536   3.667   2.497 -0.2597 -0.0362 -0.4106
   63MOL   H27035114   3.556   4.007   2.363 -1.2795  1.9202  0.8357
   63MOL   H27135115   3.469   3.958   2.653  0.0108 -1.6398 -0.7367
   63MOL   H27235116   3.605   4.064   2.604 -1.1661  0.1557  2.5480
   63MOL   H27335117   3.445   4.194   2.475  1.0697 -1.7396 -1.5712
   63MOL   H27435118   3.287   4.212   2.664  0.4251  1.3863 -0.2299
   63MOL   H27535119   3.212   4.019   2.550  0.2030  1.5187  0.6972
   63MOL   H27635120   3.238   4.266   2.384 -0.6469 -0.9735 -2.1443
   63MOL   H27735121   3.106   4.150   2.360 -0.5077 -0.3672 -1.0707
   63MOL   H27835122   3.323   4.042   2.267  2.2135  1.0775  1.0086
   63MOL   H27935123   3.219   3.943   2.306  0.7336  1.1512 -3.0179
   63MOL   H28035124   3.426   3.812   2.304 -0.1492  0.2930  0.4340
   63MOL   H28135125   3.368   3.799   2.464 -0.7637 -1.0280 -1.0751
   63MOL   O28235126   3.126   4.235   2.544  0.5253  0.2245 -0.0857
   63MOL   C28335127   3.039   4.345   2.539  0.1737  0.3095 -0.0431
   63MOL   C28435128   2.985   4.364   2.676  0.2256  0.1851  0.2689
   63MOL   O28535129   2.957   4.502   2.683 -0.3365 -0.1100 -0.5160
   63MOL   C28635130   2.866   4.286   2.731 -0.3952 -0.5454 -0.1524
   63MOL   C28735131   2.879   4.274   2.878  0.2894  0.1336 -0.1413
   63MOL   C28835132   2.776   4.190   2.952 -0.1014 -0.8972 -0.2837
   63MOL   O28935133   2.815   4.176   3.086 -0.1028  0.1440  0.1866
   63MOL   C29035134   2.784   4.052   2.887  0.3263 -0.0496  0.3597
   63MOL   C29135135   2.686   3.954   2.950  0.4109  0.1311 -0.5247
   63MOL   C29235136   2.743   4.064   2.738  0.7017 -0.0802 -0.1425
   63MOL   C29335137   2.851   4.148   2.670  0.4602 -0.4973 -0.5140
   63MOL   H29435138   2.966   4.314   2.465  0.9099 -1.7391  0.0682
   63MOL   H29535139   3.099   4.428   2.500 -2.1540  1.7805 -0.5788
   63MOL   H29635140   3.067   4.340   2.744 -1.8248 -0.1675  2.6977
   63MOL   H29735141   2.973   4.514   2.776 -2.2842  1.0447 -0.3156
   63MOL   H29835142   2.778   4.344   2.702 -1.0485 -1.8949 -0.9253
   63MOL   H29935143   2.980   4.247   2.907  0.7236  1.3651 -0.4593
   63MOL   H30035144   2.873   4.373   2.923 -1.4674 -0.2631  0.5389
   63MOL   H30135145   2.677   4.232   2.938 -0.2480 -1.4631 -0.9892
   63MOL   H30235146   2.908   4.162   3.075 -0.1686  0.2650 -0.5678
   63MOL   H30335147   2.883   4.010   2.902  0.1158 -0.3884  0.8238
   63MOL   H30435148   2.690   3.949   3.059  0.5039 -1.3486 -0.5890
   63MOL   H30535149   2.588   3.994   2.923  1.2039  1.6806 -1.1942
   63MOL   H30635150   2.643   4.107   2.729  0.9663  0.9171  1.4976
   63MOL   H30735151   2.733   3.968   2.686  1.4543  0.8487 -2.0561
   63MOL   H30835152   2.833   4.155   2.563  1.5010  3.5614 -0.4897
   63MOL   H30935153   2.943   4.089   2.667  0.7148 -0.0561 -1.3213
   63MOL   O31035154   2.697   3.824   2.899 -0.0354 -0.1004  0.1924
   63MOL   C31135155   2.657   3.717   2.982  0.7522 -0.1328 -0.3408
   63MOL   C31235156   2.698   3.583   2.922  0.2507 -0.4074  0.5022
   63MOL   O31335157   2.678   3.478   3.015 -0.3875 -0.2027  0.6221
   63MOL   C31435158   2.633   3.557   2.785  0.4761  0.2565 -0.0232
   63MOL   C31535159   2.487   3.512   2.796  0.4169  0.1237  0.4172
   63MOL   C31635160   2.419   3.483   2.659 -0.3796 -0.1844 -0.2068
   63MOL   O31735161   2.288   3.428   2.686  0.4905  0.0900  0.3288
   63MOL   C31835162   2.507   3.390   2.573 -0.1888  0.2661  0.3267
   63MOL   C31935163   2.441   3.383   2.439 -0.2739  0.7508  0.1581
   63MOL   C32035164   2.642   3.464   2.552 -0.6416  0.5239 -0.0361
   63MOL   C32135165   2.717   3.467   2.693  0.0360 -0.0414 -0.5056
   63MOL   H32235166   2.549   3.707   2.987  0.7295 -0.4247 -1.4154
   63MOL   H32335167   2.693   3.729   3.085  0.2791 -1.8286  0.0447
   63MOL   H32435168   2.807   3.587   2.912  0.3050 -0.1708  1.1517
   63MOL   H32535169   2.736   3.407   2.993 -1.5153 -0.7447 -0.6371
   63MOL   H32635170   2.628   3.655   2.738  0.2439 -0.5660 -1.7235
   63MOL   H32735171   2.497   3.412   2.839 -0.0013  0.2698  0.8571
   63MOL   H32835172   2.429   3.575   2.863  0.3616  0.2750  0.2266
   63MOL   H32935173   2.405   3.579   2.610  1.3506  0.5759  0.7276
   63MOL   H33035174   2.229   3.495   2.656  1.7381  0.0722 -2.2912
   63MOL   H33135175   2.522   3.293   2.621  0.4790 -0.2946 -0.9576
   63MOL   H33235176   2.365   3.306   2.436  1.4222 -0.9141 -2.5151
   63MOL   H33335177   2.388   3.476   2.418 -2.0365 -0.6262 -1.6860
   63MOL   H33435178   2.629   3.561   2.505  0.5668  0.1638 -1.1097
   63MOL   H33535179   2.705   3.408   2.484 -0.4592  0.2804  0.3288
   63MOL   H33635180   2.815   3.515   2.681 -1.0687  2.3434 -0.3337
   63MOL   H33735181   2.729   3.366   2.732  0.7559  0.5426  0.8097
   63MOL   O33835182   2.536   3.342   2.342 -0.2146  1.0802  0.0070
   63MOL   C33935183   2.485   3.347   2.204  0.1893  0.2255  0.2032
   63MOL   C34035184   2.585   3.305   2.100  0.0440  0.2071 -0.4038
   63MOL   O34135185   2.598   3.170   2.106  0.1767 -0.3495 -0.2969
   63MOL   C34235186   2.556   3.334   1.953  0.3048  0.1462  0.2396
   63MOL   C34335187   2.673   3.288   1.853  0.4553  0.2344 -0.0037
   63MOL   C34435188   2.638   3.306   1.700 -0.0938 -0.1710 -0.1273
   63MOL   O34535189   2.757   3.293   1.630  0.0209  0.9342 -0.2027
   63MOL   C34635190   2.590   3.452   1.686  0.1673 -0.5816  0.2665
   63MOL   C34735191   2.543   3.476   1.545 -0.0247 -0.0934  0.2924
   63MOL   C34835192   2.482   3.500   1.790 -0.0894 -0.6797 -0.0631
   63MOL   C34935193   2.524   3.481   1.931  0.6704 -0.1235  1.1244
   63MOL   H35035194   2.465   3.454   2.202 -0.5471  0.1095  1.0190
   63MOL   H35135195   2.390   3.295   2.210  1.8181 -2.7171  1.2946
   63MOL   H35235196   2.679   3.356   2.124 -0.8033  1.1516  1.0040
   63MOL   H35335197   2.616   3.146   2.196 -0.9375  1.1461  0.3490
   63MOL   H35435198   2.470   3.273   1.926 -0.6901  1.5177  0.2488
   63MOL   H35535199   2.763   3.344   1.879  1.4926 -0.7671 -1.3589
   63MOL   H35635200   2.698   3.185   1.880  1.4999  0.6326  0.5920
   63MOL   H35735201   2.566   3.231   1.668  0.0464 -0.0862 -0.6434
   63MOL   H35835202   2.773   3.343   1.552  0.0703 -1.2931 -1.6625
   63MOL   H35935203   2.678   3.513   1.707  0.1520 -0.8271  1.0525
   63MOL   H36035204   2.603   3.445   1.460  1.4247 -2.5557  2.1560
   63MOL   H36135205   2.449   3.421   1.535 -0.6752  0.9956  0.3078
   63MOL   H36235206   2.390   3.446   1.769  1.4560 -3.4373  0.0739
   63MOL   H36335207   2.468   3.608   1.783  0.4669 -0.6385 -0.6177
   63MOL   H36435208   2.454   3.532   1.996  0.7227  1.4271 -0.0018
   63MOL   H36535209   2.617   3.534   1.953  1.4607 -0.4791 -1.2181
   63MOL   O36635210   2.513   3.613   1.525  0.0162  0.4219 -0.1349
   63MOL   C36735211   2.421   3.619   1.417  0.0042  0.0051 -0.1004
   63MOL   C36835212   2.412   3.759   1.355  0.1658 -0.1095 -0.6412
   63MOL   O36935213   2.425   3.839   1.469 -0.5036  0.0086  0.0096
   63MOL   C37035214   2.510   3.800   1.244  0.5455  0.2399  0.6297
   63MOL   C37135215   2.655   3.810   1.290 -0.0219 -0.1057 -0.1051
   63MOL   C37235216   2.755   3.846   1.177  0.2665 -0.2591 -0.1955
   63MOL   O37335217   2.884   3.859   1.234  0.9804 -0.3066  0.1779
   63MOL   C37435218   2.712   3.982   1.105 -0.1439  0.1096  0.1190
   63MOL   C37535219   2.807   4.014   0.989  1.4273  0.1425  0.4555
   63MOL   C37635220   2.565   3.983   1.060  0.7033 -0.2621  0.0708
   63MOL   C37735221   2.465   3.935   1.176 -1.2646  0.0287 -0.2540
   63MOL   H37835222   2.324   3.594   1.459 -0.8205  2.3115 -0.5389
   63MOL   H37935223   2.430   3.538   1.345  1.6744  0.0057  0.0769
   63MOL   H38035224   2.314   3.774   1.308 -0.8639  2.9985  2.3225
   63MOL   H38135225   2.501   3.808   1.516  0.2463 -0.9120 -1.7708
   63MOL   H38235226   2.496   3.732   1.160 -2.4912  1.5716  0.0088
   63MOL   H38335227   2.662   3.889   1.366  1.0103 -0.9819  0.7265
   63MOL   H38435228   2.678   3.719   1.346  1.6932  0.5226  0.2400
   63MOL   H38535229   2.752   3.781   1.089 -0.2081  0.5047 -0.7513
   63MOL   H38635230   2.892   3.812   1.316 -1.0126  0.2530  0.7247
   63MOL   H38735231   2.713   4.063   1.177  1.7781  1.3305 -1.2347
   63MOL   H38835232   2.896   4.042   1.046  1.7661  1.0112 -0.4751
   63MOL   H38935233   2.839   3.929   0.929 -0.2171 -0.6479  0.6702
   63MOL   H39035234   2.542   3.934   0.966 -0.7045 -0.6908  0.6200
   63MOL   H39135235   2.542   4.087   1.037  1.2012  0.2284  1.6769
   63MOL   H39235236   2.359   3.938   1.154 -1.0069  2.5771 -1.2573
   63MOL   H39335237   2.474   4.007   1.257  3.1305 -0.7606  0.0835
   63MOL   O39435238   2.761   4.122   0.915  0.2035  0.5744  0.6816
   63MOL   C39535239   2.858   4.175   0.827  0.5622  0.3627  0.3120
   63MOL   C39635240   2.943   4.290   0.874  0.9897  0.5696  0.2898
   63MOL   O39735241   3.072   4.301   0.816  0.0281 -0.3335  0.2593
   63MOL   C39835242   2.875   4.423   0.848 -0.4783 -0.4518 -0.4298
   63MOL   C39935243   2.746   4.429   0.932 -0.5937 -0.2554 -0.5252
   63MOL   C40035244   2.693   4.575   0.919 -0.4189  0.2803  0.0460
   63MOL   O40135245   2.562   4.574   0.965  0.3110 -0.4443 -0.5692
   63MOL   C40235246   2.684   4.642   0.781  0.4212 -0.2092  0.1217
   63MOL   C40335247   2.679   4.794   0.798 -0.6345 -0.1597  0.1409
   63MOL   C40435248   2.804   4.606   0.692  0.0490 -0.3996  0.7992
   63MOL   C40535249   2.860   4.463   0.700 -0.1227  0.0877  0.5882
   63MOL   H40635250   2.802   4.198   0.736  1.1373  1.6977  0.2921
   63MOL   H40735251   2.925   4.093   0.799  0.1388 -0.2810  1.1878
   63MOL   H40835252   2.963   4.262   0.978 -3.0097 -0.6086  0.8152
   63MOL   H40935253   3.124   4.225   0.834 -1.1793 -1.2723 -0.1798
   63MOL   H41035254   2.945   4.494   0.892 -3.3549  0.9020  2.2363
   63MOL   H41135255   2.674   4.358   0.891 -1.4784  0.3839 -0.1056
   63MOL   H41235256   2.767   4.414   1.038  1.6372 -1.8204 -1.1634
   63MOL   H41335257   2.743   4.635   0.995 -0.6920 -1.8440  1.9384
   63MOL   H41435258   2.568   4.569   1.059  1.8037 -0.2095 -0.6406
   63MOL   H41535259   2.599   4.624   0.715  0.1066  0.1938  0.4140
   63MOL   H41635260   2.576   4.814   0.827 -0.3354 -0.0042  1.1507
   63MOL   H41735261   2.736   4.824   0.887 -0.0296 -1.4285  0.1838
   63MOL   H41835262   2.887   4.672   0.718 -0.2965 -0.0888  1.1289
   63MOL   H41935263   2.783   4.636   0.589  0.1002 -0.1402  0.8641
   63MOL   H42035264   2.954   4.454   0.645 -0.5918 -1.2684 -0.0066
   63MOL   H42135265   2.797   4.390   0.651  1.9901 -1.4731  0.1059
   63MOL   O42235266   2.719   4.866   0.678 -0.4661 -0.1257  0.5843
   63MOL   C42335267   2.709   5.007   0.690 -0.1829  0.2204 -0.4228
   63MOL   C42435268   2.829   5.058   0.594  0.5613 -0.2505 -0.4888
   63MOL   O42535269   2.809   5.032   0.453  0.1071 -0.2751 -0.1522
   63MOL   C42635270   2.851   5.219   0.608 -0.8607  0.5172  0.7261
   63MOL   C42735271   2.753   5.307   0.538 -0.3183  0.4937  0.0076
   63MOL   C42835272   2.780   5.450   0.575  0.1913 -0.0162  0.8215
   63MOL   O42935273   2.683   5.534   0.501 -0.3682  0.1956  0.1580
   63MOL   C43035274   2.916   5.498   0.529  0.2071 -0.8177 -1.0037
   63MOL   C43135275   2.945   5.641   0.573 -0.1053  0.1126  0.7095
   63MOL   C43235276   3.031   5.403   0.586  0.2005  0.0571  0.3296
   63MOL   C43335277   2.998   5.256   0.561  0.3214 -0.3382 -0.1689
   63MOL   H43435278   2.734   5.040   0.791  1.4375  2.8817 -1.6294
   63MOL   H43535279   2.610   5.041   0.661  0.0839  1.2896 -0.1066
   63MOL   H43635280   2.924   5.019   0.629  1.1323  0.6758 -1.0100
   63MOL   H43735281   2.723   5.063   0.427 -0.2953 -0.6851  0.6672
   63MOL   H43835282   2.834   5.237   0.714  0.7876  0.5381  0.9995
   63MOL   H43935283   2.756   5.292   0.429 -1.6466  0.6627 -0.0513
   63MOL   H44035284   2.651   5.284   0.569 -0.2472  3.9011  3.0708
   63MOL   H44135285   2.768   5.469   0.682 -1.0595 -0.6210  0.7978
   63MOL   H44235286   2.596   5.503   0.521  0.5940 -2.2799  0.7017
   63MOL   H44335287   2.916   5.490   0.420 -3.2459  0.1153 -1.1569
   63MOL   H44435288   3.021   5.683   0.507  0.8494 -3.0435 -0.2530
   63MOL   H44535289   2.861   5.711   0.568  1.6510  2.2492  0.1837
   63MOL   H44635290   3.044   5.417   0.693  1.0964  1.3029  0.0743
   63MOL   H44735291   3.130   5.421   0.543 -0.1769 -1.1436 -1.0823
   63MOL   H44835292   3.079   5.199   0.608 -0.2192 -1.2701 -0.3653
   63MOL   H44935293   3.004   5.244   0.453 -2.9081  2.0121 -0.6727
   63MOL   O45035294   3.006   5.644   0.696  0.0695 -0.6249  0.4504
   63MOL   C45135295   2.974   5.761   0.770  0.2814  0.2604 -0.1877
   63MOL   C45235296   3.048   5.887   0.726  0.4617 -0.1471 -0.3127
   63MOL   O45335297   2.982   5.950   0.614 -0.0360 -0.2882  0.1033
   63MOL   C45435298   3.061   5.990   0.844  0.4208  0.7120 -0.4010
   63MOL   C45535299   2.926   6.031   0.909 -0.3523  0.0262  0.2893
   63MOL   C45635300   2.934   6.143   1.010  0.5102 -0.9715 -0.0624
   63MOL   O45735301   2.808   6.184   1.041 -0.0550  0.0523 -0.0647
   63MOL   C45835302   3.020   6.260   0.954 -0.0010  0.6530  0.3659
   63MOL   C45935303   3.038   6.373   1.057 -0.1655 -0.3774  0.3713
   63MOL   C46035304   3.154   6.215   0.913 -0.6521  0.0933 -0.0221
   63MOL   C46135305   3.147   6.107   0.799  0.4281  0.4950  0.0025
   63MOL   H46235306   3.011   5.740   0.870  0.8155  0.3058 -0.3723
   63MOL   H46335307   2.867   5.780   0.771 -0.3620 -3.0978  1.6786
   63MOL   H46435308   3.148   5.851   0.701 -0.2612 -1.3821 -1.5038
   63MOL   H46535309   2.890   5.957   0.634 -0.2313  0.3586 -0.9679
   63MOL   H46635310   3.112   5.930   0.919 -2.4335  0.7092  1.6252
   63MOL   H46735311   2.864   6.072   0.829  0.5407 -0.3701 -0.6267
   63MOL   H46835312   2.866   5.948   0.946  2.8416 -2.3383  0.3676
   63MOL   H46935313   2.980   6.112   1.104  0.3910  0.5518  0.5137
   63MOL   H47035314   2.782   6.256   0.985  0.9278 -1.6339 -2.7828
   63MOL   H47135315   2.957   6.303   0.875  1.3685 -0.1447 -1.1795
   63MOL   H47235316   2.938   6.402   1.089  0.2458  1.9741 -0.4313
   63MOL   H47335317   3.096   6.340   1.144 -0.7972 -0.8065  0.6298
   63MOL   H47435318   3.200   6.173   1.002 -1.6891 -0.2651  0.3526
   63MOL   H47535319   3.207   6.304   0.879  0.3000 -0.5271 -0.2092
   63MOL   H47635320   3.246   6.083   0.760 -1.5665 -1.2939 -4.2634
   63MOL   H47735321   3.099   6.159   0.716  0.0896 -1.1865 -0.8567
   63MOL   O47835322   3.085   6.478   0.979 -0.1189  0.2422 -0.1198
   63MOL   C47935323   3.126   6.588   1.050 -0.6463  0.3179  0.5900
   63MOL   C48035324   3.162   6.690   0.942  0.2763 -0.6843  0.4783
   63MOL   O48135325   3.196   6.809   1.013 -0.2027  0.0014  0.5297
   63MOL   C48235326   3.269   6.639   0.846  0.5083 -0.9984  0.3432
   63MOL   C48335327   3.403   6.589   0.912 -0.2080  0.1561 -0.4440
   63MOL   C48435328   3.511   6.558   0.810 -0.7996 -0.2202  0.4885
   63MOL   O48535329   3.627   6.546   0.889 -0.1231 -0.0030 -0.1122
   63MOL   C48635330   3.539   6.678   0.713 -0.0785  0.0506  0.2090
   63MOL   C48735331   3.647   6.638   0.616 -0.0281 -0.2774  0.0297
   63MOL   C48835332   3.403   6.704   0.650  0.2015 -0.0315  0.0090
   63MOL   C48935333   3.296   6.748   0.745 -0.1766  0.3512 -0.3863
   63MOL   H49035334   3.213   6.559   1.108 -0.5275 -2.0315 -0.6901
   63MOL   H49135335   3.043   6.626   1.110 -1.1270  0.6164 -0.2570
   63MOL   H49235336   3.069   6.701   0.885  1.4249  0.6996 -1.1912
   63MOL   H49335337   3.265   6.777   1.070  0.0842 -0.7456 -0.2242
   63MOL   H49435338   3.233   6.549   0.796 -3.5341  0.1832  1.0351
   63MOL   H49535339   3.435   6.670   0.977 -1.7182  0.5059 -0.1326
   63MOL   H49635340   3.380   6.501   0.973  0.1908  0.0253 -0.4800
   63MOL   H49735341   3.490   6.462   0.765  0.9080 -0.1133 -0.5805
   63MOL   H49835342   3.710   6.551   0.844  0.2981 -0.9640  0.5375
   63MOL   H49935343   3.567   6.768   0.768 -2.7027  1.5870 -0.8634
   63MOL   H50035344   3.621   6.554   0.552  0.1347 -0.2597 -0.0590
   63MOL   H50135345   3.637   6.715   0.540 -2.0692 -0.0467  0.4987
   63MOL   H50235346   3.371   6.632   0.575  2.2732 -0.2206 -0.7424
   63MOL   H50335347   3.412   6.791   0.585  1.5035  0.5862  0.9869
   63MOL   H50435348   3.199   6.768   0.700 -0.6791 -0.6535  0.2371
   63MOL   H50535349   3.320   6.846   0.788 -0.2931  0.1673  0.1046
   63MOL   O50635350   3.774   6.634   0.686  0.0618  0.0092  0.2928
   63MOL   C50735351   3.884   6.632   0.597  0.1288  0.4163  0.8181
   63MOL   C50835352   4.016   6.661   0.673  0.0952 -0.0508  0.0500
   63MOL   O50935353   4.021   6.804   0.690 -0.4684  0.4763  0.4598
   63MOL   C51035354   4.030   6.576   0.798 -0.3943  0.3311  0.1572
   63MOL   C51135355   3.970   6.653   0.917 -0.1883  0.0178 -0.2051
   63MOL   C51235356   3.985   6.581   1.050 -0.1991 -0.5331 -0.3721
   63MOL   O51335357   3.917   6.667   1.142 -0.1335  0.6077 -0.0505
   63MOL   C51435358   4.131   6.554   1.080 -0.2383  0.6907 -0.0102
   63MOL   C51535359   4.153   6.481   1.213 -0.4250 -0.0253  0.0595
   63MOL   C51635360   4.206   6.478   0.962  0.3449  0.9544 -0.4906
   63MOL   C51735361   4.183   6.538   0.821  0.2636 -0.5694  0.5085
   63MOL   H51835362   3.864   6.707   0.520 -0.9565 -2.6248 -1.9807
   63MOL   H51935363   3.902   6.540   0.541  0.6869 -0.0074  1.6770
   63MOL   H52035364   4.096   6.637   0.603  0.7117 -4.3878  2.0737
   63MOL   H52135365   4.019   6.838   0.602 -3.4560 -0.0540  0.2783
   63MOL   H52235366   3.975   6.484   0.776 -0.1784 -0.1382  1.4882
   63MOL   H52335367   4.030   6.743   0.929 -0.5621  0.0728  1.2850
   63MOL   H52435368   3.865   6.678   0.900  0.3414  0.8843 -2.3477
   63MOL   H52535369   3.930   6.487   1.047  0.4739 -0.9859  1.0873
   63MOL   H52635370   3.825   6.644   1.142 -0.4723  1.9249 -0.7464
   63MOL   H52735371   4.176   6.653   1.086 -1.2602  1.2146 -0.7840
   63MOL   H52835372   4.114   6.542   1.294  1.1386 -0.2928  1.0319
   63MOL   H52935373   4.096   6.388   1.213 -0.0869 -0.2509 -1.6261
   63MOL   H53035374   4.160   6.379   0.971  3.0448 -0.3158 -0.3241
   63MOL   H53135375   4.310   6.451   0.979  0.2701  0.1850 -1.1898
   63MOL   H53235376   4.222   6.474   0.741  0.4131  0.2372 -0.0713
   63MOL   H53335377   4.233   6.634   0.829 -0.6962 -0.1322  1.4609
   63MOL   O53435378   4.291   6.454   1.241  0.4949  0.2984 -0.0500
   63MOL   C53535379   4.305   6.392   1.374  0.0755 -0.2082  0.2459
   63MOL   C53635380   4.301   6.492   1.497 -0.5618  0.2690  0.3909
   63MOL   O53735381   4.259   6.401   1.597 -0.3716 -0.1937  0.7936
   63MOL   C53835382   4.440   6.551   1.534  0.2954  0.0733  0.5216
   63MOL   C53935383   4.437   6.626   1.669  0.2237  0.3592 -1.0858
   63MOL   C54035384   4.584   6.674   1.692 -0.1478 -0.0298  0.3269
   63MOL   O54135385   4.596   6.711   1.829  0.1992  0.2704  0.5193
   63MOL   C54235386   4.613   6.794   1.604  0.5276 -0.1417 -0.2887
   63MOL   C54335387   4.758   6.839   1.618 -0.3341 -0.4516  0.3339
   63MOL   C54435388   4.600   6.739   1.458  0.7376  0.2243 -0.0183
   63MOL   C54535389   4.470   6.660   1.423 -0.4360 -0.6232 -0.5644
   63MOL   H54635390   4.397   6.333   1.381  0.6196  0.6994  0.8466
   63MOL   H54735391   4.226   6.317   1.383  1.2750 -1.4320  0.7278
   63MOL   H54835392   4.223   6.567   1.482 -1.4164 -0.7906 -0.5137
   63MOL   H54935393   4.333   6.377   1.651  1.3045 -1.3553 -1.9411
   63MOL   H55035394   4.520   6.477   1.529  1.9285  1.5903  2.7157
   63MOL   H55135395   4.373   6.714   1.675 -0.9658 -0.6780  2.3656
   63MOL   H55235396   4.396   6.569   1.752  0.1368  1.8486 -0.0931
   63MOL   H55335397   4.658   6.597   1.668  0.6759  1.2097 -1.1457
   63MOL   H55435398   4.668   6.659   1.863 -0.5324 -1.9217 -1.1481
   63MOL   H55535399   4.545   6.876   1.625 -0.3144 -1.3575  1.8612
   63MOL   H55635400   4.769   6.885   1.716  1.9291  1.0558 -0.5991
   63MOL   H55735401   4.831   6.758   1.622  0.7032  0.4316 -0.4190
   63MOL   H55835402   4.680   6.669   1.436  0.4810 -0.9386  2.5617
   63MOL   H55935403   4.607   6.822   1.387  0.3538  1.3603  1.2454
   63MOL   H56035404   4.487   6.606   1.331 -0.5033 -0.9209 -0.4021
   63MOL   H56135405   4.394   6.738   1.414  0.6746  0.8473  2.0158
   63MOL   H56235406   4.781   6.911   1.539 -3.0249 -0.4664 -0.5473
   64MOL     O135407   6.863   5.580   4.395  0.0888 -0.2330 -0.4057
   64MOL     C235408   6.760   5.656   4.456 -0.1520 -0.1849 -0.4262
   64MOL     C335409   6.705   5.755   4.353  0.2570 -0.1868  0.1924
   64MOL     O435410   6.809   5.798   4.264  0.3188  0.1001  0.2663
   64MOL     C535411   6.580   5.706   4.269 -0.3097  0.5111 -0.3882
   64MOL     C635412   6.523   5.812   4.170 -0.4526  0.0122  0.5470
   64MOL     C735413   6.410   5.752   4.092  0.0190  0.6786  0.5989
   64MOL     O835414   6.372   5.845   3.995 -0.7008 -0.4264  0.0834
   64MOL     C935415   6.290   5.713   4.178  0.1797  1.0791  0.4392
   64MOL    C1035416   6.189   5.644   4.077 -0.4027  0.0952  0.4907
   64MOL    C1135417   6.341   5.617   4.285  0.3430 -0.7331 -0.4276
   64MOL    C1235418   6.463   5.668   4.368  0.0280 -0.0260  0.3840
   64MOL    H1335419   6.802   5.713   4.539 -1.5744 -0.7460  0.6980
   64MOL    H1435420   6.695   5.586   4.507  0.9628  0.2962  1.7350
   64MOL    H1535421   6.662   5.838   4.409  0.8802  0.4642 -0.2741
   64MOL    H1635422   6.884   5.751   4.298 -0.0902  0.8651  2.2984
   64MOL    H1735423   6.605   5.618   4.210 -1.0989 -0.2817  0.4617
   64MOL    H1835424   6.490   5.898   4.229  1.6065  1.5595 -0.4466
   64MOL    H1935425   6.596   5.848   4.097 -1.8208  2.2612  0.2240
   64MOL    H2035426   6.446   5.665   4.038 -0.9197  1.4972 -1.3630
   64MOL    H2135427   6.455   5.866   3.955 -0.2497  0.9664  1.7014
   64MOL    H2235428   6.233   5.793   4.225 -2.0207 -1.2073  1.7697
   64MOL    H2335429   6.179   5.700   3.984 -0.7214  1.4956  1.3641
   64MOL    H2435430   6.218   5.542   4.051 -0.4358 -0.6052  3.1085
   64MOL    H2535431   6.370   5.529   4.228 -1.2693 -1.3494 -0.3318
   64MOL    H2635432   6.261   5.578   4.348  0.1924  2.7650  1.6669
   64MOL    H2735433   6.487   5.588   4.438 -1.7531 -0.8496  0.1055
   64MOL    H2835434   6.430   5.755   4.424 -0.7657  0.0155 -0.1337
   64MOL    H2935435   6.918   5.550   4.466 -0.0471  0.4074 -0.0286
   64MOL    O3035436   6.064   5.634   4.145 -0.4209 -0.8091 -0.1098
   64MOL    C3135437   5.967   5.587   4.066 -0.2679  0.0633  0.1318
   64MOL    C3235438   5.837   5.603   4.146 -0.0016 -0.5655 -0.3842
   64MOL    O3335439   5.722   5.542   4.094  0.3257 -0.4508 -0.2854
   64MOL    C3435440   5.852   5.576   4.300  0.3662  0.3866 -0.3911
   64MOL    C3535441   5.888   5.434   4.325  0.3603 -0.2410  0.8109
   64MOL    C3635442   5.911   5.413   4.481  0.3444 -0.4872 -0.5977
   64MOL    O3735443   5.931   5.276   4.490 -0.4563  0.8320  0.0634
   64MOL    C3835444   5.792   5.447   4.568  0.3976  0.2721  0.5845
   64MOL    C3935445   5.845   5.447   4.713  0.5141 -0.2705 -0.7208
   64MOL    C4035446   5.742   5.587   4.531  0.6343  0.0974 -0.7368
   64MOL    C4135447   5.724   5.603   4.378  0.8761 -0.1647 -0.1577
   64MOL    H4235448   5.985   5.481   4.044 -0.8941  0.0137 -0.1716
   64MOL    H4335449   5.964   5.640   3.971  1.0345 -0.7298 -0.3587
   64MOL    H4435450   5.807   5.708   4.149  3.0129  0.3193  0.7151
   64MOL    H4535451   5.647   5.600   4.099  0.4287 -0.4613  1.6417
   64MOL    H4635452   5.924   5.645   4.344  1.6298 -1.2198  0.0627
   64MOL    H4735453   5.811   5.367   4.285  2.5905 -1.5331 -1.4540
   64MOL    H4835454   5.978   5.403   4.272 -0.0970  1.6277 -1.1038
   64MOL    H4935455   6.007   5.459   4.504  0.8039 -1.1211 -1.1964
   64MOL    H5035456   5.846   5.236   4.475  0.0796  0.4658 -2.0296
   64MOL    H5135457   5.709   5.377   4.570 -0.9601  1.8204 -0.4650
   64MOL    H5235458   5.874   5.347   4.746  0.1568 -0.0729  0.1836
   64MOL    H5335459   5.935   5.510   4.714 -1.5722  2.8381  2.5906
   64MOL    H5435460   5.815   5.662   4.562 -0.7175  0.7770  0.9373
   64MOL    H5535461   5.642   5.615   4.565  0.6493  1.1851 -1.5405
   64MOL    H5635462   5.707   5.709   4.359  0.1924 -0.0866  0.8591
   64MOL    H5735463   5.642   5.540   4.343 -0.1652  0.6853  0.7191
   64MOL    O5835464   5.746   5.493   4.799  0.2845 -0.4203  0.3434
   64MOL    C5935465   5.795   5.509   4.927  0.2474 -0.3406 -0.5443
   64MOL    C6035466   5.819   5.661   4.962 -0.1248 -0.5211 -0.0771
   64MOL    O6135467   5.923   5.710   4.884 -0.1269 -0.3186 -0.2293
   64MOL    C6235468   5.700   5.759   4.972 -0.2879  1.3438 -0.0741
   64MOL    C6335469   5.587   5.707   5.058 -0.1103 -1.2418 -0.7451
   64MOL    C6435470   5.486   5.813   5.087 -0.1056 -0.5982 -0.0356
   64MOL    O6535471   5.391   5.753   5.181 -0.4554  0.0392  0.4633
   64MOL    C6635472   5.425   5.859   4.957 -0.6642  0.3246 -0.5304
   64MOL    C6735473   5.317   5.970   4.977 -0.2056  0.2218 -0.2908
   64MOL    C6835474   5.531   5.909   4.857  0.7451 -0.3866 -0.4411
   64MOL    C6935475   5.639   5.804   4.834 -0.6990  0.0680 -0.3505
   64MOL    H7035476   5.879   5.442   4.945 -1.1737 -1.6789  1.3255
   64MOL    H7135477   5.725   5.466   4.999  1.5987 -0.5860  0.6622
   64MOL    H7235478   5.867   5.662   5.059  2.0662  1.4178 -1.1437
   64MOL    H7335479   5.916   5.677   4.796 -0.1954 -1.3436  0.1584
   64MOL    H7435480   5.741   5.846   5.024  2.1815  0.2091 -0.0896
   64MOL    H7535481   5.548   5.616   5.014  0.7098 -1.3628 -1.2416
   64MOL    H7635482   5.628   5.676   5.154  1.1701  1.9545 -0.1935
   64MOL    H7735483   5.525   5.900   5.140  1.2952  0.1557 -2.2604
   64MOL    H7835484   5.408   5.806   5.258  1.3427 -0.5722  0.5164
   64MOL    H7935485   5.386   5.777   4.896 -0.2933  0.2788 -0.7111
   64MOL    H8035486   5.241   5.936   5.047  1.8892  1.3932  2.6563
   64MOL    H8135487   5.359   6.056   5.029 -2.2416  0.5922  0.7922
   64MOL    H8235488   5.560   6.009   4.887 -1.0847  1.0017 -3.1749
   64MOL    H8335489   5.476   5.921   4.764  1.0081  2.6465 -0.2549
   64MOL    H8435490   5.720   5.826   4.764 -0.7891 -0.6581 -0.6966
   64MOL    H8535491   5.584   5.723   4.785 -2.4815  1.5484 -0.8366
   64MOL    O8635492   5.258   6.004   4.853 -0.0655 -0.0127 -0.1876
   64MOL    C8735493   5.166   6.116   4.858 -0.8461 -0.3436 -0.4908
   64MOL    C8835494   5.109   6.161   4.720 -0.1075 -0.2087 -0.4238
   64MOL    O8935495   5.215   6.197   4.639 -0.3000 -0.4238  0.3511
   64MOL    C9035496   5.014   6.056   4.662  0.6663 -0.2330  0.2354
   64MOL    C9135497   4.966   6.098   4.524 -0.4949  0.0407  0.4753
   64MOL    C9235498   4.884   6.001   4.457 -0.4712 -0.4519  0.3984
   64MOL    O9335499   4.887   6.042   4.324 -0.5588  0.3814  0.3741
   64MOL    C9435500   4.749   5.966   4.531 -0.1006  0.3820 -0.1147
   64MOL    C9535501   4.676   5.845   4.472  0.4392 -0.3628  0.5762
   64MOL    C9635502   4.781   5.939   4.680  0.0420 -0.2081  0.0270
   64MOL    C9735503   4.888   6.030   4.745 -0.0274  0.0960 -0.0195
   64MOL    H9835504   5.218   6.199   4.906  2.5256 -1.4398 -2.1429
   64MOL    H9935505   5.083   6.096   4.927 -0.7158 -1.0170 -0.5256
   64MOL   H10035506   5.054   6.255   4.727  0.4494  0.1149 -0.4141
   64MOL   H10135507   5.264   6.263   4.684 -3.5662  1.1070  1.8456
   64MOL   H10235508   5.074   5.968   4.637  0.8348 -0.3788  1.1645
   64MOL   H10335509   4.896   6.180   4.540 -0.7311  0.1466 -0.9822
   64MOL   H10435510   5.053   6.136   4.471  0.2591 -0.1669  1.5457
   64MOL   H10535511   4.949   5.914   4.451  0.1957 -0.2193  3.5129
   64MOL   H10635512   4.822   5.989   4.281 -0.9650  0.1876  1.2109
   64MOL   H10735513   4.683   6.053   4.523 -0.1054  0.4001  0.1308
   64MOL   H10835514   4.675   5.855   4.364 -0.7926  1.3353  0.7366
   64MOL   H10935515   4.744   5.762   4.493 -0.2560 -1.1144 -0.1467
   64MOL   H11035516   4.823   5.839   4.688  0.3974 -0.1674 -1.1812
   64MOL   H11135517   4.698   5.958   4.748  0.0246  0.4476 -0.1723
   64MOL   H11235518   4.916   6.001   4.846 -1.4841  0.7434  0.5840
   64MOL   H11335519   4.849   6.128   4.770 -3.6892 -1.4678  0.7089
   64MOL   O11435520   4.538   5.817   4.518  0.0346 -0.1539  0.2049
   64MOL   C11535521   4.509   5.676   4.507 -0.7223 -0.0365  0.5975
   64MOL   C11635522   4.359   5.664   4.517 -0.0475 -0.7868 -0.5969
   64MOL   O11735523   4.325   5.697   4.641  0.0022 -0.4216  0.0521
   64MOL   C11835524   4.274   5.738   4.407  0.3922  0.2270  0.1504
   64MOL   C11935525   4.127   5.756   4.447 -0.0349  0.6845 -0.1823
   64MOL   C12035526   4.032   5.796   4.332 -0.1078 -0.5078  0.5570
   64MOL   O12135527   3.903   5.793   4.391  0.2556  0.3433  0.2137
   64MOL   C12235528   4.042   5.701   4.209  0.4315  1.2532 -0.5099
   64MOL   C12335529   3.948   5.745   4.091 -0.0035 -0.3672 -0.2244
   64MOL   C12435530   4.190   5.706   4.164  0.9317 -0.3836  0.1778
   64MOL   C12535531   4.279   5.667   4.270 -0.1661  0.3596  0.1287
   64MOL   H12635532   4.552   5.611   4.583 -0.7760 -1.3434 -0.4670
   64MOL   H12735533   4.555   5.640   4.414  0.0525 -0.2057  1.0400
   64MOL   H12835534   4.334   5.558   4.526 -1.2384 -0.3466  1.6791
   64MOL   H12935535   4.351   5.787   4.651 -1.0394 -0.0755 -0.2724
   64MOL   H13035536   4.311   5.839   4.389  1.4902 -0.3996 -1.2159
   64MOL   H13135537   4.086   5.658   4.471  2.4740 -0.3740 -0.1568
   64MOL   H13235538   4.120   5.818   4.536 -0.7307  1.8309 -1.0264
   64MOL   H13335539   4.054   5.897   4.298  0.9152 -0.5972  0.9479
   64MOL   H13435540   3.887   5.718   4.447  0.7921  0.7208  0.8888
   64MOL   H13535541   4.030   5.598   4.244 -0.5217  0.6393 -2.5752
   64MOL   H13635542   3.842   5.738   4.115 -0.3881  1.5629 -1.2600
   64MOL   H13735543   3.972   5.848   4.063  1.3398 -1.0181 -1.5380
   64MOL   H13835544   4.222   5.807   4.140 -1.4928  0.6102  0.9338
   64MOL   H13935545   4.193   5.644   4.074 -0.1240  1.3684 -1.0737
   64MOL   H14035546   4.380   5.650   4.233  0.8524  1.4184  2.2927
   64MOL   H14135547   4.266   5.561   4.293 -1.8286  0.5935  0.3182
   64MOL   O14235548   3.964   5.643   3.987 -0.2908 -0.0020 -0.2688
   64MOL   C14335549   3.949   5.680   3.848 -0.8620 -0.2565  0.8729
   64MOL   C14435550   4.088   5.722   3.788  0.3588 -0.1978  0.3347
   64MOL   O14535551   4.180   5.611   3.773  0.4512 -0.0575  0.5269
   64MOL   C14635552   4.073   5.803   3.652 -0.2749  0.2826  0.2306
   64MOL   C14735553   4.009   5.709   3.547 -0.0926 -0.5420 -0.3339
   64MOL   C14835554   3.991   5.781   3.412  0.5544 -0.4567  0.1411
   64MOL   O14935555   3.931   5.698   3.319  0.4467  1.0409 -0.1693
   64MOL   C15035556   4.135   5.822   3.366 -0.0902 -0.8053  0.1540
   64MOL   C15135557   4.123   5.883   3.227 -0.8445 -0.7669  0.1589
   64MOL   C15235558   4.209   5.918   3.461 -0.4699 -0.3179  0.3674
   64MOL   C15335559   4.212   5.846   3.599 -0.1159 -0.2611  0.3242
   64MOL   H15435560   3.873   5.758   3.840  0.8194  1.2292 -1.0521
   64MOL   H15535561   3.910   5.590   3.799  0.5128 -2.4301  3.6210
   64MOL   H15635562   4.126   5.796   3.859 -1.4379  1.8252 -0.7289
   64MOL   H15735563   4.186   5.568   3.857  0.2588  0.8514  1.0165
   64MOL   H15835564   4.012   5.893   3.663 -0.7965  0.2983 -2.5249
   64MOL   H15935565   4.073   5.622   3.539 -0.2238 -0.9885  2.8191
   64MOL   H16035566   3.915   5.670   3.586 -0.3049 -1.3443 -1.6301
   64MOL   H16135567   3.931   5.871   3.424 -0.1949 -1.2806  2.8438
   64MOL   H16235568   3.838   5.706   3.334  1.0487  1.9276  3.4990
   64MOL   H16335569   4.193   5.731   3.355 -3.8152 -3.8056  3.6396
   64MOL   H16435570   4.222   5.924   3.205 -1.4155  0.1113 -0.8224
   64MOL   H16535571   4.097   5.807   3.153  2.6145 -1.0008 -0.9450
   64MOL   H16635572   4.156   6.012   3.476 -2.5687 -1.0790 -2.0395
   64MOL   H16735573   4.311   5.934   3.426 -1.1123  1.8678 -0.5512
   64MOL   H16835574   4.259   5.907   3.676  0.3090 -0.4262  0.1949
   64MOL   H16935575   4.274   5.758   3.584  1.5891  0.5310  2.4714
   64MOL   O17035576   4.024   5.988   3.206  0.4842 -0.2998 -0.1981
   64MOL   C17135577   4.010   6.034   3.070  0.7651  0.1102 -0.1200
   64MOL   C17235578   3.934   6.165   3.069 -0.2897  0.1098 -0.1906
   64MOL   O17335579   3.986   6.240   3.178 -0.2070 -0.4909  0.2927
   64MOL   C17435580   3.934   6.254   2.944 -0.4201  1.1717 -0.0970
   64MOL   C17535581   3.905   6.168   2.823 -0.1017  0.4735 -0.0880
   64MOL   C17635582   3.903   6.246   2.695  0.5699  0.4544 -0.3179
   64MOL   O17735583   3.898   6.147   2.602  0.0704 -0.0507  0.1063
   64MOL   C17835584   4.023   6.339   2.672 -0.2146  0.1131 -0.3554
   64MOL   C17935585   3.989   6.413   2.542 -0.5521  0.2941  0.3666
   64MOL   C18035586   4.044   6.429   2.796  0.0919 -0.3034  0.2102
   64MOL   C18135587   4.062   6.336   2.919  0.0753  1.2265  0.4557
   64MOL   H18235588   3.947   5.957   3.026  0.9374 -0.7550  1.1264
   64MOL   H18335589   4.105   6.050   3.020 -0.7269  1.0305 -2.7267
   64MOL   H18435590   3.831   6.143   3.094 -0.6101  0.7564 -0.9269
   64MOL   H18535591   4.035   6.178   3.230 -0.9270 -1.9607 -0.7279
   64MOL   H18635592   3.846   6.317   2.953 -1.8746 -0.6819 -1.0255
   64MOL   H18735593   3.981   6.090   2.826  1.4277  1.9360  0.0906
   64MOL   H18835594   3.807   6.123   2.829 -0.0068  0.2593 -0.1376
   64MOL   H18935595   3.812   6.306   2.700  0.1782 -0.0955 -0.8590
   64MOL   H19035596   3.814   6.123   2.566 -0.3647  1.4059  0.1243
   64MOL   H19135597   4.116   6.285   2.655  0.6950  1.8270 -1.0514
   64MOL   H19235598   4.028   6.351   2.461 -2.6610 -1.8625  0.9695
   64MOL   H19335599   3.887   6.445   2.520 -1.0489  0.1520  2.4207
   64MOL   H19435600   3.949   6.479   2.813 -0.7165 -1.6785 -0.2106
   64MOL   H19535601   4.135   6.488   2.784  1.9877 -2.9410  1.0583
   64MOL   H19635602   4.078   6.397   3.008  0.3976 -0.0278  1.2617
   64MOL   H19735603   4.150   6.278   2.890 -1.5200 -1.2845  0.5062
   64MOL   O19835604   4.072   6.533   2.549 -0.0687 -0.5908 -0.0161
   64MOL   C19935605   4.051   6.613   2.432 -0.7819 -0.7304 -0.0798
   64MOL   C20035606   4.106   6.752   2.468 -0.7534 -0.0501  0.2720
   64MOL   O20135607   4.172   6.799   2.356  0.3282  0.5223 -0.7838
   64MOL   C20235608   4.002   6.856   2.516  0.5034  0.0255  1.1407
   64MOL   C20335609   3.924   6.804   2.629 -0.0403  0.0304 -0.2012
   64MOL   C20435610   3.827   6.913   2.685 -0.6351  0.3431 -0.3103
   64MOL   O20535611   3.750   6.831   2.771  0.6886 -0.1308 -0.4645
   64MOL   C20635612   3.736   6.978   2.578  0.2708 -0.4170  0.6258
   64MOL   C20735613   3.659   7.099   2.627  1.1172  0.4289  0.2531
   64MOL   C20835614   3.817   7.020   2.453  0.1076 -0.0373 -0.2510
   64MOL   C20935615   3.906   6.904   2.400  0.4722  0.2637  0.0567
   64MOL   H21035616   3.944   6.627   2.416 -0.6910 -1.2883 -1.2362
   64MOL   H21135617   4.093   6.566   2.343  1.0907  0.3760  0.2033
   64MOL   H21235618   4.177   6.731   2.548 -1.2078 -1.7495  0.2528
   64MOL   H21335619   4.247   6.744   2.339  2.2234  2.3160  1.3529
   64MOL   H21435620   4.062   6.934   2.563 -2.7312  1.4439  3.1022
   64MOL   H21535621   3.873   6.713   2.596 -0.3805  0.7601 -1.7535
   64MOL   H21635622   4.000   6.767   2.697  1.7931 -2.1748 -3.3228
   64MOL   H21735623   3.885   6.982   2.748  1.0806 -0.9778 -0.4211
   64MOL   H21835624   3.806   6.803   2.842 -1.3998  0.1770  1.3532
   64MOL   H21935625   3.660   6.902   2.556  0.3447  0.3656 -2.5188
   64MOL   H22035626   3.639   7.078   2.732 -0.0263 -2.2603 -0.4531
   64MOL   H22135627   3.733   7.179   2.622  1.7498 -0.1130  0.8999
   64MOL   H22235628   3.876   7.110   2.467 -0.0174  0.2671 -1.6175
   64MOL   H22335629   3.750   7.041   2.370  1.4323  0.8958 -1.0875
   64MOL   H22435630   3.971   6.943   2.321  1.5215  1.3751  1.4523
   64MOL   H22535631   3.841   6.826   2.359  0.8736 -1.4640  2.6094
   64MOL   O22635632   3.547   7.149   2.564  0.6267 -0.0018  0.4413
   64MOL   C22735633   3.484   7.250   2.641 -0.0781  0.3005  0.9422
   64MOL   C22835634   3.373   7.325   2.554  0.0919 -0.1338 -0.1720
   64MOL   O22935635   3.273   7.227   2.530  0.1960  0.3339  1.0609
   64MOL   C23035636   3.310   7.439   2.628 -0.4377 -0.1562 -0.8897
   64MOL   C23135637   3.197   7.495   2.545 -0.2356  0.3735 -0.6795
   64MOL   C23235638   3.117   7.602   2.624 -0.4855  0.8985  0.7559
   64MOL   O23335639   3.014   0.012   2.540  1.0367  0.1799  0.1942
   64MOL   C23435640   3.207   0.087   2.663 -0.3581 -0.2516 -0.7761
   64MOL   C23535641   3.138   0.199   2.745 -0.2768 -0.8336  0.2127
   64MOL   C23635642   3.333   0.030   2.736  0.1775 -0.3989 -0.4358
   64MOL   C23735643   3.407   7.552   2.668  0.0005  0.6972 -0.5518
   64MOL   H23835644   3.560   7.321   2.674 -0.2201  0.1552  1.5675
   64MOL   H23935645   3.431   7.193   2.717  0.1935 -1.6016 -0.2757
   64MOL   H24035646   3.417   7.350   2.458 -0.3880  1.2200 -0.0430
   64MOL   H24135647   3.314   7.148   2.497  0.4595  0.0414  2.0611
   64MOL   H24235648   3.275   7.396   2.721  1.0505  1.7756  0.6027
   64MOL   H24335649   3.238   7.536   2.453  0.2836 -1.0059 -1.0873
   64MOL   H24435650   3.129   7.424   2.498 -0.7698 -0.0875  0.7601
   64MOL   H24535651   3.078   7.551   2.712 -0.4482 -0.3062  0.0910
   64MOL   H24635652   2.939   0.041   2.589  2.2784  0.7121  1.7949
   64MOL   H24735653   3.237   0.130   2.568  0.0230  2.7585  0.6662
   64MOL   H24835654   3.216   0.270   2.772 -0.7454 -0.2077 -0.0667
   64MOL   H24935655   3.059   0.250   2.690 -0.4495 -1.1752  0.1435
   64MOL   H25035656   3.316   0.000   2.839  0.3515  0.0346 -0.2793
   64MOL   H25135657   3.406   0.109   2.756 -0.2628 -0.2845  0.7285
   64MOL   H25235658   3.501   7.518   2.712 -0.1438  1.4512  0.3508
   64MOL   H25335659   3.446   7.592   2.575 -0.7568  1.3147 -0.6101
   64MOL   O25435660   3.083   0.153   2.866  0.0223 -0.0433  0.5563
   64MOL   C25535661   3.073   0.258   2.964 -0.5761  0.3265  0.3721
   64MOL   C25635662   3.006   0.209   3.090 -0.5590  0.3973 -0.5152
   64MOL   O25735663   3.019   0.311   3.195  1.0660 -0.1206  0.1101
   64MOL   C25835664   2.861   0.161   3.064 -0.1383  0.4905  0.2256
   64MOL   C25935665   2.777   0.271   3.001  0.4398 -0.2348 -0.1872
   64MOL   C26035666   2.629   0.226   2.989 -0.4017  0.0317  0.2839
   64MOL   O26135667   2.545   0.333   2.938 -0.2070  0.0493  0.6408
   64MOL   C26235668   2.561   0.177   3.121 -0.5733 -0.7279 -0.2463
   64MOL   C26335669   2.422   0.130   3.091  0.1944 -0.1014 -0.5090
   64MOL   C26435670   2.648   0.067   3.187  0.1579 -0.0911  0.2469
   64MOL   C26535671   2.790   0.116   3.196  0.3768 -0.0987 -0.5054
   64MOL   H26635672   3.027   0.346   2.919 -1.0347 -0.5505 -0.9232
   64MOL   H26735673   3.175   0.283   2.992  1.0737 -2.2798 -2.9344
   64MOL   H26835674   3.060   0.121   3.125  0.1965  0.4077 -1.5948
   64MOL   H26935675   2.972   0.391   3.179 -1.0838 -1.2285  0.6311
   64MOL   H27035676   2.873   0.080   2.992  2.0614  1.8314 -0.9436
   64MOL   H27135677   2.781   0.364   3.057 -1.5606  0.3302 -0.9368
   64MOL   H27235678   2.805   0.303   2.900  2.3343 -1.2031  0.0088
   64MOL   H27335679   2.629   0.152   2.909 -0.1414  1.0911 -0.7241
   64MOL   H27435680   2.459   0.299   2.920  0.6811 -1.4969 -0.8332
   64MOL   H27535681   2.550   0.261   3.189  0.6064 -0.6108 -0.1922
   64MOL   H27635682   2.380   0.114   3.190  0.6378  0.2418 -0.2611
   64MOL   H27735683   2.365   0.219   3.065  0.2223  0.5727  1.6102
   64MOL   H27835684   2.636   7.601   3.136 -5.7008  0.1916  0.7126
   64MOL   H27935685   2.603   0.065   3.286 -1.5594  0.7125 -0.4817
   64MOL   H28035686   2.844   0.037   3.248  1.4514  2.6722  2.7778
   64MOL   H28135687   2.803   0.199   3.266  1.5709 -0.1353 -0.6678
   64MOL   O28235688   2.421   0.026   3.003  0.0994 -0.2946 -0.1310
   64MOL   C28335689   2.291   7.625   2.954 -0.0577  0.4236  0.7247
   64MOL   C28435690   2.299   7.494   2.872 -0.0203  0.2355 -0.2364
   64MOL   O28535691   2.345   7.394   2.963 -0.1735 -0.3905 -0.1679
   64MOL   C28635692   2.163   7.441   2.822  0.5468 -0.0289  0.0999
   64MOL   C28735693   2.189   7.312   2.751 -0.2844  0.3206 -1.2120
   64MOL   C28835694   2.063   7.248   2.681 -0.2747  0.5333 -0.1749
   64MOL   O28935695   2.112   7.137   2.596 -0.0317  0.1205  0.8243
   64MOL   C29035696   1.984   7.346   2.592  0.0937 -0.2819  0.1062
   64MOL   C29135697   1.843   7.289   2.575  0.2200 -0.9523  0.4526
   64MOL   C29235698   1.968   7.486   2.662  0.3187 -0.2130 -0.0174
   64MOL   C29335699   2.094   7.535   2.726  0.1582  0.3251 -0.2331
   64MOL   H29435700   2.241   0.084   2.916 -0.0172 -0.7798 -2.2758
   64MOL   H29535701   2.223   7.598   3.035  3.9096 -2.6248  3.1982
   64MOL   H29635702   2.363   7.515   2.786 -2.2797  2.3360 -1.5038
   64MOL   H29735703   2.307   7.413   3.048  1.5495 -2.6007  1.1273
   64MOL   H29835704   2.091   7.421   2.902  1.1989  0.1109  0.7254
   64MOL   H29935705   2.259   7.334   2.671  3.1077 -1.4501  1.1441
   64MOL   H30035706   2.228   7.231   2.813 -2.8998 -0.9079 -1.0795
   64MOL   H30135707   1.994   7.198   2.749  1.6493 -0.3498  1.1661
   64MOL   H30235708   2.195   7.102   2.623  1.3451  2.5536 -0.0719
   64MOL   H30335709   2.026   7.350   2.491  0.9407  0.3394  0.4795
   64MOL   H30435710   1.837   7.189   2.531 -2.3723 -1.2057  1.2932
   64MOL   H30535711   1.801   7.279   2.675 -0.5664  0.1359  0.2413
   64MOL   H30635712   1.900   7.484   2.748 -1.6110 -1.6316 -1.5294
   64MOL   H30735713   1.921   7.567   2.606 -1.6603 -1.0478  0.3823
   64MOL   H30835714   2.069   7.622   2.786  0.6949  0.9682 -0.9406
   64MOL   H30935715   2.168   7.572   2.655 -1.3513 -0.3140 -2.1814
   64MOL   O31035716   1.757   7.382   2.501  0.6926  0.2161 -0.1690
   64MOL   C31135717   1.638   7.319   2.452  0.1194  0.5897  0.0321
   64MOL   C31235718   1.559   7.430   2.370  0.1382 -0.3313 -0.1869
   64MOL   O31335719   1.493   7.519   2.453  0.6894 -0.5533 -0.3287
   64MOL   C31435720   1.637   7.507   2.262 -0.0231  0.3830  0.5392
   64MOL   C31535721   1.703   7.416   2.160 -0.3470 -0.1235  0.0812
   64MOL   C31635722   1.748   7.503   2.040 -0.5897 -0.0122 -0.3571
   64MOL   O31735723   1.833   7.412   1.976 -0.5129 -0.5592  0.0973
   64MOL   C31835724   1.833   7.627   2.080 -0.0293 -0.4341 -0.6314
   64MOL   C31935725   1.878   0.081   1.965 -1.0164 -0.7115  0.5556
   64MOL   C32035726   1.769   0.078   2.195  0.5874  0.7848  0.0104
   64MOL   C32135727   1.724   7.619   2.306 -0.5351 -0.2646  0.2840
   64MOL   H32235728   1.571   7.276   2.526 -1.4219  1.1059 -1.0398
   64MOL   H32335729   1.684   7.249   2.382  0.8313  1.0618  0.0177
   64MOL   H32435730   1.474   7.380   2.324 -1.8763  1.9558  0.9561
   64MOL   H32535731   1.555   7.574   2.498  0.0987  0.0192 -0.2075
   64MOL   H32635732   1.561   7.561   2.206  0.1673  1.1600  1.0225
   64MOL   H32735733   1.793   7.371   2.201 -0.4269 -1.8847 -1.6208
   64MOL   H32835734   1.634   7.338   2.129 -1.1044  0.0506  1.3214
   64MOL   H32935735   1.668   7.541   1.976 -0.2567  1.3106  0.0129
   64MOL   H33035736   1.791   7.344   1.925  0.1090  0.6142 -2.0707
   64MOL   H33135737   1.927   7.587   2.120 -0.8356 -2.0660 -0.3616
   64MOL   H33235738   1.898   0.015   1.880 -1.8704 -0.1067 -0.1240
   64MOL   H33335739   1.793   0.144   1.939 -0.9292 -0.2470  1.4010
   64MOL   H33435740   1.692   0.144   2.156  0.9932 -0.2742 -2.6524
   64MOL   H33535741   1.852   0.147   2.217  0.0358  1.4215  0.1076
   64MOL   H33635742   1.668   0.054   2.373  0.7699  0.6414  0.5262
   64MOL   H33735743   1.814   7.595   2.363 -0.6731  0.5931  0.8703
   64MOL   O33835744   1.986   0.168   1.993 -0.0949 -0.4826 -0.0052
   64MOL   C33935745   2.041   0.224   1.878 -0.2399 -0.2966 -0.1628
   64MOL   C34035746   1.954   0.345   1.825 -0.6224  0.7417  0.4013
   64MOL   O34135747   1.949   0.439   1.928  0.1579 -0.0087  0.5765
   64MOL   C34235748   2.027   0.424   1.706  0.2959  0.0288  0.0147
   64MOL   C34335749   1.940   0.543   1.674  0.6009 -0.0414  0.0050
   64MOL   C34435750   1.994   0.614   1.549  0.1572 -1.2383 -0.3304
   64MOL   O34535751   1.898   0.714   1.529 -0.3856 -0.5099 -0.2638
   64MOL   C34635752   1.997   0.520   1.430  0.2424  0.0183 -0.3372
   64MOL   C34735753   2.063   0.588   1.307  0.1499  0.1992  0.3560
   64MOL   C34835754   2.084   0.403   1.460 -0.6342 -0.4253  0.4353
   64MOL   C34935755   2.035   0.335   1.583  0.2484 -0.0837 -0.1368
   64MOL   H35035756   2.054   0.147   1.802  0.3799  1.8461 -2.3189
   64MOL   H35135757   2.138   0.272   1.890 -0.2868 -0.1310 -0.4317
   64MOL   H35235758   1.861   0.301   1.789  0.0981  0.0774 -0.6983
   64MOL   H35335759   1.945   0.376   1.998 -2.0428 -0.0736  0.4195
   64MOL   H35435760   2.132   0.444   1.726  0.0957  0.3698  0.7416
   64MOL   H35535761   1.838   0.510   1.652  0.6521  1.0447 -1.9323
   64MOL   H35635762   1.938   0.621   1.750 -0.3646 -1.4934  1.5028
   64MOL   H35735763   2.095   0.656   1.557 -1.2298  1.7960  2.5203
   64MOL   H35835764   1.916   0.781   1.593 -1.0311 -0.5541 -0.0425
   64MOL   H35935765   1.900   0.477   1.404  0.0132  2.0180 -2.9943
   64MOL   H36035766   2.025   0.532   1.221  1.6063  0.5018 -0.4892
   64MOL   H36135767   2.018   0.685   1.287  2.1253  0.8534 -1.0518
   64MOL   H36235768   2.183   0.443   1.484 -0.0137 -0.3758 -2.0411
   64MOL   H36335769   2.111   0.338   1.376  0.6863 -0.6962  1.0690
   64MOL   H36435770   2.110   0.261   1.610  0.3262 -0.8994 -2.4587
   64MOL   H36535771   1.943   0.281   1.561 -0.6896  0.9617  1.1074
   64MOL   O36635772   2.211   0.590   1.312 -0.3039  0.1288 -0.1195
   64MOL   C36735773   2.261   0.658   1.196 -0.3759  0.7594  0.1005
   64MOL   C36835774   2.370   0.758   1.245 -0.1074  1.2708  0.9286
   64MOL   O36935775   2.460   0.812   1.147  0.2067  0.0060  0.9567
   64MOL   C37035776   2.318   0.863   1.344 -0.5740 -0.3417  1.0006
   64MOL   C37135777   2.217   0.957   1.282  0.6711 -0.3289 -0.6323
   64MOL   C37235778   2.167   1.051   1.401 -0.7697 -0.7367  0.0768
   64MOL   O37335779   2.071   1.133   1.345  0.2928 -0.0114  0.2295
   64MOL   C37435780   2.286   1.136   1.475 -0.4446  0.1368  0.1697
   64MOL   C37535781   2.222   1.206   1.596  0.1918  0.7730  0.3005
   64MOL   C37635782   2.399   1.041   1.513  0.1089  0.3086  0.0364
   64MOL   C37735783   2.439   0.949   1.394  0.8845  0.5586 -0.6713
   64MOL   H37835784   2.187   0.710   1.135 -0.9393 -0.8271 -0.6255
   64MOL   H37935785   2.307   0.595   1.119  1.1321  0.2348  1.4154
   64MOL   H38035786   2.437   0.689   1.296 -0.5520  0.1658  0.0347
   64MOL   H38135787   2.437   0.903   1.138  1.1790 -0.0276 -2.5327
   64MOL   H38235788   2.275   0.808   1.428 -0.0039 -1.7226  0.3997
   64MOL   H38335789   2.261   1.008   1.196  0.6125  1.1561  0.1862
   64MOL   H38435790   2.131   0.895   1.257  1.0081 -0.2596 -2.0431
   64MOL   H38535791   2.115   0.991   1.476 -0.3308 -1.0905  0.1024
   64MOL   H38635792   1.991   1.083   1.343  0.3473 -0.1106  0.5812
   64MOL   H38735793   2.328   1.206   1.403  1.2281 -1.4029 -0.3603
   64MOL   H38835794   2.296   1.263   1.652  0.4516 -2.3371  3.3044
   64MOL   H38935795   2.151   1.280   1.561  1.1302  1.4692 -0.1477
   64MOL   H39035796   2.378   0.973   1.595  0.9345 -1.7194 -1.3918
   64MOL   H39135797   2.489   1.094   1.545 -0.1847  1.4469 -0.9436
   64MOL   H39235798   2.510   0.882   1.444 -1.6774 -0.5763  1.5773
   64MOL   H39335799   2.484   1.002   1.311  0.8574  2.0237  0.2280
   64MOL   O39435800   2.168   1.121   1.699 -0.4015  0.4522  0.0027
   64MOL   C39535801   2.028   1.127   1.723  0.2285  0.6133  0.3079
   64MOL   C39635802   1.991   0.998   1.787  0.2582 -0.3174  0.1105
   64MOL   O39735803   2.031   0.901   1.692  0.2668 -0.5605 -0.5287
   64MOL   C39835804   2.062   0.970   1.923 -0.2133  0.1206  0.0588
   64MOL   C39935805   2.019   0.826   1.963  0.4839 -0.5200 -0.9064
   64MOL   C40035806   2.075   0.787   2.095 -0.3625  0.4814 -0.2820
   64MOL   O40135807   2.013   0.662   2.123  0.4514  0.0285  0.0968
   64MOL   C40235808   2.028   0.887   2.203 -0.4019  0.2057  0.0018
   64MOL   C40335809   2.083   0.850   2.334  0.0936 -0.2790 -0.1860
   64MOL   C40435810   2.075   1.033   2.165 -0.4711 -0.2829 -0.5708
   64MOL   C40535811   2.019   1.070   2.028  0.5460  0.2038  0.1943
   64MOL   H40635812   1.974   1.139   1.628 -0.7593  0.6042  0.8616
   64MOL   H40735813   2.008   1.214   1.785 -2.6635  1.1863 -1.3150
   64MOL   H40835814   1.883   1.006   1.797  0.3796  1.6256  0.1508
   64MOL   H40935815   2.115   0.938   1.671  0.1991  1.6008  2.6749
   64MOL   H41035816   2.170   0.961   1.910 -0.3125 -2.1933  0.7162
   64MOL   H41135817   1.911   0.828   1.970  0.5981 -1.5023  1.9687
   64MOL   H41235818   2.045   0.758   1.882 -1.3871 -1.4975 -0.6891
   64MOL   H41335819   2.183   0.771   2.093 -0.2129  1.5056 -0.3608
   64MOL   H41435820   2.013   0.626   2.035 -1.3041 -0.1544  0.1439
   64MOL   H41535821   1.920   0.879   2.196 -0.2924  0.3087 -2.1494
   64MOL   H41635822   2.085   0.743   2.353 -0.3404  0.0713  1.9999
   64MOL   H41735823   2.189   0.871   2.345  0.2871 -0.5710 -1.4299
   64MOL   H41835824   2.184   1.037   2.169 -0.4841  0.2341 -0.7093
   64MOL   H41935825   2.042   1.100   2.245 -0.0451 -3.6372  2.5150
   64MOL   H42035826   2.046   1.175   2.013  0.0323  0.2866 -0.1675
   64MOL   H42135827   1.912   1.069   2.050  0.5518  1.0486  0.2787
   64MOL   O42235828   2.017   0.923   2.432  0.7101  0.2447  0.2222
   64MOL   C42335829   2.079   0.941   2.555 -0.1016 -0.0790  0.4473
   64MOL   C42435830   1.997   1.051   2.627  0.1304  0.1136  0.2361
   64MOL   O42535831   1.877   0.980   2.666  0.5947  0.2952 -0.0367
   64MOL   C42635832   2.054   1.094   2.766 -0.5056 -0.1369  0.9247
   64MOL   C42735833   1.960   1.159   2.866 -0.4664  0.2189 -0.1666
   64MOL   C42835834   2.023   1.196   3.001  0.0874  0.2544  0.1955
   64MOL   O42935835   1.933   1.267   3.082  0.6252 -0.5257 -0.3882
   64MOL   C43035836   2.158   1.270   2.986 -0.1921 -0.0853  0.2749
   64MOL   C43135837   2.235   1.294   3.119  0.3916 -0.6292 -0.5757
   64MOL   C43235838   2.249   1.202   2.885  0.6493  0.7066 -0.3796
   64MOL   C43335839   2.185   1.178   2.754  0.3066  0.2755 -0.5852
   64MOL   H43435840   2.179   0.978   2.530 -1.0393  1.0400 -1.7972
   64MOL   H43535841   2.093   0.850   2.613  2.9230 -0.8182 -1.2924
   64MOL   H43635842   1.969   1.133   2.560  0.1648 -0.7151 -0.8049
   64MOL   H43735843   1.863   0.915   2.599  2.3394 -2.1689  1.9088
   64MOL   H43835844   2.088   0.999   2.809 -1.4168 -1.3007 -0.8472
   64MOL   H43935845   1.924   1.246   2.810 -0.9747 -0.1937 -0.4809
   64MOL   H44035846   1.879   1.089   2.888 -1.8866  1.6514 -0.6944
   64MOL   H44135847   2.041   1.099   3.048 -1.4937 -0.5550 -0.8358
   64MOL   H44235848   1.902   1.208   3.150 -1.2331  1.4511  0.5246
   64MOL   H44335849   2.132   1.368   2.945  3.1784  0.1580 -1.4589
   64MOL   H44435850   2.321   1.354   3.086 -0.0999  0.6876  0.4783
   64MOL   H44535851   2.182   1.357   3.191 -0.2203  0.1162 -1.6651
   64MOL   H44635852   2.290   1.108   2.921  2.5202  1.2490 -1.0038
   64MOL   H44735853   2.342   1.256   2.866  1.3920 -0.4266 -0.0036
   64MOL   H44835854   2.250   1.122   2.687 -1.3908 -2.1093 -0.3255
   64MOL   H44935855   2.167   1.276   2.711 -0.5830  0.4561  0.1806
   64MOL   O45035856   2.274   1.174   3.186  0.0886 -0.2111 -0.1069
   64MOL   C45135857   2.345   1.189   3.309 -0.2100 -0.0285 -0.2299
   64MOL   C45235858   2.320   1.058   3.390 -0.1361 -0.0821 -0.7407
   64MOL   O45335859   2.418   1.045   3.493  0.1459 -0.3550  0.4577
   64MOL   C45435860   2.180   1.038   3.454  0.4216 -0.1165 -0.2496
   64MOL   C45535861   2.069   1.064   3.356 -0.3380 -0.5262  0.4836
   64MOL   C45635862   1.927   1.041   3.413 -0.1547 -0.2876  0.3808
   64MOL   O45735863   1.834   1.062   3.308 -0.3067 -0.5792  0.1449
   64MOL   C45835864   1.909   1.136   3.543 -0.2510  0.9107 -1.0637
   64MOL   C45935865   1.767   1.114   3.602  0.1110 -0.0266 -0.3318
   64MOL   C46035866   2.023   1.111   3.643 -0.4852  0.0087  0.7720
   64MOL   C46135867   2.164   1.126   3.578  0.2092 -0.3529  0.3216
   64MOL   H46235868   2.323   1.278   3.368  1.7886 -0.1406  0.7605
   64MOL   H46335869   2.452   1.183   3.287  0.4600  0.9145  2.5688
   64MOL   H46435870   2.326   0.971   3.325  1.9342  1.5403 -2.7778
   64MOL   H46535871   2.389   0.969   3.541 -1.2003  0.1961  0.5281
   64MOL   H46635872   2.160   0.935   3.484 -0.2030  0.2377  0.5420
   64MOL   H46735873   2.066   1.168   3.325  1.7677 -0.2156  1.3109
   64MOL   H46835874   2.089   0.998   3.271 -1.5171 -0.9879  0.5543
   64MOL   H46935875   1.909   0.936   3.433  1.7547 -0.4499  1.3833
   64MOL   H47035876   1.743   1.049   3.330 -1.0509 -0.2400 -2.5653
   64MOL   H47135877   1.920   1.239   3.508  1.5138  1.1708  0.2525
   64MOL   H47235878   1.701   1.123   3.516  0.9010 -0.4422 -0.9936
   64MOL   H47335879   1.760   1.011   3.637 -0.0437 -0.0800 -0.5181
   64MOL   H47435880   2.013   1.013   3.689  3.0932 -0.5826  0.3889
   64MOL   H47535881   2.005   1.184   3.722  0.3170  0.6813  0.3403
   64MOL   H47635882   2.233   1.114   3.661 -1.3340  2.1575  2.0073
   64MOL   H47735883   2.181   1.230   3.551 -0.4944 -1.0035 -2.8356
   64MOL   O47835884   1.739   1.204   3.698  0.4532  0.2197 -0.0890
   64MOL   C47935885   1.607   1.207   3.742  0.3357 -0.4235  0.2856
   64MOL   C48035886   1.612   1.300   3.863 -0.0383  0.0416 -0.7652
   64MOL   O48135887   1.660   1.424   3.814 -0.2399  0.1257  0.2163
   64MOL   C48235888   1.478   1.301   3.938 -0.4758 -0.1989 -0.1990
   64MOL   C48335889   1.358   1.330   3.843  1.2150 -0.2368  0.1063
   64MOL   C48435890   1.226   1.340   3.928 -0.2271 -0.4825  0.7570
   64MOL   O48535891   1.119   1.363   3.835 -0.3662  0.3928 -0.3096
   64MOL   C48635892   1.229   1.452   4.040 -0.1242 -0.4005  0.5026
   64MOL   C48735893   1.103   1.470   4.123  0.2548  0.0233 -0.1287
   64MOL   C48835894   1.354   1.408   4.129  0.8839 -0.5156 -0.1510
   64MOL   C48935895   1.486   1.398   4.055  0.6228 -0.3200  0.4317
   64MOL   H49035896   1.571   1.109   3.774 -2.7465  0.8807  0.9641
   64MOL   H49135897   1.532   1.225   3.664  1.5193  2.3915 -0.2400
   64MOL   H49235898   1.695   1.261   3.923 -1.1431  0.5711  1.1486
   64MOL   H49335899   1.739   1.406   3.765 -0.6144  0.5430 -0.5530
   64MOL   H49435900   1.468   1.201   3.982  0.1801 -0.5246 -0.7820
   64MOL   H49535901   1.359   1.421   3.783 -1.1202 -0.9910 -1.1251
   64MOL   H49635902   1.344   1.254   3.767  1.2322  0.8416 -0.9929
   64MOL   H49735903   1.209   1.239   3.964  0.6699 -0.5129  1.1178
   64MOL   H49835904   1.120   1.282   3.786  1.4711 -0.9972  1.9315
   64MOL   H49935905   1.261   1.548   3.999  1.3908 -0.1223  2.2675
   64MOL   H50035906   1.019   1.487   4.055  0.0909 -3.3927 -0.8970
   64MOL   H50135907   1.082   1.382   4.184 -1.7402 -0.3508 -1.3097
   64MOL   H50235908   1.339   1.309   4.172 -0.2030  0.6993  2.3160
   64MOL   H50335909   1.370   1.480   4.208 -1.2866  0.1278 -0.2813
   64MOL   H50435910   1.571   1.376   4.118  0.1529 -0.3151  1.0742
   64MOL   H50535911   1.519   1.493   4.012  0.5682 -0.6947 -0.4501
   64MOL   O50635912   1.115   1.589   4.202 -0.2280  0.1572  0.0876
   64MOL   C50735913   1.015   1.607   4.302 -0.2499  0.0536  0.4808
   64MOL   C50835914   0.878   1.662   4.249  0.2131 -0.3813 -0.1080
   64MOL   O50935915   0.771   1.599   4.325  0.3298  0.4864 -0.5673
   64MOL   C51035916   0.862   1.816   4.223  0.0464  0.0220 -0.3540
   64MOL   C51135917   0.896   1.896   4.348  0.2104 -0.2678  0.8918
   64MOL   C51235918   0.872   2.045   4.324  0.7731  0.4568 -0.1675
   64MOL   O51335919   0.880   2.107   4.447  0.1141  0.1002  0.7673
   64MOL   C51435920   0.731   2.079   4.263 -0.0815 -0.0009  0.4155
   64MOL   C51535921   0.714   2.230   4.238 -0.0911  1.0734  0.3505
   64MOL   C51635922   0.710   2.004   4.131  0.4147  0.0276 -0.3288
   64MOL   C51735923   0.726   1.850   4.162  0.6800 -0.6721  0.3019
   64MOL   H51835924   1.063   1.667   4.379  0.2895  3.1330 -2.1373
   64MOL   H51935925   0.992   1.516   4.357 -0.9334 -0.2012 -0.2207
   64MOL   H52035926   0.870   1.613   4.152 -0.3038  1.6906 -1.1400
   64MOL   H52135927   0.765   1.630   4.414 -0.5918  1.2765 -0.8978
   64MOL   H52235928   0.929   1.843   4.142 -0.0223 -0.0957 -0.4496
   64MOL   H52335929   0.834   1.853   4.426  0.5524 -1.4068  0.5443
   64MOL   H52435930   0.995   1.880   4.390  0.4763  1.5211  1.0184
   64MOL   H52535931   0.952   2.097   4.270  2.3875 -0.6925  1.0981
   64MOL   H52635932   0.856   2.045   4.514  1.0377 -1.8634 -0.6875
   64MOL   H52735933   0.646   2.053   4.326  0.0318 -0.0666  0.5443
   64MOL   H52835934   0.735   2.289   4.327  0.4919  0.0546  0.8847
   64MOL   H52935935   0.784   2.259   4.159  4.8857  0.2517  4.2109
   64MOL   H53035936   0.791   2.032   4.063  1.2189  0.9270  0.9726
   64MOL   H53135937   0.611   2.035   4.097 -0.5019 -2.3363  0.0463
   64MOL   H53235938   0.707   1.802   4.066 -0.9895  2.1205 -0.8307
   64MOL   H53335939   0.638   1.812   4.213  0.6407 -1.5979 -0.4421
   64MOL   O53435940   0.583   2.267   4.195  0.1633  0.0848  0.2427
   64MOL   C53535941   0.496   2.300   4.301 -0.2172 -0.0573  0.7552
   64MOL   C53635942   0.344   2.279   4.264  0.1375  0.0612  0.0110
   64MOL   O53735943   0.273   2.324   4.384 -0.1809 -0.2086  0.4372
   64MOL   C53835944   0.294   2.359   4.147 -0.1560  0.0871  0.7039
   64MOL   C53935945   0.298   2.514   4.163  0.7304  0.3387  0.7822
   64MOL   C54035946   0.245   2.588   4.051  0.5661  0.5690 -0.3152
   64MOL   O54135947   0.243   2.725   4.107 -0.6550  0.0608 -0.0095
   64MOL   C54235948   0.109   2.537   4.002  0.8442  0.0156 -0.2439
   64MOL   C54335949   0.055   2.608   3.874  0.1175 -0.0503  0.6788
   64MOL   C54435950   0.106   2.388   3.977 -0.0962  0.6810 -0.0919
   64MOL   C54535951   0.155   2.315   4.102  0.3570  0.4080  0.6388
   64MOL   H54635952   0.512   2.405   4.324  1.2220 -0.0165 -0.4068
   64MOL   H54735953   0.511   2.234   4.387  0.8193 -0.9540 -0.0990
   64MOL   H54835954   0.335   2.171   4.252 -2.3296 -0.1072  2.7960
   64MOL   H54935955   0.317   2.402   4.416 -0.7584 -0.8739  2.9366
   64MOL   H55035956   0.356   2.350   4.058 -1.0234 -0.7886  0.1830
   64MOL   H55135957   0.259   2.541   4.261 -1.5763 -0.7780  0.2126
   64MOL   H55235958   0.399   2.553   4.178  1.2521 -0.3823 -0.8135
   64MOL   H55335959   0.324   2.591   3.976  1.1982  0.5393  0.3523
   64MOL   H55435960   0.311   2.768   4.057  0.8610 -1.0758  1.0002
   64MOL   H55535961   0.035   2.563   4.078 -0.2892  0.7491 -1.5680
   64MOL   H55635962   7.601   2.552   3.833 -1.2114  2.0936  0.3778
   64MOL   H55735963   0.010   2.701   3.910  0.6067  0.9517 -1.2764
   64MOL   H55835964   0.165   2.349   3.895 -0.7736  0.2137 -0.3638
   64MOL   H55935965   0.003   2.362   3.955 -0.4122  1.3306  0.5746
   64MOL   H56035966   0.167   2.210   4.073  0.9685  0.6875 -0.1202
   64MOL   H56135967   0.087   2.311   4.187  0.4119  1.3702  0.7290
   64MOL   H56235968   0.128   2.629   3.797 -1.2666  0.7916 -0.4259
   65MOL     O135969   6.190   1.239   2.013 -0.3209  0.0217 -0.1420
   65MOL     C235970   6.062   1.262   2.071 -0.3137 -0.0479 -0.3713
   65MOL     C335971   6.085   1.241   2.223 -0.3756  0.1424  0.0486
   65MOL     O435972   6.181   1.145   2.255 -0.4004 -0.3400  0.4739
   65MOL     C535973   6.122   1.369   2.303  0.2941  0.2011  0.2351
   65MOL     C635974   6.225   1.459   2.245 -0.6042  0.0937  0.8724
   65MOL     C735975   6.233   1.596   2.321 -0.1145 -0.1119 -0.7413
   65MOL     O835976   6.336   1.672   2.266  0.2472  0.1288  0.3680
   65MOL     C935977   6.252   1.579   2.469  0.0764  0.2539 -0.0543
   65MOL    C1035978   6.245   1.709   2.554  0.1555 -0.4005 -0.0050
   65MOL    C1135979   6.149   1.478   2.529 -0.0219 -0.1822  0.9732
   65MOL    C1235980   6.148   1.347   2.452  0.1120  0.3053  0.0273
   65MOL    H1335981   5.983   1.195   2.038 -1.4054  1.1186 -0.1652
   65MOL    H1435982   6.029   1.364   2.053  0.3829  0.0353 -1.2678
   65MOL    H1535983   5.986   1.207   2.253 -0.6877  2.9834  2.5588
   65MOL    H1635984   6.181   1.128   2.348 -0.0936  1.2387  0.7748
   65MOL    H1735985   6.034   1.433   2.297  2.2761  2.9374 -0.4533
   65MOL    H1835986   6.322   1.411   2.254 -0.2829  0.8314  1.4097
   65MOL    H1935987   6.227   1.479   2.138  1.5440 -0.0827  0.8523
   65MOL    H2035988   6.139   1.651   2.316  0.4980  1.0804  0.4782
   65MOL    H2135989   6.326   1.763   2.292  0.6302  0.3975 -0.4098
   65MOL    H2235990   6.354   1.549   2.494  0.4558  0.7996 -0.9311
   65MOL    H2335991   6.327   1.776   2.527 -1.8176  0.9027 -3.0515
   65MOL    H2435992   6.148   1.751   2.528 -1.1633 -3.5141 -0.2468
   65MOL    H2535993   6.050   1.523   2.522 -0.0578 -0.2900  0.7703
   65MOL    H2635994   6.166   1.461   2.635 -1.0512  0.7325  1.3077
   65MOL    H2735995   6.078   1.273   2.492  0.5801 -1.2791 -1.9973
   65MOL    H2835996   6.243   1.296   2.470  0.8894  1.9940  0.8524
   65MOL    H2935997   6.242   1.206   2.085  2.1328  0.4017 -1.6691
   65MOL    O3035998   6.256   1.679   2.691 -0.5647 -0.3284  0.2133
   65MOL    C3135999   6.222   1.785   2.772 -0.3481  0.3714 -0.4846
   65MOL    C3236000   6.230   1.736   2.917 -0.0195 -0.0485  0.7417
   65MOL    O3336001   6.108   1.678   2.948 -0.0771  0.7708  0.0922
   65MOL    C3436002   6.358   1.661   2.973 -0.3342  0.5349 -0.0356
   65MOL    C3536003   6.367   1.654   3.127  0.5096  0.2972  0.2045
   65MOL    C3636004   6.496   1.594   3.176  0.2820 -0.4901  0.5882
   65MOL    O3736005   6.496   1.616   3.315  0.3831  0.0247 -0.9092
   65MOL    C3836006   6.617   1.661   3.114  0.5417 -0.0716 -0.0665
   65MOL    C3936007   6.750   1.595   3.164 -0.6145 -0.0672 -0.4844
   65MOL    C4036008   6.612   1.659   2.959  0.2223 -0.7425 -0.2119
   65MOL    C4136009   6.488   1.729   2.912 -0.1032  0.3826 -0.1242
   65MOL    H4236010   6.122   1.821   2.747 -0.9815 -0.3531  0.9571
   65MOL    H4336011   6.291   1.869   2.759  0.0191  0.1222 -0.1903
   65MOL    H4436012   6.240   1.835   2.961  0.9307 -0.1882  0.8483
   65MOL    H4536013   6.113   1.587   2.923  3.0467  0.9185 -0.0403
   65MOL    H4636014   6.352   1.561   2.929  0.7858  1.6052 -2.7336
   65MOL    H4736015   6.357   1.757   3.161  0.4343  0.9656 -1.7737
   65MOL    H4836016   6.275   1.605   3.159  0.8236  0.2902  1.0978
   65MOL    H4936017   6.507   1.488   3.154  1.5844  0.0613 -1.6103
   65MOL    H5036018   6.586   1.605   3.342  0.2367  0.9641  0.0139
   65MOL    H5136019   6.612   1.766   3.146  0.5698  0.1008 -0.6295
   65MOL    H5236020   6.763   1.489   3.142  0.5603 -0.0786  0.2317
   65MOL    H5336021   6.820   1.656   3.107  0.7951 -1.4578 -0.2988
   65MOL    H5436022   6.624   1.554   2.933 -2.5101 -1.6151  1.7608
   65MOL    H5536023   6.696   1.711   2.912  0.5391 -2.3756 -1.4960
   65MOL    H5636024   6.482   1.752   2.805 -0.8533  2.0650  0.2760
   65MOL    H5736025   6.496   1.828   2.956 -1.9421 -0.2941  1.8236
   65MOL    O5836026   6.782   1.629   3.299 -0.1162  0.0441 -0.4614
   65MOL    C5936027   6.905   1.586   3.342 -0.2632  0.5123  0.4374
   65MOL    C6036028   6.917   1.612   3.496 -0.5086  0.3840 -0.0365
   65MOL    O6136029   6.939   1.743   3.508 -0.6780  0.1100  0.5278
   65MOL    C6236030   6.791   1.564   3.580 -0.3691 -0.4163  0.7080
   65MOL    C6336031   6.774   1.626   3.720  0.1661 -0.7741  0.2517
   65MOL    C6436032   6.646   1.582   3.793 -0.5424 -1.1146 -0.0202
   65MOL    O6536033   6.657   1.633   3.926  0.6383  0.2112  0.0324
   65MOL    C6636034   6.641   1.435   3.804  0.0293 -0.2192 -0.3751
   65MOL    C6736035   6.500   1.401   3.864  0.3563 -0.4618 -0.7437
   65MOL    C6836036   6.659   1.377   3.666  0.2176  0.6894 -0.4072
   65MOL    C6936037   6.784   1.413   3.590 -0.0868 -0.0492 -0.0762
   65MOL    H7036038   6.988   1.639   3.294 -0.5438 -0.2827 -0.9420
   65MOL    H7136039   6.922   1.480   3.326 -2.0541  0.4520 -1.2482
   65MOL    H7236040   7.005   1.573   3.548 -0.2694 -0.9485 -1.3920
   65MOL    H7336041   6.865   1.778   3.459 -1.0649 -0.7205  0.5002
   65MOL    H7436042   6.713   1.594   3.511  1.3294 -0.5646 -1.3440
   65MOL    H7536043   6.866   1.599   3.773  0.8104 -2.1954 -1.5633
   65MOL    H7636044   6.778   1.734   3.706  1.2287 -0.6713  1.1927
   65MOL    H7736045   6.559   1.617   3.736  0.4019  1.9387  0.3160
   65MOL    H7836046   6.744   1.612   3.956  0.4591  2.1033  1.9484
   65MOL    H7936047   6.710   1.405   3.884 -2.1605  2.0742  2.5036
   65MOL    H8036048   6.488   1.452   3.960  0.6267  1.1922 -1.5735
   65MOL    H8136049   6.432   1.450   3.795  1.8867 -1.1726 -2.8041
   65MOL    H8236050   6.577   1.403   3.600 -0.1042  0.7086 -0.0044
   65MOL    H8336051   6.655   1.268   3.674  4.7416  0.4844  0.8562
   65MOL    H8436052   6.785   1.369   3.491  2.6952 -0.9323  0.2888
   65MOL    H8536053   6.864   1.376   3.655  0.6394  1.6302  0.0145
   65MOL    O8636054   6.469   1.263   3.877  0.4528  0.0725  0.2409
   65MOL    C8736055   6.334   1.228   3.912  0.4137  0.2587 -0.2488
   65MOL    C8836056   6.319   1.250   4.064  0.2908  0.0141  0.2342
   65MOL    O8936057   6.180   1.244   4.093  0.2822 -0.7963  0.6936
   65MOL    C9036058   6.399   1.150   4.152 -0.0044  0.2635  0.3682
   65MOL    C9136059   6.340   1.006   4.168  0.0606 -0.1596  0.3315
   65MOL    C9236060   6.428   0.910   4.243 -0.2234  0.2006  0.4264
   65MOL    O9336061   6.348   0.797   4.251  0.1946 -0.2679 -0.7613
   65MOL    C9436062   6.458   0.961   4.388  0.4385  0.4434  0.6627
   65MOL    C9536063   6.565   0.863   4.445 -0.9304  0.2220 -0.3419
   65MOL    C9636064   6.515   1.105   4.376 -1.3207  0.3475 -0.1788
   65MOL    C9736065   6.434   1.202   4.284  0.5406 -0.1737 -0.2145
   65MOL    H9836066   6.325   1.120   3.901  3.0528  0.0677 -0.9970
   65MOL    H9936067   6.266   1.276   3.841 -0.5634 -1.2884 -0.3677
   65MOL   H10036068   6.342   1.353   4.090  0.4581 -0.1770  0.8490
   65MOL   H10136069   6.165   1.152   4.110 -0.2365 -0.5510  1.5791
   65MOL   H10236070   6.497   1.152   4.105 -0.5215  1.4914 -0.7093
   65MOL   H10336071   6.246   1.016   4.222  0.6196  4.4553  0.6682
   65MOL   H10436072   6.323   0.956   4.073  0.6795 -1.7299  1.0382
   65MOL   H10536073   6.520   0.892   4.187  0.0519  0.9846  0.6256
   65MOL   H10636074   6.308   0.772   4.169  0.7169  0.7745 -1.3431
   65MOL   H10736075   6.362   0.959   4.440  0.6477 -1.8180  0.9982
   65MOL   H10836076   6.529   0.760   4.447 -1.6035  0.4457 -0.5466
   65MOL   H10936077   6.654   0.864   4.383  1.1076  2.3038  2.4884
   65MOL   H11036078   6.615   1.102   4.333 -0.0440 -1.8490  2.8072
   65MOL   H11136079   6.521   1.148   4.476  0.4319 -0.8222  0.2283
   65MOL   H11236080   6.493   1.293   4.269  0.6191 -0.4421 -1.5181
   65MOL   H11336081   6.346   1.230   4.342  0.1737  0.0890 -0.8982
   65MOL   O11436082   6.599   0.909   4.573  0.6088 -0.2282 -0.0860
   65MOL   C11536083   6.516   0.874   4.678  0.2812 -0.9319  0.2975
   65MOL   C11636084   6.546   0.963   4.794 -0.0445  0.0942 -0.4390
   65MOL   O11736085   6.497   1.092   4.760  0.0759 -0.4903 -0.1870
   65MOL   C11836086   6.502   0.923   4.933  0.3063 -0.2813 -0.0710
   65MOL   C11936087   6.344   0.882   4.933  0.3329  0.6472  0.1291
   65MOL   C12036088   6.293   0.853   5.076 -0.0657  0.6363 -0.1252
   65MOL   O12136089   6.152   0.825   5.064 -0.2286 -0.2542  0.4945
   65MOL   C12236090   6.334   0.960   5.184  0.7670  0.1907  0.1121
   65MOL   C12336091   6.293   0.900   5.324 -0.9306  0.1284  0.1491
   65MOL   C12436092   6.487   0.990   5.185 -0.0736 -0.0833 -0.3484
   65MOL   C12536093   6.528   1.032   5.042 -0.5879  0.1905  0.7300
   65MOL   H12636094   6.532   0.770   4.706 -3.0108 -1.8314 -0.8760
   65MOL   H12736095   6.414   0.883   4.639  1.0511  1.1175 -1.3249
   65MOL   H12836096   6.653   0.984   4.797 -0.4743  2.3126  0.6917
   65MOL   H12936097   6.404   1.096   4.744  0.3133 -0.5310 -1.6344
   65MOL   H13036098   6.569   0.838   4.953 -0.9865 -0.6938  2.8747
   65MOL   H13136099   6.279   0.965   4.903  1.4976  1.7837  0.6807
   65MOL   H13236100   6.324   0.798   4.867  3.5165  0.4792 -0.7345
   65MOL   H13336101   6.341   0.761   5.110 -0.3899  0.5512  0.1099
   65MOL   H13436102   6.111   0.784   5.139  1.4120 -1.8783  0.5308
   65MOL   H13536103   6.284   1.054   5.162  1.1983  0.6382  1.0306
   65MOL   H13636104   6.186   0.877   5.328 -0.9973  0.0849 -1.5940
   65MOL   H13736105   6.347   0.810   5.351  0.7083  1.7175  2.3711
   65MOL   H13836106   6.549   0.910   5.223  0.8126  0.3775 -0.7986
   65MOL   H13936107   6.503   1.071   5.256 -4.2346 -0.1360  0.7591
   65MOL   H14036108   6.636   1.050   5.037 -0.4463 -0.6036  0.9194
   65MOL   H14136109   6.468   1.121   5.022 -0.3053  0.6071  1.6847
   65MOL   O14236110   6.320   1.006   5.417 -0.6933  0.1537  0.8525
   65MOL   C14336111   6.317   0.959   5.550  0.2063 -0.6231 -0.1262
   65MOL   C14436112   6.408   1.059   5.629  0.2252  0.2292 -0.0970
   65MOL   O14536113   6.398   1.023   5.767  0.1220  0.0029 -0.0345
   65MOL   C14636114   6.554   1.058   5.573  0.4019  0.0252 -0.1943
   65MOL   C14736115   6.614   0.916   5.571 -0.0006 -0.0150 -0.8823
   65MOL   C14836116   6.763   0.906   5.555  0.5877  0.2621 -0.0267
   65MOL   O14936117   6.787   0.767   5.580 -0.2034  0.0364 -0.2041
   65MOL   C15036118   6.855   0.990   5.648  0.2661  0.0376 -0.2874
   65MOL   C15136119   7.002   0.995   5.605  0.8012 -0.1005  0.1323
   65MOL   C15236120   6.797   1.132   5.642  0.2840  0.2313 -0.1897
   65MOL   C15336121   6.647   1.131   5.676 -0.3040 -0.6384  0.2535
   65MOL   H15436122   6.357   0.857   5.559 -0.4874 -0.9025 -0.1831
   65MOL   H15536123   6.212   0.962   5.580 -0.0504 -3.1435 -0.6020
   65MOL   H15636124   6.378   1.163   5.618  0.8096  0.3046 -1.0707
   65MOL   H15736125   6.317   0.975   5.778  0.8950 -1.2029  0.4573
   65MOL   H15836126   6.561   1.106   5.475 -0.4482 -1.7520 -1.1611
   65MOL   H15936127   6.592   0.875   5.670 -1.8434 -1.4994 -1.8625
   65MOL   H16036128   6.567   0.849   5.499  2.7064 -0.4214 -2.3141
   65MOL   H16136129   6.793   0.924   5.452  1.5666 -1.5014 -0.0591
   65MOL   H16236130   6.875   0.741   5.560 -0.6784 -1.3418 -0.5558
   65MOL   H16336131   6.846   0.942   5.746 -4.5152  0.4546 -0.4087
   65MOL   H16436132   7.006   1.047   5.510 -3.6504  0.4188  0.1414
   65MOL   H16536133   7.058   1.050   5.681  1.6987  1.2524 -1.5006
   65MOL   H16636134   6.812   1.162   5.538 -2.0106 -2.5687 -1.3872
   65MOL   H16736135   6.860   1.196   5.704  0.5064  0.4346 -0.6258
   65MOL   H16836136   6.625   1.237   5.686 -3.1615 -1.2884  1.5717
   65MOL   H16936137   6.642   1.080   5.772 -0.3104 -2.1857 -0.5402
   65MOL   O17036138   7.075   0.870   5.590 -0.5612  0.4346 -0.0871
   65MOL   C17136139   7.198   0.891   5.523  0.0637  0.0371  0.0435
   65MOL   C17236140   7.285   0.764   5.521 -0.2718 -0.2511 -0.1806
   65MOL   O17336141   7.215   0.674   5.440  0.2531  0.6897  0.0626
   65MOL   C17436142   7.426   0.780   5.472 -0.3858 -0.5573 -0.2090
   65MOL   C17536143   7.497   0.640   5.457 -0.0905  0.6946 -0.2862
   65MOL   C17636144   0.007   0.653   5.394 -0.2751  0.2941  0.5769
   65MOL   O17736145   0.058   0.518   5.382  1.0004 -0.6540  0.1828
   65MOL   C17836146   0.094   0.743   5.483  0.2481  0.4712  0.4242
   65MOL   C17936147   0.236   0.768   5.423 -0.4381  0.6191  0.6356
   65MOL   C18036148   0.037   0.881   5.498  0.0227  0.0450 -0.2091
   65MOL   C18136149   7.517   0.888   5.547 -0.8844  0.1686 -0.2178
   65MOL   H18236150   7.255   0.968   5.575  0.7272 -1.1215  1.0335
   65MOL   H18336151   7.178   0.925   5.422 -0.9090  0.6044  0.4185
   65MOL   H18436152   7.291   0.713   5.617 -2.0894 -0.0682  0.0604
   65MOL   H18536153   7.125   0.662   5.465  0.2931 -0.5933 -0.3694
   65MOL   H18636154   7.420   0.809   5.367  4.6507  0.1020 -0.4417
   65MOL   H18736155   7.510   0.601   5.558  0.3215  2.3890  0.3238
   65MOL   H18836156   7.439   0.571   5.396 -0.0189 -0.5034  0.9812
   65MOL   H18936157   7.629   0.696   5.295  0.2243  0.1782  0.4900
   65MOL   H19036158   0.046   0.496   5.291  0.9685 -1.8949  0.4829
   65MOL   H19136159   0.109   0.699   5.581  2.6880 -0.9882 -0.5664
   65MOL   H19236160   0.280   0.668   5.422  2.3696  1.8206  0.2064
   65MOL   H19336161   0.217   0.815   5.326 -0.8646 -1.0544 -0.1015
   65MOL   H19436162   0.032   0.935   5.403  1.0366  0.4867 -0.0205
   65MOL   H19536163   0.096   0.939   5.569 -0.7114  0.4030  0.1150
   65MOL   H19636164   7.492   0.994   5.543  0.8207  0.5587 -1.4189
   65MOL   H19736165   7.514   0.868   5.654  0.9011 -0.3082 -0.2425
   65MOL   O19836166   0.313   0.866   5.493  0.0152 -0.6115  0.4214
   65MOL   C19936167   0.354   0.817   5.620 -0.7384 -0.0803  0.2923
   65MOL   C20036168   0.502   0.782   5.627 -0.0662 -0.3862  0.5806
   65MOL   O20136169   0.576   0.872   5.707 -0.5843  0.0328 -0.7863
   65MOL   C20236170   0.540   0.644   5.681 -0.4603  0.2555 -0.1762
   65MOL   C20336171   0.691   0.616   5.704  0.1762  0.6671 -0.2843
   65MOL   C20436172   0.735   0.480   5.766 -0.3000 -0.9088 -0.1471
   65MOL   O20536173   0.872   0.460   5.734 -0.0454 -0.1282  0.3248
   65MOL   C20636174   0.660   0.355   5.711 -0.3295 -0.5508 -0.1183
   65MOL   C20736175   0.662   0.234   5.810 -0.7468  0.7488 -0.3131
   65MOL   C20836176   0.515   0.389   5.672 -0.3707 -0.1205  0.2519
   65MOL   C20936177   0.486   0.524   5.593 -0.0343 -0.0574  0.4867
   65MOL   H21036178   0.298   0.738   5.670 -1.5126  1.5937  2.1467
   65MOL   H21136179   0.340   0.896   5.694  0.3582 -1.8814  2.4927
   65MOL   H21236180   0.544   0.787   5.526  0.8179  1.0916  0.9966
   65MOL   H21336181   0.585   0.956   5.665 -2.8079 -0.0183 -1.4138
   65MOL   H21436182   0.479   0.633   5.771 -0.5080  2.5063  0.0985
   65MOL   H21536183   0.732   0.615   5.603 -1.8959 -0.4195 -1.1454
   65MOL   H21636184   0.741   0.695   5.761  0.2345 -0.9063  1.9451
   65MOL   H21736185   0.728   0.480   5.874  0.4513  0.0805 -0.1010
   65MOL   H21836186   0.920   0.482   5.813 -0.9510 -0.2974  0.9279
   65MOL   H21936187   0.718   0.320   5.626 -0.2330 -0.8654  0.0764
   65MOL   H22036188   0.765   0.201   5.797 -0.6774 -0.0708  2.1809
   65MOL   H22136189   0.643   0.270   5.911 -0.2558  0.6360 -0.1763
   65MOL   H22236190   0.451   0.380   5.760 -0.9629  1.0559 -0.0596
   65MOL   H22336191   0.483   0.308   5.607 -0.6958  1.7584 -1.9947
   65MOL   H22436192   0.377   0.525   5.584  0.0646  1.4176 -0.9072
   65MOL   H22536193   0.531   0.528   5.494 -1.3766 -1.7634 -0.2124
   65MOL   O22636194   0.572   0.129   5.771 -0.4472 -0.0861  0.2442
   65MOL   C22736195   0.535   0.044   5.876 -0.0599 -0.3240 -0.0571
   65MOL   C22836196   0.441   7.575   5.805 -0.4012  0.3826 -0.4311
   65MOL   O22936197   0.351   0.033   5.746 -1.0236 -0.3527  0.4721
   65MOL   C23036198   0.509   7.458   5.712 -0.2834  0.1894  0.2728
   65MOL   C23136199   0.597   7.515   5.606  0.4294  0.2435 -0.5017
   65MOL   C23236200   0.647   7.409   5.505  0.4981 -0.3576  0.2296
   65MOL   O23336201   0.701   7.481   5.399  0.1426 -0.0089  0.0156
   65MOL   C23436202   0.529   7.319   5.457 -0.5236 -0.1313 -0.4081
   65MOL   C23536203   0.575   7.213   5.360  0.4260 -0.2162 -0.3161
   65MOL   C23636204   0.457   7.252   5.569 -0.0623 -0.5248 -0.0459
   65MOL   C23736205   0.403   7.358   5.666  0.3181  0.4247  0.2662
   65MOL   H23836206   0.493   0.118   5.945  2.1914  0.5895  0.3726
   65MOL   H23936207   0.625   0.004   5.922  2.2062  4.8013  0.3788
   65MOL   H24036208   0.381   7.530   5.885  0.6898 -1.4915 -0.6329
   65MOL   H24136209   0.414   0.094   5.710 -1.3568  0.4170  1.1625
   65MOL   H24236210   0.577   7.399   5.773  0.4963  2.0205  1.2283
   65MOL   H24336211   0.531   7.586   5.557  1.5371  0.8758 -1.0862
   65MOL   H24436212   0.684   7.571   5.641  2.6756 -2.4915 -1.5156
   65MOL   H24536213   0.726   7.360   5.562 -0.2765 -1.2012  0.5968
   65MOL   H24636214   0.738   7.558   5.440  0.3543  0.9773 -1.9940
   65MOL   H24736215   0.457   7.389   5.414 -0.6465  0.6019  0.9539
   65MOL   H24836216   0.483   7.163   5.330 -0.6784  0.6255  1.5942
   65MOL   H24936217   0.625   7.249   5.270 -1.1396  0.2281 -1.0157
   65MOL   H25036218   0.528   7.192   5.626 -0.6730  1.0850  2.5441
   65MOL   H25136219   0.374   7.191   5.533  0.7393 -1.7004  0.1106
   65MOL   H25236220   0.348   7.312   5.749 -0.1949 -0.6595 -0.6609
   65MOL   H25336221   0.324   7.405   5.608  1.6709  2.0428 -0.2719
   65MOL   O25436222   0.658   7.113   5.415 -0.7592  0.2199  0.7137
   65MOL   C25536223   0.687   7.015   5.322 -0.3713  0.2690 -0.6137
   65MOL   C25636224   0.760   6.902   5.407  0.4381 -0.0894  0.0308
   65MOL   O25736225   0.653   6.864   5.495 -0.7554 -0.3016  0.1798
   65MOL   C25836226   0.836   6.788   5.342  0.0243  0.1572 -0.0722
   65MOL   C25936227   0.745   6.690   5.261 -0.2972 -0.5866  0.4257
   65MOL   C26036228   0.832   6.584   5.188  0.2051 -0.1070 -0.9525
   65MOL   O26136229   0.764   6.485   5.111  0.2226  0.0820  0.0123
   65MOL   C26236230   0.918   6.503   5.286  0.0949 -0.2343  1.2506
   65MOL   C26336231   1.023   6.410   5.218 -0.1824 -0.1594 -0.3872
   65MOL   C26436232   0.987   6.584   5.395  0.0935 -0.4581  0.0806
   65MOL   C26536233   0.918   6.711   5.447  0.2720  0.4723 -0.4060
   65MOL   H26636234   0.747   7.060   5.243  2.0762 -1.0420  0.4339
   65MOL   H26736235   0.593   6.980   5.280 -0.9339  1.7500 -0.6201
   65MOL   H26836236   0.836   6.950   5.469 -0.3634  0.5450  0.5370
   65MOL   H26936237   0.615   6.950   5.503  0.6461  0.5633 -1.8538
   65MOL   H27036238   0.907   6.840   5.277 -0.9055  0.7320 -0.6480
   65MOL   H27136239   0.666   6.644   5.320 -0.5215  0.5657  1.0324
   65MOL   H27236240   0.685   6.746   5.189 -0.3638 -1.6159 -0.3288
   65MOL   H27336241   0.898   6.636   5.118 -0.5901  0.1976 -1.4861
   65MOL   H27436242   0.819   6.474   5.034 -1.2079 -3.7301 -0.5601
   65MOL   H27536243   0.850   6.431   5.330  0.9119 -0.5263  2.0611
   65MOL   H27636244   0.978   6.346   5.142  0.1426  1.9133 -2.3768
   65MOL   H27736245   1.087   6.472   5.154  0.7788 -1.6504 -0.8885
   65MOL   H27836246   1.083   6.620   5.358 -0.5184  0.6633 -0.4265
   65MOL   H27936247   1.020   6.519   5.476  2.4402 -0.5440 -0.9144
   65MOL   H28036248   0.998   6.780   5.473  1.6668 -0.6614 -1.6061
   65MOL   H28136249   0.862   6.686   5.536 -0.1410  2.2347 -0.1497
   65MOL   O28236250   1.090   6.331   5.312  0.3124  0.4454  0.5390
   65MOL   C28336251   1.211   6.272   5.262  0.4404  0.5573 -0.1614
   65MOL   C28436252   1.271   6.201   5.376 -0.5667 -0.2340  0.6391
   65MOL   O28536253   1.190   6.100   5.420  0.0260 -0.1555 -0.0378
   65MOL   C28636254   1.405   6.140   5.339 -0.3245  0.1754  1.1625
   65MOL   C28736255   1.473   6.098   5.470 -0.0417 -0.3458  0.6864
   65MOL   C28836256   1.595   6.001   5.440  0.5232 -0.1039  0.2247
   65MOL   O28936257   1.642   5.970   5.570 -0.7907 -0.6060  0.3801
   65MOL   C29036258   1.702   6.064   5.357  0.4773  0.2853 -0.2112
   65MOL   C29136259   1.821   5.971   5.317 -0.3309 -0.0192 -0.2556
   65MOL   C29236260   1.639   6.128   5.234 -0.5236  0.3527 -0.2184
   65MOL   C29336261   1.512   6.214   5.262  0.4138  0.8007 -0.6734
   65MOL   H29436262   1.281   6.351   5.235  1.8735  0.4654  3.0400
   65MOL   H29536263   1.200   6.210   5.173 -1.4943  0.5318  0.0729
   65MOL   H29636264   1.285   6.278   5.453 -0.9105 -1.0289  1.5145
   65MOL   H29736265   1.106   6.141   5.433 -1.0524 -2.9264  2.0948
   65MOL   H29836266   1.390   6.048   5.283 -0.2767  0.2500  1.0266
   65MOL   H29936267   1.506   6.185   5.527 -0.4319 -1.1546  2.1854
   65MOL   H30036268   1.408   6.047   5.541  0.8912 -1.1105  1.0073
   65MOL   H30136269   1.557   5.914   5.386 -1.4523  0.8474  0.0427
   65MOL   H30236270   1.587   5.906   5.612 -0.5105  0.1764  1.9872
   65MOL   H30336271   1.742   6.144   5.420 -0.5654  1.2921 -0.8034
   65MOL   H30436272   1.826   5.884   5.383 -4.9466 -0.4736 -0.3227
   65MOL   H30536273   1.810   5.929   5.217 -0.5688 -2.0388  0.5914
   65MOL   H30636274   1.599   6.044   5.177  0.4888 -0.0576 -0.3447
   65MOL   H30736275   1.713   6.183   5.176  0.5158  0.0096  0.7694
   65MOL   H30836276   1.476   6.239   5.162  0.7437 -1.4215 -1.3672
   65MOL   H30936277   1.550   6.298   5.321  1.7460 -0.4219  0.2440
   65MOL   O31036278   1.944   6.053   5.312 -0.0381  0.0483 -0.6621
   65MOL   C31136279   2.053   5.995   5.253 -0.1056 -0.5117 -0.3879
   65MOL   C31236280   2.163   6.106   5.243  0.0020 -0.4713  0.0052
   65MOL   O31336281   2.244   6.099   5.361  0.4124 -0.2810 -0.6004
   65MOL   C31436282   2.245   6.102   5.112 -0.3462  0.6802 -0.0041
   65MOL   C31536283   2.172   6.155   4.984  0.2027  0.6393 -0.5826
   65MOL   C31636284   2.254   6.161   4.857  0.3914 -0.1043  0.0409
   65MOL   O31736285   2.174   6.177   4.739 -0.1987  0.3261 -0.7769
   65MOL   C31836286   2.339   6.027   4.835  0.4450  1.2535  0.8467
   65MOL   C31936287   2.440   6.041   4.725  0.1289 -0.4478  0.2323
   65MOL   C32036288   2.414   5.998   4.963 -0.4872 -0.2396 -0.0598
   65MOL   C32136289   2.323   5.976   5.085  0.2394  0.2225 -0.0333
   65MOL   H32236290   2.024   5.982   5.149  0.3059  1.7674 -0.8178
   65MOL   H32336291   2.075   5.904   5.309 -3.6293 -0.0562  1.8917
   65MOL   H32436292   2.106   6.199   5.247 -0.4892 -0.8075  1.1396
   65MOL   H32536293   2.175   6.113   5.424  0.9547 -1.7614  0.3623
   65MOL   H32636294   2.325   6.174   5.124  0.1328  0.3208 -0.9356
   65MOL   H32736295   2.094   6.083   4.959 -0.6182  2.0542 -2.1253
   65MOL   H32836296   2.134   6.255   5.006 -1.0794 -0.6202  3.3546
   65MOL   H32936297   2.329   6.237   4.878 -0.5047  0.5032  1.0950
   65MOL   H33036298   2.085   6.148   4.751  0.4403 -0.7950  1.4124
   65MOL   H33136299   2.265   5.953   4.806 -0.3290  1.5442  2.0492
   65MOL   H33236300   2.500   5.950   4.728  3.1298  1.5389  2.9647
   65MOL   H33336301   2.387   6.056   4.631 -0.9529 -0.2731  0.8591
   65MOL   H33436302   2.488   6.075   4.980 -0.0390 -1.0488  1.7926
   65MOL   H33536303   2.462   5.900   4.954 -0.5970 -0.5005  1.9629
   65MOL   H33636304   2.373   5.943   5.176  1.5908 -2.7824 -1.7868
   65MOL   H33736305   2.260   5.891   5.058  0.6872  0.1262 -0.7825
   65MOL   O33836306   2.537   6.148   4.758  0.9369  0.6482  0.5146
   65MOL   C33936307   2.649   6.125   4.676  0.1159 -0.1699  0.9111
   65MOL   C34036308   2.724   6.252   4.703 -0.0892  0.1119 -0.4140
   65MOL   O34136309   2.750   6.264   4.831  0.0114  0.1783 -0.1478
   65MOL   C34236310   2.862   6.258   4.629 -0.2085 -0.0209  0.3822
   65MOL   C34336311   2.971   6.155   4.676  0.3533  0.4399  0.8037
   65MOL   C34436312   3.108   6.174   4.603  0.3430  0.0102 -0.3951
   65MOL   O34536313   3.191   6.080   4.675 -0.0272  0.1952  1.0542
   65MOL   C34636314   3.162   6.318   4.613 -0.2219 -0.1804  0.8573
   65MOL   C34736315   3.293   6.342   4.544  0.7694 -0.0543  0.0698
   65MOL   C34836316   3.057   6.407   4.552  0.0848  0.0912 -0.4414
   65MOL   C34936317   2.922   6.398   4.618 -0.1950  0.0811 -0.2639
   65MOL   H35036318   2.624   6.131   4.570  0.1981  3.4550  1.0229
   65MOL   H35136319   2.702   6.031   4.692 -2.3983 -1.6909  0.6263
   65MOL   H35236320   2.661   6.340   4.685 -0.4176  0.2136  1.1498
   65MOL   H35336321   2.686   6.209   4.873  0.1436  0.1052 -0.0366
   65MOL   H35436322   2.845   6.230   4.526  0.5625  0.5174  0.1038
   65MOL   H35536323   2.983   6.162   4.784 -0.8112 -2.7095  1.2174
   65MOL   H35636324   2.943   6.050   4.664 -0.6228  0.6873  0.8572
   65MOL   H35736325   3.097   6.145   4.498  0.8751  2.5595 -1.2086
   65MOL   H35836326   3.194   6.104   4.766 -0.8756  1.6739  0.7014
   65MOL   H35936327   3.175   6.347   4.717  0.5976  0.7643  0.4975
   65MOL   H36036328   3.361   6.259   4.563  0.7858 -0.1923 -0.5621
   65MOL   H36136329   3.286   6.324   4.436  3.7991  0.8136 -0.3222
   65MOL   H36236330   3.033   6.380   4.449 -1.5180 -0.2835  0.0243
   65MOL   H36336331   3.086   6.512   4.545  0.3851  0.0293 -0.1412
   65MOL   H36436332   2.854   6.472   4.574 -0.0618  0.2496 -0.1865
   65MOL   H36536333   2.934   6.432   4.721  2.1090 -0.8623 -0.1977
   65MOL   O36636334   3.349   6.467   4.574  0.2115  0.1176  0.1842
   65MOL   C36736335   3.449   6.512   4.480 -0.0963 -0.1370  0.1239
   65MOL   C36836336   3.381   6.574   4.353  0.1569  0.0756 -0.1131
   65MOL   O36936337   3.400   6.708   4.355 -0.0860 -0.2523 -0.1037
   65MOL   C37036338   3.443   6.517   4.222  0.1749  0.0476  0.2054
   65MOL   C37136339   3.595   6.557   4.189 -0.4943  0.1894  0.1667
   65MOL   C37236340   3.639   6.493   4.055  0.9179 -0.3665 -0.2059
   65MOL   O37336341   3.764   6.559   4.022 -0.7143 -0.1395  0.4486
   65MOL   C37436342   3.532   6.511   3.943  0.4209 -0.7233 -0.1574
   65MOL   C37536343   3.575   6.446   3.804  0.6653 -0.2582  0.3578
   65MOL   C37636344   3.396   6.468   3.984  0.6671  0.1479 -0.7071
   65MOL   C37736345   3.351   6.547   4.105  0.1283 -0.0127 -0.7785
   65MOL   H37836346   3.505   6.423   4.453 -2.6128 -1.4789 -0.8025
   65MOL   H37936347   3.518   6.581   4.530 -0.1241  0.9902 -1.3557
   65MOL   H38036348   3.276   6.544   4.353  0.0903  0.2156 -2.0344
   65MOL   H38136349   3.490   6.728   4.376 -1.2331  4.9515  0.7245
   65MOL   H38236350   3.453   6.409   4.236  0.7350  0.0124 -0.4514
   65MOL   H38336351   3.588   6.665   4.186 -1.1044  0.1257 -1.3499
   65MOL   H38436352   3.659   6.537   4.276  0.9695  0.5441 -0.8057
   65MOL   H38536353   3.655   6.387   4.073 -1.1977 -0.8193 -0.8704
   65MOL   H38636354   3.837   6.501   4.035 -0.0004  0.7502  0.4463
   65MOL   H38736355   3.523   6.619   3.933 -1.7036 -1.0134 -1.8213
   65MOL   H38836356   3.675   6.479   3.777  0.8198 -1.5759 -0.7241
   65MOL   H38936357   3.583   6.340   3.827  1.2385 -0.7111 -1.7950
   65MOL   H39036358   3.402   6.365   4.019  2.2281 -0.9242 -3.9516
   65MOL   H39136359   3.323   6.486   3.905 -3.5800  0.3075  3.0451
   65MOL   H39236360   3.253   6.505   4.124  0.9281 -2.2455 -1.4130
   65MOL   H39336361   3.345   6.655   4.086 -0.0649  0.1407  0.1427
   65MOL   O39436362   3.480   6.474   3.701  0.5115 -0.3161  0.0695
   65MOL   C39536363   3.436   6.612   3.688  0.0567  0.0692  0.1987
   65MOL   C39636364   3.396   6.647   3.541 -0.0499  0.1115  0.4816
   65MOL   O39736365   3.519   6.649   3.470  0.2788  0.6880  0.5751
   65MOL   C39836366   3.282   6.569   3.466  0.0642  0.6978  0.3702
   65MOL   C39936367   3.295   6.421   3.452 -0.0869  0.1813 -0.6747
   65MOL   C40036368   3.180   6.359   3.374 -0.2315 -0.0735  0.6559
   65MOL   O40136369   3.223   6.225   3.369 -0.4273  0.3810  0.0681
   65MOL   C40236370   3.155   6.406   3.234 -0.3151 -0.3539  0.0382
   65MOL   C40336371   3.032   6.340   3.170 -0.8724 -0.0258  0.1688
   65MOL   C40436372   3.151   6.558   3.242 -0.0850 -0.1744 -0.1148
   65MOL   C40536373   3.263   6.623   3.319 -0.6342  0.0476 -0.3430
   65MOL   H40636374   3.510   6.689   3.712  0.1209 -0.3454  1.3832
   65MOL   H40736375   3.350   6.637   3.750  0.3267 -1.5751  1.2728
   65MOL   H40836376   3.369   6.753   3.541 -0.0445  0.1498 -2.3135
   65MOL   H40936377   3.554   6.568   3.504  0.0260 -0.0319 -0.8427
   65MOL   H41036378   3.194   6.581   3.530 -0.0860  0.0194  0.2954
   65MOL   H41136379   3.394   6.405   3.410  0.7942  0.2553  1.2820
   65MOL   H41236380   3.305   6.375   3.551 -4.4256  2.7352  1.0966
   65MOL   H41336381   3.085   6.364   3.427  0.1414 -0.2028  1.3506
   65MOL   H41436382   3.150   6.169   3.392  0.9978 -1.2407  0.7644
   65MOL   H41536383   3.248   6.388   3.181  0.0540  0.2456  0.4725
   65MOL   H41636384   3.059   6.235   3.162 -2.5313 -0.6070  1.9457
   65MOL   H41736385   2.947   6.341   3.238  0.4068  2.6188  1.8057
   65MOL   H41836386   3.059   6.582   3.296 -0.0904 -1.4397  0.4410
   65MOL   H41936387   3.146   6.606   3.144 -1.4372  1.4190  0.7022
   65MOL   H42036388   3.250   6.731   3.316  3.2482  0.5971  0.6529
   65MOL   H42136389   3.355   6.624   3.261 -0.6628  0.4588 -0.3841
   65MOL   O42236390   3.004   6.396   3.043  0.0666  0.3672 -0.1741
   65MOL   C42336391   2.887   6.335   2.986 -0.3151  0.6658  0.2174
   65MOL   C42436392   2.885   6.388   2.840 -0.5871 -0.0407 -0.1962
   65MOL   O42536393   2.999   6.331   2.790 -0.2286  0.0037 -0.0374
   65MOL   C42636394   2.767   6.343   2.759 -0.3752  0.2682  0.3558
   65MOL   C42736395   2.774   6.403   2.616 -0.4031  0.2330  0.3537
   65MOL   C42836396   2.670   6.332   2.527  0.3411  0.1497 -0.5926
   65MOL   O42936397   2.680   6.409   2.405  0.7496 -0.4401  0.0061
   65MOL   C43036398   2.523   6.360   2.583 -0.1777  0.3626  0.0381
   65MOL   C43136399   2.408   6.328   2.486  1.0919  0.1953  0.6199
   65MOL   C43236400   2.521   6.312   2.730 -0.2991 -0.1649  0.6878
   65MOL   C43336401   2.631   6.378   2.816  0.4054  0.7152 -0.1710
   65MOL   H43436402   2.796   6.360   3.040  0.0526  2.5318  0.0204
   65MOL   H43536403   2.895   6.227   2.975 -0.8660  0.2893  3.1479
   65MOL   H43636404   2.896   6.496   2.845  0.0985 -0.0795 -0.7681
   65MOL   H43736405   3.049   6.330   2.870 -0.5756  0.8698  0.1917
   65MOL   H43836406   2.772   6.234   2.762 -1.8857  0.1753 -0.4813
   65MOL   H43936407   2.759   6.510   2.617 -2.3092 -0.0137  1.1807
   65MOL   H44036408   2.874   6.388   2.576 -1.1339 -1.1917 -1.0194
   65MOL   H44136409   2.692   6.227   2.510 -0.0758 -0.3500  1.7993
   65MOL   H44236410   2.762   6.396   2.360  1.0482  2.3354 -0.3207
   65MOL   H44336411   2.503   6.467   2.587 -1.1266  0.2067 -0.2066
   65MOL   H44436412   2.432   6.374   2.391 -0.2894  0.7201  0.5228
   65MOL   H44536413   2.393   6.220   2.489 -1.9608  0.5665 -0.0730
   65MOL   H44636414   2.530   6.204   2.737  1.3801 -0.1329 -0.6477
   65MOL   H44736415   2.422   6.338   2.768 -0.7027  1.3042 -1.2302
   65MOL   H44836416   2.620   6.338   2.916 -0.5664 -0.2530 -0.6565
   65MOL   H44936417   2.604   6.484   2.818  2.6844  1.3033  1.5053
   65MOL   O45036418   2.288   6.386   2.530 -0.0492 -0.0063  0.1206
   65MOL   C45136419   2.203   6.458   2.439  0.2295 -0.1920 -0.2933
   65MOL   C45236420   2.179   6.593   2.504  0.0001 -0.6342 -0.6696
   65MOL   O45336421   2.108   6.561   2.620 -0.2363  0.0682 -0.0764
   65MOL   C45436422   2.306   6.683   2.530 -0.7571  0.5357 -0.7608
   65MOL   C45536423   2.255   6.815   2.600  0.3176  0.0740  0.3113
   65MOL   C45636424   2.381   6.897   2.639  0.2936  0.2409 -0.6848
   65MOL   O45736425   2.335   7.017   2.699  0.3236 -0.0960 -0.1194
   65MOL   C45836426   2.458   6.940   2.514  0.6976 -0.6242  0.8936
   65MOL   C45936427   2.586   7.020   2.530 -0.2009 -0.5352  0.1527
   65MOL   C46036428   2.500   6.809   2.433  0.4716  0.3889 -0.2389
   65MOL   C46136429   2.376   6.724   2.402 -0.1000  0.2088  0.3855
   65MOL   H46236430   2.111   6.406   2.411 -1.6922  3.8616 -1.9305
   65MOL   H46336431   2.256   6.460   2.343 -0.8158 -1.6240 -0.9111
   65MOL   H46436432   2.112   6.656   2.445  2.2936  0.7810 -1.8328
   65MOL   H46536433   2.168   6.500   2.659  0.1022  0.3885 -0.0938
   65MOL   H46636434   2.378   6.634   2.595 -1.0292 -0.0359 -0.8882
   65MOL   H46736435   2.195   6.870   2.528 -1.5078 -2.1205  0.1042
   65MOL   H46836436   2.198   6.791   2.690  1.3065  1.8037  1.4296
   65MOL   H46936437   2.448   6.850   2.710 -1.2294  0.9263  1.2576
   65MOL   H47036438   2.393   7.039   2.770 -0.7717 -0.1556  0.8119
   65MOL   H47136439   2.399   7.000   2.445  1.3944  0.6396  1.3841
   65MOL   H47236440   2.568   7.109   2.589 -2.7113 -1.6606  1.1479
   65MOL   H47336441   2.659   6.968   2.592  0.9121  2.8452  1.8091
   65MOL   H47436442   2.574   6.749   2.486  0.2604  0.6878  0.3951
   65MOL   H47536443   2.546   6.847   2.341  0.3056 -2.2138 -1.4439
   65MOL   H47636444   2.415   6.634   2.355 -1.5473 -0.6021  0.7120
   65MOL   H47736445   2.314   6.771   2.326  1.5296 -1.2961 -1.9265
   65MOL   O47836446   2.646   7.053   2.405  0.1565 -0.2314 -0.2402
   65MOL   C47936447   2.590   7.175   2.347  0.5425 -0.7353 -0.2187
   65MOL   C48036448   2.656   7.186   2.211  0.3370  0.5476  0.4371
   65MOL   O48136449   2.584   7.286   2.141 -0.6124  0.2233 -0.5292
   65MOL   C48236450   2.807   7.213   2.206 -0.0221 -0.2088 -0.3860
   65MOL   C48336451   2.844   7.354   2.264 -0.1345 -0.8856  0.6274
   65MOL   C48436452   2.995   7.393   2.248 -0.6589 -0.2490  0.2381
   65MOL   O48536453   3.005   7.532   2.290 -0.0912  0.0597 -0.1547
   65MOL   C48636454   3.035   7.376   2.101  0.1023 -0.4697  0.4175
   65MOL   C48736455   3.184   7.407   2.084 -0.0609 -0.0166 -0.7507
   65MOL   C48836456   3.010   7.234   2.047 -1.0891 -0.0184  0.2021
   65MOL   C48936457   2.865   7.192   2.056 -0.0439 -0.6176  0.2564
   65MOL   H49036458   2.612   7.268   2.400 -1.5458  0.7462 -1.8749
   65MOL   H49136459   2.483   7.174   2.328  0.3186  0.4062  0.8627
   65MOL   H49236460   2.644   7.086   2.170 -0.8875  1.3960 -1.2899
   65MOL   H49336461   2.594   7.373   2.177 -0.9326  0.6536 -1.4825
   65MOL   H49436462   2.852   7.134   2.266  1.3326 -0.2215 -1.3973
   65MOL   H49536463   2.779   7.430   2.219  1.5364 -0.2030 -0.6700
   65MOL   H49636464   2.824   7.358   2.372  3.0435  0.4095  1.2097
   65MOL   H49736465   3.048   7.325   2.314 -0.2156  0.9298  1.1128
   65MOL   H49836466   3.026   7.536   2.382  0.2776  0.4307 -0.2537
   65MOL   H49936467   2.991   7.452   2.037  1.1885  0.4811  0.7816
   65MOL   H50036468   3.233   7.364   2.171 -1.7295 -0.9911 -0.2563
   65MOL   H50136469   3.225   7.347   2.003 -0.0572 -0.4551 -0.4301
   65MOL   H50236470   3.072   7.162   2.101 -1.1145 -0.0343  0.2096
   65MOL   H50336471   3.041   7.225   1.943 -1.2278  2.3874 -0.0686
   65MOL   H50436472   2.854   7.088   2.029  0.8854 -0.7670  0.4591
   65MOL   H50536473   2.810   7.258   1.988  1.9528  0.3131 -0.4936
   65MOL   O50636474   3.216   7.548   2.067 -0.0550  0.5466 -0.3408
   65MOL   C50736475   3.358   7.571   2.033  0.0776  0.9492  0.1747
   65MOL   C50836476   3.373   0.093   2.022  0.0362  0.4681 -0.4235
   65MOL   O50936477   3.346   0.136   2.151 -0.2456 -0.3927  0.4008
   65MOL   C51036478   3.509   0.159   1.995 -0.0726  0.7252 -0.0349
   65MOL   C51136479   3.538   0.135   1.844 -0.9283  0.4961  0.1796
   65MOL   C51236480   3.656   0.203   1.788 -0.4395  0.2243  0.4235
   65MOL   O51336481   3.676   0.168   1.650 -0.5352 -0.3985  0.3797
   65MOL   C51436482   3.781   0.155   1.870  0.3122  0.7296  0.1153
   65MOL   C51536483   3.905   0.236   1.824  0.0156  0.3602 -0.4426
   65MOL   C51636484   3.771   0.160   2.023 -0.6384  0.5081 -0.2152
   65MOL   C51736485   3.635   0.106   2.077 -0.2413  0.3737  0.1754
   65MOL   H51836486   3.390   7.524   1.940 -0.9242  2.3725 -0.9095
   65MOL   H51936487   3.421   7.522   2.107 -0.8371 -0.5134  0.0161
   65MOL   H52036488   3.289   0.139   1.970 -1.8250 -1.7367  0.5265
   65MOL   H52136489   3.267   0.089   2.172 -3.0085  4.1499  0.8863
   65MOL   H52236490   3.502   0.267   2.005  1.0809  0.8393 -0.3134
   65MOL   H52336491   3.540   0.027   1.828 -0.2460  0.3538  1.2139
   65MOL   H52436492   3.452   0.166   1.784  0.3782 -0.3622 -2.2122
   65MOL   H52536493   3.653   0.309   1.810 -1.0883  0.7841 -2.1936
   65MOL   H52636494   3.730   0.242   1.628 -0.0108 -0.5864  0.9932
   65MOL   H52736495   3.793   0.049   1.844 -0.2145  0.2868  1.6578
   65MOL   H52836496   3.939   0.234   1.720 -0.5555 -0.2991 -0.6218
   65MOL   H52936497   3.888   0.338   1.855  0.1681  0.7244 -1.5198
   65MOL   H53036498   3.799   0.258   2.060 -0.8659  0.8222 -0.8660
   65MOL   H53136499   3.847   0.100   2.073  1.1399  2.2986 -0.7116
   65MOL   H53236500   3.626   0.121   2.184  0.8413 -0.0533  0.3341
   65MOL   H53336501   3.635   7.627   2.086  1.9301  0.1605 -1.9167
   65MOL   O53436502   4.004   0.184   1.914 -0.5082 -0.3348 -0.0952
   65MOL   C53536503   4.082   0.294   1.967  0.0810  0.1135 -0.0973
   65MOL   C53636504   4.198   0.247   2.041 -0.3496  0.3043  0.7181
   65MOL   O53736505   4.298   0.202   1.949 -0.1356 -0.5651  0.7957
   65MOL   C53836506   4.271   0.352   2.130 -0.1639  0.1760 -0.0028
   65MOL   C53936507   4.175   0.395   2.243  0.2828 -0.2635  0.6521
   65MOL   C54036508   4.247   0.471   2.350 -0.8602 -1.0002 -0.2683
   65MOL   O54136509   4.157   0.499   2.451 -0.2632 -1.0156  0.1225
   65MOL   C54236510   4.308   0.600   2.284  0.6130  0.3144 -0.7953
   65MOL   C54336511   4.384   0.678   2.389  0.0028 -0.6200 -0.2531
   65MOL   C54436512   4.398   0.565   2.163  0.9058 -0.6775  0.1734
   65MOL   C54536513   4.320   0.477   2.058 -0.1674  0.3676  0.1649
   65MOL   H54636514   4.014   0.340   2.039  1.8464 -0.1884  1.7922
   65MOL   H54736515   4.112   0.373   1.898 -1.5547  1.6694  0.9377
   65MOL   H54836516   4.154   0.163   2.096  2.5729 -1.9323 -0.1895
   65MOL   H54936517   4.268   0.126   1.901 -2.1624  1.8227 -1.8366
   65MOL   H55036518   4.359   0.308   2.176 -1.5451 -1.3221  1.2398
   65MOL   H55136519   4.085   0.444   2.208  1.7272  1.9684 -0.0224
   65MOL   H55236520   4.143   0.306   2.298  0.2943  0.2273  1.4659
   65MOL   H55336521   4.326   0.411   2.396  0.4671  2.5756  2.3633
   65MOL   H55436522   4.083   0.540   2.409  2.0903  1.3461 -1.8969
   65MOL   H55536523   4.225   0.660   2.247  0.2169  0.5626  0.4714
   65MOL   H55636524   4.491   0.653   2.389  0.4875  1.2652  1.9694
   65MOL   H55736525   4.373   0.782   2.358  0.0229 -1.1937 -2.2057
   65MOL   H55836526   4.479   0.513   2.215 -0.2873 -1.2644  1.4738
   65MOL   H55936527   4.448   0.645   2.108  2.0404 -1.6621 -0.2423
   65MOL   H56036528   4.388   0.442   1.981 -0.1025 -0.1416  0.4463
   65MOL   H56136529   4.242   0.541   2.018  0.1413  0.1888 -0.7304
   65MOL   H56236530   4.361   0.676   2.496 -0.7713 -1.4884 -0.4330
   66MOL     O136531   2.395   4.787   4.041  0.2339 -0.0239  0.3530
   66MOL     C236532   2.457   4.663   4.060 -0.4279  0.4112 -0.0400
   66MOL     C336533   2.430   4.581   3.933 -0.0995 -0.2054 -0.8052
   66MOL     O436534   2.508   4.655   3.841 -0.1805  0.2885 -0.1707
   66MOL     C536535   2.473   4.441   3.936 -0.2464  0.8822 -1.0352
   66MOL     C636536   2.394   4.349   4.024  0.5727  0.3497  0.3521
   66MOL     C736537   2.421   4.198   4.008  1.1269  0.2055 -0.2571
   66MOL     O836538   2.336   4.131   4.096 -0.2512 -0.0210 -0.0762
   66MOL     C936539   2.577   4.171   4.042  0.4378  0.3857 -0.2302
   66MOL    C1036540   2.622   4.026   4.004  0.2628 -0.0672 -0.5490
   66MOL    C1136541   2.660   4.277   3.960 -0.2274  0.2237 -0.2715
   66MOL    C1236542   2.616   4.417   3.973 -0.3507  0.4062  0.4867
   66MOL    H1336543   2.432   4.629   4.160 -0.6103 -0.7596 -0.4734
   66MOL    H1436544   2.565   4.670   4.075 -0.0707 -0.7026 -1.8858
   66MOL    H1536545   2.327   4.598   3.904 -0.6532 -0.9215  0.6890
   66MOL    H1636546   2.485   4.745   3.857 -0.6246 -0.3010  2.9045
   66MOL    H1736547   2.463   4.398   3.836  1.2128 -0.3373 -0.6799
   66MOL    H1836548   2.405   4.375   4.129 -0.8973  1.7479  0.1843
   66MOL    H1936549   2.290   4.356   3.990  0.0442  1.0983  2.0898
   66MOL    H2036550   2.401   4.174   3.903 -0.9741  0.7102  0.0059
   66MOL    H2136551   2.366   4.042   4.106  0.3733  0.2517  0.6011
   66MOL    H2236552   2.606   4.201   4.143  1.0827 -0.9325 -0.0270
   66MOL    H2336553   2.593   4.017   3.899  2.8394 -0.8986 -1.2225
   66MOL    H2436554   2.729   4.014   4.022  0.1060 -0.8426 -0.1054
   66MOL    H2536555   2.668   4.252   3.854  0.9168 -1.1154  0.1205
   66MOL    H2636556   2.761   4.275   4.001 -0.9747 -0.1896  1.5877
   66MOL    H2736557   2.677   4.477   3.904 -0.6338  0.8632  0.6323
   66MOL    H2836558   2.642   4.454   4.072  0.6239  0.1494  0.3351
   66MOL    H2936559   2.349   4.806   4.121 -1.5043 -0.0320 -0.6390
   66MOL    O3036560   2.563   3.932   4.097  0.1746  0.3108 -0.5372
   66MOL    C3136561   2.565   3.794   4.056  0.4860  0.3481 -0.0947
   66MOL    C3236562   2.464   3.724   4.159 -0.3758 -0.1381  0.4400
   66MOL    O3336563   2.330   3.764   4.129 -0.9515 -0.2725 -0.4427
   66MOL    C3436564   2.460   3.567   4.149  0.1326  0.2858  0.2474
   66MOL    C3536565   2.407   3.504   4.281  1.1601 -1.0216 -0.1942
   66MOL    C3636566   2.406   3.354   4.286 -0.0271  0.2534 -0.2086
   66MOL    O3736567   2.372   3.325   4.418 -0.1023  0.3006 -0.4598
   66MOL    C3836568   2.550   3.300   4.246 -0.9200 -0.5793 -0.3000
   66MOL    C3936569   2.561   3.142   4.251  0.3047  0.6290  0.1917
   66MOL    C4036570   2.604   3.353   4.115  0.2609 -0.4482 -0.0965
   66MOL    C4136571   2.601   3.504   4.105 -0.7731  0.3035  0.9207
   66MOL    H4236572   2.664   3.752   4.070  0.4369 -0.3671 -1.8532
   66MOL    H4336573   2.525   3.784   3.955  1.7077  1.4294 -0.6935
   66MOL    H4436574   2.497   3.745   4.261  0.1754 -1.7389  0.5952
   66MOL    H4536575   2.332   3.762   4.035 -0.0024 -2.2327 -0.4052
   66MOL    H4636576   2.391   3.539   4.070 -0.8817  0.3279  1.1131
   66MOL    H4736577   2.470   3.545   4.360  2.8869 -0.2661 -1.9261
   66MOL    H4836578   2.309   3.547   4.299  1.2075 -1.1309  0.3529
   66MOL    H4936579   2.337   3.309   4.215 -1.6802  4.0042 -1.0683
   66MOL    H5036580   2.281   3.303   4.431  0.2098 -0.2667  0.8707
   66MOL    H5136581   2.624   3.331   4.319 -1.7048 -1.5672  0.9376
   66MOL    H5236582   2.662   3.099   4.253  0.1870  0.3781  1.8729
   66MOL    H5336583   2.531   3.125   4.355  0.9022  0.3722  0.3255
   66MOL    H5436584   2.548   3.316   4.029 -1.3402  0.5092  0.5127
   66MOL    H5536585   2.708   3.324   4.096  1.1704  0.7288  2.7124
   66MOL    H5636586   2.619   3.546   4.006 -2.1246  2.1154  1.4171
   66MOL    H5736587   2.677   3.544   4.172 -1.2002  0.5549  1.2562
   66MOL    O5836588   2.480   3.089   4.147 -0.2615  0.4314 -0.6212
   66MOL    C5936589   2.452   2.950   4.167  0.8625  0.7320  0.2546
   66MOL    C6036590   2.315   2.926   4.242 -0.0543 -0.0586  0.1079
   66MOL    O6136591   2.200   2.966   4.164  0.3719 -0.9738  0.4473
   66MOL    C6236592   2.294   2.783   4.287 -0.0406  0.4640  0.1651
   66MOL    C6336593   2.393   2.740   4.399  0.0209 -0.3845 -0.1806
   66MOL    C6436594   2.365   2.604   4.463  0.0248  0.0990  0.3652
   66MOL    O6536595   2.467   2.572   4.554  0.0117 -0.2929  0.2953
   66MOL    C6636596   2.364   2.486   4.360 -0.7958  0.1062  0.0484
   66MOL    C6736597   2.304   2.359   4.419 -1.0841 -0.5234 -0.4571
   66MOL    C6836598   2.282   2.530   4.236 -0.7612  0.2533  0.4519
   66MOL    C6936599   2.313   2.668   4.175 -0.0071  0.0209 -0.3390
   66MOL    H7036600   2.537   2.897   4.210 -1.0582 -3.6415 -0.9836
   66MOL    H7136601   2.443   2.898   4.071 -4.1301  0.7993  0.5610
   66MOL    H7236602   2.326   2.999   4.322  1.2611 -0.4502  0.3052
   66MOL    H7336603   2.172   2.892   4.112 -0.4809  1.1068 -2.1895
   66MOL    H7436604   2.193   2.787   4.327  0.1228  2.0546  0.4381
   66MOL    H7536605   2.493   2.732   4.357  0.3785  0.1826  0.5543
   66MOL    H7636606   2.395   2.820   4.473 -0.9902 -0.8609  0.3787
   66MOL    H7736607   2.273   2.619   4.520  0.1337  0.4898  0.4414
   66MOL    H7836608   2.423   2.523   4.621 -0.6201  0.1592  0.2091
   66MOL    H7936609   2.463   2.461   4.321 -1.4567  0.1890 -1.7146
   66MOL    H8036610   2.291   2.281   4.345 -0.2646 -0.1146 -1.0430
   66MOL    H8136611   2.364   2.312   4.497 -1.6090 -2.7684 -1.3673
   66MOL    H8236612   2.180   2.537   4.273 -0.9705 -0.3539 -0.0011
   66MOL    H8336613   2.282   2.450   4.162  0.7742 -0.2957  1.0216
   66MOL    H8436614   2.244   2.683   4.092 -1.0339  1.0523  0.6760
   66MOL    H8536615   2.412   2.672   4.131 -0.3646  1.1434 -1.0824
   66MOL    O8636616   2.172   2.397   4.459 -0.1170  0.6237 -0.3682
   66MOL    C8736617   2.094   2.289   4.487  0.5665  0.0802 -0.4921
   66MOL    C8836618   1.964   2.349   4.542  0.1009  0.4228  0.8063
   66MOL    O8936619   1.988   2.390   4.673 -0.0383 -0.3652 -0.2048
   66MOL    C9036620   1.909   2.470   4.461  0.5164  0.4636  0.6969
   66MOL    C9136621   1.770   2.510   4.528 -0.4545  0.0310  0.9656
   66MOL    C9236622   1.695   2.621   4.452  0.6096 -0.5330 -0.4557
   66MOL    O9336623   1.570   2.646   4.518 -0.0429  0.1541 -0.7052
   66MOL    C9436624   1.670   2.577   4.308  0.0744 -0.3316  0.1744
   66MOL    C9536625   1.579   2.675   4.221  0.4460  0.0497  0.0876
   66MOL    C9636626   1.796   2.552   4.235  0.0357 -0.1577 -0.2629
   66MOL    C9736627   1.881   2.437   4.306 -0.5373  0.4850  0.8184
   66MOL    H9836628   2.140   2.220   4.558 -0.4346  0.2376  0.3191
   66MOL    H9936629   2.074   2.241   4.391  0.9757 -0.1835 -0.4420
   66MOL   H10036630   1.888   2.272   4.558  0.5958  0.0351  1.2797
   66MOL   H10136631   2.059   2.451   4.662 -0.1613 -0.0994  0.4335
   66MOL   H10236632   1.971   2.559   4.474 -0.5722  1.4491 -0.6170
   66MOL   H10336633   1.706   2.423   4.542 -0.2921  0.2406  3.1890
   66MOL   H10436634   1.794   2.548   4.627  0.6538  2.3735 -0.1783
   66MOL   H10536635   1.743   2.718   4.454 -1.5356  0.5489 -0.0361
   66MOL   H10636636   1.505   2.578   4.531  0.7103 -0.6429 -1.0947
   66MOL   H10736637   1.612   2.485   4.310 -0.5496  0.0683  1.1663
   66MOL   H10836638   1.498   2.727   4.273 -0.5617 -0.0545 -1.3478
   66MOL   H10936639   1.648   2.749   4.181 -0.1420  1.7932  2.2487
   66MOL   H11036640   1.851   2.646   4.229 -1.4798  0.9153  2.0564
   66MOL   H11136641   1.783   2.532   4.128  1.7548 -2.9299 -0.0261
   66MOL   H11236642   1.972   2.425   4.247 -0.9736 -0.7313  0.3725
   66MOL   H11336643   1.826   2.343   4.311 -1.3730  0.9262 -0.0618
   66MOL   O11436644   1.529   2.602   4.112  0.0328 -0.0181  0.1539
   66MOL   C11536645   1.385   2.597   4.102 -0.1956  0.5254  0.1461
   66MOL   C11636646   1.362   2.499   3.982  0.1542 -0.5086 -0.0124
   66MOL   O11736647   1.440   2.549   3.880  0.0797  0.1984  0.2621
   66MOL   C11836648   1.377   2.347   4.004  0.7092  0.7887  0.8516
   66MOL   C11936649   1.270   2.286   4.093 -0.6165 -0.0444  0.0207
   66MOL   C12036650   1.278   2.135   4.089 -0.5715  0.2318  0.2637
   66MOL   O12136651   1.164   2.079   4.137 -0.1394 -0.3860 -0.1434
   66MOL   C12236652   1.419   2.084   4.141 -0.4429  0.0600 -0.3824
   66MOL   C12336653   1.433   1.933   4.136 -0.8188  0.4543 -0.0510
   66MOL   C12436654   1.533   2.151   4.057  0.8607  1.1444  0.7484
   66MOL   C12536655   1.520   2.303   4.046  0.7195 -0.2088  0.5518
   66MOL   H12636656   1.354   2.700   4.081  0.8415  0.7979 -0.0813
   66MOL   H12736657   1.343   2.563   4.196 -1.6490  1.7144 -0.0379
   66MOL   H12836658   1.259   2.507   3.947  0.2737 -0.4174 -0.3424
   66MOL   H12936659   1.527   2.556   3.918  0.8151  0.6512 -1.4714
   66MOL   H13036660   1.362   2.301   3.906 -1.6602 -1.0710  2.0177
   66MOL   H13136661   1.276   2.322   4.196  1.5125  0.5518 -0.2863
   66MOL   H13236662   1.178   2.338   4.070 -0.0335  1.7255  1.5284
   66MOL   H13336663   1.273   2.106   3.984 -0.2354  0.7738  0.0946
   66MOL   H13436664   1.099   2.101   4.072 -0.4120  2.9285  1.1304
   66MOL   H13536665   1.435   2.116   4.244 -2.0802 -2.6004  0.7299
   66MOL   H13636666   1.349   1.889   4.190 -1.5250  0.7155 -0.9183
   66MOL   H13736667   1.431   1.894   4.034 -1.7646  0.8365 -0.1889
   66MOL   H13836668   1.534   2.107   3.957 -0.3345 -0.4954  1.4520
   66MOL   H13936669   1.626   2.128   4.109  0.2184 -1.3895  0.8247
   66MOL   H14036670   1.586   2.336   3.966 -1.6193 -0.5541 -1.5912
   66MOL   H14136671   1.558   2.347   4.138  1.1252  0.3103  0.1403
   66MOL   O14236672   1.557   1.894   4.196 -0.3560  0.0660  0.2879
   66MOL   C14336673   1.561   1.757   4.230  0.5554  0.3604 -0.4406
   66MOL   C14436674   1.700   1.724   4.292 -0.2818 -0.3820  1.0966
   66MOL   O14536675   1.678   1.692   4.427  0.5244 -0.4382 -0.3667
   66MOL   C14636676   1.772   1.599   4.227 -0.6908  0.3844  0.6173
   66MOL   C14736677   1.912   1.576   4.298 -0.2504  0.5340 -0.0915
   66MOL   C14836678   1.983   1.445   4.244 -0.2408 -0.2545 -0.5564
   66MOL   O14936679   2.105   1.418   4.299  0.5195 -0.2552  0.2920
   66MOL   C15036680   2.003   1.444   4.085 -0.2706  0.0234  0.0415
   66MOL   C15136681   2.032   1.307   4.024 -0.6608 -0.5910  0.2477
   66MOL   C15236682   1.863   1.485   4.021 -0.3378 -0.1623  0.2923
   66MOL   C15336683   1.809   1.612   4.073 -0.1824  0.3929  0.0787
   66MOL   H15436684   1.550   1.701   4.137 -1.1947  0.5175 -0.3538
   66MOL   H15536685   1.474   1.724   4.287  0.8759  0.4452  0.1001
   66MOL   H15636686   1.768   1.810   4.290  0.1014 -0.6814  1.0599
   66MOL   H15736687   1.650   1.771   4.470 -0.7908 -0.7864 -0.5378
   66MOL   H15836688   1.713   1.510   4.245  2.6329 -1.9617  0.3606
   66MOL   H15936689   1.981   1.658   4.280 -1.0330  0.9488 -1.2450
   66MOL   H16036690   1.900   1.572   4.407 -2.9192 -0.4507 -0.3815
   66MOL   H16136691   1.918   1.362   4.271 -1.7095 -0.1482 -3.5180
   66MOL   H16236692   2.159   1.496   4.290 -1.1751  0.6808 -2.3706
   66MOL   H16336693   2.075   1.518   4.052 -0.5140 -0.0222 -0.5998
   66MOL   H16436694   1.963   1.232   4.063 -1.8867  0.3439 -0.1082
   66MOL   H16536695   2.029   1.305   3.915 -0.6731  0.4026  0.2281
   66MOL   H16636696   1.792   1.403   4.034  1.2948 -1.1515  3.3353
   66MOL   H16736697   1.865   1.495   3.912 -0.4166 -1.5916  0.1573
   66MOL   H16836698   1.718   1.641   4.019 -0.5397 -0.7676  0.0483
   66MOL   H16936699   1.882   1.689   4.047  0.1833  0.2726  0.7405
   66MOL   O17036700   2.164   1.272   4.060 -0.0458 -0.0847 -0.5409
   66MOL   C17136701   2.270   1.331   3.986  0.0213  0.0938  0.0221
   66MOL   C17236702   2.386   1.233   4.001 -0.0812  0.3591  0.3795
   66MOL   O17336703   2.324   1.107   3.974  0.2831  0.3046  0.1151
   66MOL   C17436704   2.501   1.260   3.907 -0.4522  0.4126  0.6436
   66MOL   C17536705   2.469   1.266   3.763  0.4947 -0.0349 -0.0424
   66MOL   C17636706   2.589   1.296   3.673  0.4842 -0.0843 -0.6179
   66MOL   O17736707   2.534   1.287   3.546  0.2994 -0.2034 -0.0454
   66MOL   C17836708   2.701   1.197   3.702 -0.7662 -0.3061  0.2082
   66MOL   C17936709   2.820   1.216   3.611  0.6152 -0.0686  0.5460
   66MOL   C18036710   2.743   1.214   3.845  0.0419 -0.1776 -0.0805
   66MOL   C18136711   2.628   1.173   3.936  0.2614 -0.8573 -0.7036
   66MOL   H18236712   2.304   1.427   4.024 -1.2026  0.1001  1.1040
   66MOL   H18336713   2.244   1.344   3.881  0.5823 -0.3976 -0.1840
   66MOL   H18436714   2.425   1.237   4.103  2.1937 -0.9484 -0.4011
   66MOL   H18536715   2.245   1.127   4.022  1.0891 -0.2966  1.7468
   66MOL   H18636716   2.537   1.361   3.928  0.9379 -0.3608  2.0318
   66MOL   H18736717   2.439   1.162   3.747 -0.9697  0.3362  0.2195
   66MOL   H18836718   2.394   1.336   3.726 -0.0061  0.0158  1.0659
   66MOL   H18936719   2.629   1.397   3.679  0.0026  0.0169  1.1213
   66MOL   H19036720   2.491   1.203   3.534  0.1839 -0.1437 -0.0571
   66MOL   H19136721   2.661   1.097   3.682 -1.6202  0.0967 -0.1280
   66MOL   H19236722   2.799   1.234   3.505 -1.1179  0.1899  0.9128
   66MOL   H19336723   2.884   1.299   3.638  1.6021 -0.5677 -0.2140
   66MOL   H19436724   2.778   1.311   3.878 -2.3504  0.6514  0.0868
   66MOL   H19536725   2.825   1.145   3.867  0.3501  0.7206  1.6657
   66MOL   H19636726   2.670   1.191   4.035  1.0098  0.9694 -1.3327
   66MOL   H19736727   2.594   1.070   3.924  2.0361 -1.7657  1.6045
   66MOL   O19836728   2.895   1.095   3.617  0.5619 -0.5446  0.1382
   66MOL   C19936729   3.034   1.105   3.624  0.6100 -0.1292  1.0062
   66MOL   C20036730   3.086   0.966   3.628 -0.7045 -0.5038  0.2404
   66MOL   O20136731   3.210   0.960   3.563 -0.5321 -0.2467  0.2425
   66MOL   C20236732   3.097   0.891   3.762 -0.7166  0.0114 -0.0425
   66MOL   C20336733   3.202   0.948   3.856 -0.7699 -0.4342  0.1173
   66MOL   C20436734   3.212   0.874   3.993  0.8452 -0.3280 -0.0462
   66MOL   O20536735   3.319   0.932   4.066 -0.3478  0.5462  0.5028
   66MOL   C20636736   3.218   0.721   3.968 -0.4427 -1.0917  0.8253
   66MOL   C20736737   3.236   0.641   4.102 -0.1019 -0.1321  0.3481
   66MOL   C20836738   3.103   0.666   3.881  0.1810  0.8744  0.8622
   66MOL   C20936739   3.107   0.737   3.746 -0.0910 -0.1630  1.1004
   66MOL   H21036740   3.061   1.153   3.719  1.7237  0.1010  0.5895
   66MOL   H21136741   3.065   1.161   3.536  0.2191  0.3727  1.1816
   66MOL   H21236742   3.029   0.900   3.562  0.0325 -1.0627  0.1627
   66MOL   H21336743   3.214   0.905   3.486 -1.0698 -2.5936  1.8111
   66MOL   H21436744   3.009   0.908   3.824  0.6941  1.7316  1.5506
   66MOL   H21536745   3.303   0.944   3.816 -0.9056  2.9422 -0.7533
   66MOL   H21636746   3.177   1.054   3.868  0.8265 -0.1280  0.9518
   66MOL   H21736747   3.124   0.894   4.055  2.0354 -2.0439  2.2735
   66MOL   H21836748   3.286   1.009   4.110 -2.7540 -0.6024  0.7992
   66MOL   H21936749   3.309   0.705   3.910 -0.5913 -1.3906  0.6717
   66MOL   H22036750   3.261   0.537   4.080 -0.8903 -0.7876  2.4047
   66MOL   H22136751   3.317   0.684   4.160 -0.8969  1.2428  0.4512
   66MOL   H22236752   3.001   0.676   3.916  0.0663  0.0366  0.7840
   66MOL   H22336753   3.112   0.558   3.866  0.1978  0.8957  0.7150
   66MOL   H22436754   3.029   0.692   3.685  0.2417  1.4712 -0.5719
   66MOL   H22536755   3.201   0.709   3.699  1.6403  1.4605  3.4685
   66MOL   O22636756   3.119   0.642   4.176  0.1256  0.0670 -0.2964
   66MOL   C22736757   3.124   0.563   4.290  0.3307  0.0119  0.4036
   66MOL   C22836758   2.987   0.546   4.357 -0.2672  0.0022 -0.3761
   66MOL   O22936759   2.919   0.464   4.261  0.3625 -0.2053  0.1185
   66MOL   C23036760   2.985   0.480   4.493  0.6526 -0.3075 -0.4018
   66MOL   C23136761   3.012   0.579   4.602  0.2904 -0.1593 -0.0216
   66MOL   C23236762   3.012   0.509   4.743  0.4807 -0.0096  0.5890
   66MOL   O23336763   3.047   0.598   4.846 -0.3956  0.6418  0.7405
   66MOL   C23436764   3.105   0.376   4.755  0.3437  0.2747  0.2785
   66MOL   C23536765   3.090   0.307   4.891 -0.6313  0.0448 -0.1022
   66MOL   C23636766   3.063   0.276   4.638 -0.2131  0.3153 -0.6471
   66MOL   C23736767   3.071   0.353   4.502  0.0711 -0.2663 -0.4861
   66MOL   H23836768   3.195   0.611   4.357  0.4535 -0.0712  0.3332
   66MOL   H23936769   3.167   0.463   4.275  2.2486  1.1744 -2.1876
   66MOL   H24036770   2.936   0.643   4.354  2.3175  1.3867 -0.7684
   66MOL   H24136771   2.935   0.493   4.173 -1.3833 -0.1897 -0.2152
   66MOL   H24236772   2.879   0.456   4.507  1.2315 -1.9085  1.4985
   66MOL   H24336773   3.113   0.616   4.582 -0.5185  1.7373 -0.6789
   66MOL   H24436774   2.952   0.669   4.594  0.7766  0.0877 -0.9033
   66MOL   H24536775   2.906   0.483   4.754  0.2056  1.4032  1.4000
   66MOL   H24636776   3.133   0.631   4.821 -0.0433 -2.0120 -1.7664
   66MOL   H24736777   3.209   0.408   4.748  0.7896 -0.9306  1.4117
   66MOL   H24836778   3.145   0.364   4.966 -1.1080 -0.9327  1.0096
   66MOL   H24936779   2.985   0.303   4.921 -0.7697  1.6507 -0.3333
   66MOL   H25036780   2.970   0.228   4.670  0.0197  1.0752  1.2662
   66MOL   H25136781   3.137   0.197   4.632  1.1994  1.5668 -0.1093
   66MOL   H25236782   3.034   0.282   4.428 -0.6997  0.3789 -0.7257
   66MOL   H25336783   3.178   0.370   4.493  0.2208 -0.9583 -0.0949
   66MOL   O25436784   3.139   0.173   4.884  0.1864  0.0494  0.3430
   66MOL   C25536785   3.272   0.147   4.892  0.0310 -0.0632  0.0672
   66MOL   C25636786   3.338   0.180   5.030  0.2760 -0.4561  1.0492
   66MOL   O25736787   3.341   0.061   5.102  1.4153  0.4630 -0.1046
   66MOL   C25836788   3.484   0.227   5.016 -0.2185 -0.0918 -0.1332
   66MOL   C25936789   3.579   0.134   4.945 -0.0761 -0.1887 -0.0603
   66MOL   C26036790   3.719   0.193   4.923  0.3884 -0.0252  0.8238
   66MOL   O26136791   3.796   0.085   4.857 -0.3160  0.2556  0.1423
   66MOL   C26236792   3.790   0.239   5.055 -0.4549  0.1417  0.9132
   66MOL   C26336793   3.929   0.303   5.020  0.1319  0.2435 -0.7598
   66MOL   C26436794   3.693   0.336   5.129 -0.1928  0.1832  0.5185
   66MOL   C26536795   3.558   0.260   5.147 -0.0659 -0.2674  0.5708
   66MOL   H26636796   3.308   0.207   4.809  0.2607  2.4797  1.9282
   66MOL   H26736797   3.304   0.052   4.848  0.5560  1.3760 -2.7696
   66MOL   H26836798   3.281   0.256   5.082 -0.0450  1.5674 -2.1276
   66MOL   H26936799   3.384   7.624   5.051  0.9868 -0.6016  0.8966
   66MOL   H27036800   3.489   0.318   4.956  1.1725  0.3337  0.5841
   66MOL   H27136801   3.583   0.036   4.992  1.4674  0.1503  0.5454
   66MOL   H27236802   3.547   0.122   4.841 -0.6402 -0.9301  0.1926
   66MOL   H27336803   3.720   0.278   4.855  1.2569 -0.9514 -0.3545
   66MOL   H27436804   3.773   0.005   4.902 -1.2761  1.7494  2.3687
   66MOL   H27536805   3.815   0.152   5.117  2.3595  0.7585  0.6794
   66MOL   H27636806   3.998   0.238   4.967  1.0249  0.2971  0.3195
   66MOL   H27736807   3.911   0.381   4.946 -1.9425  0.6940  0.1779
   66MOL   H27836808   3.693   0.427   5.069 -0.6888 -0.1349  0.0221
   66MOL   H27936809   3.746   0.352   5.223  0.4582  1.0260  0.0179
   66MOL   H28036810   3.489   0.319   5.206 -0.6186  0.3049 -0.6225
   66MOL   H28136811   3.573   0.166   5.199 -3.7985  0.2023  2.6961
   66MOL   O28236812   3.993   0.356   5.136  0.4640  0.4782 -0.0879
   66MOL   C28336813   4.123   0.420   5.094  0.5708 -0.8851  0.3909
   66MOL   C28436814   4.215   0.433   5.214 -0.1785 -0.0380  0.7709
   66MOL   O28536815   4.133   0.508   5.303 -0.4231 -0.2850  0.1817
   66MOL   C28636816   4.255   0.300   5.287 -0.1075  0.1808  0.1728
   66MOL   C28736817   4.338   0.324   5.417 -0.0625  0.0604  0.4306
   66MOL   C28836818   4.375   0.182   5.476 -0.2931  0.4587  0.1006
   66MOL   O28936819   4.432   0.201   5.608  0.2556  0.3754  0.5435
   66MOL   C29036820   4.467   0.104   5.386 -0.0118  0.9223  0.1201
   66MOL   C29136821   4.501   7.595   5.438 -0.6974 -0.3376 -0.3601
   66MOL   C29236822   4.386   0.086   5.250 -0.4849  0.3180 -0.2712
   66MOL   C29336823   4.337   0.221   5.186 -0.1824  0.2730  0.3005
   66MOL   H29436824   4.095   0.519   5.058  2.2083 -0.5221  0.0797
   66MOL   H29536825   4.169   0.354   5.020 -0.1094 -0.7832 -0.1184
   66MOL   H29636826   4.307   0.488   5.195 -0.3142  0.2524  0.9391
   66MOL   H29736827   4.050   0.462   5.301 -0.8260  0.4236  0.4663
   66MOL   H29836828   4.168   0.236   5.305  0.0411 -0.6671 -2.0255
   66MOL   H29936829   4.436   0.365   5.396 -0.3827 -0.1121 -1.4989
   66MOL   H30036830   4.276   0.381   5.487  0.5430  1.0190  0.1893
   66MOL   H30136831   4.282   0.126   5.486 -1.2262  1.3530 -2.8830
   66MOL   H30236832   4.377   0.248   5.669 -0.2130 -0.2329  0.5985
   66MOL   H30336833   4.559   0.162   5.375  1.7014 -1.8640 -0.7024
   66MOL   H30436834   4.550   7.597   5.535 -0.4315  3.0323 -0.4838
   66MOL   H30536835   4.415   7.531   5.455  0.6199 -1.6459  1.4879
   66MOL   H30636836   4.299   0.020   5.252  1.1072 -1.8067  3.2392
   66MOL   H30736837   4.453   0.037   5.179 -1.3761 -0.1197 -0.8127
   66MOL   H30836838   4.271   0.199   5.102 -1.4400 -1.8721  1.7989
   66MOL   H30936839   4.425   0.270   5.146 -0.1052 -0.1242 -0.0179
   66MOL   O31036840   4.580   7.522   5.345 -0.2223 -0.1964 -0.0640
   66MOL   C31136841   4.590   7.383   5.378 -0.5998 -0.6486  0.1973
   66MOL   C31236842   4.523   7.302   5.267  0.5165  1.2779  0.1277
   66MOL   O31336843   4.395   7.355   5.253  0.1115 -0.4990 -0.1209
   66MOL   C31436844   4.591   7.289   5.133  0.4848  0.5151  0.2470
   66MOL   C31536845   4.603   7.411   5.040 -0.2906 -0.2440 -0.5596
   66MOL   C31636846   4.665   7.371   4.904 -0.2788  0.0220 -0.2780
   66MOL   O31736847   4.664   7.475   4.817 -0.7543 -0.0569 -0.3730
   66MOL   C31836848   4.603   7.247   4.845  0.6910 -0.0797 -0.5015
   66MOL   C31936849   4.659   7.200   4.710 -0.1769  0.0697  0.3031
   66MOL   C32036850   4.584   7.126   4.942  0.1858 -0.9087  0.5143
   66MOL   C32136851   4.512   7.175   5.065 -0.1471 -0.1727 -0.2151
   66MOL   H32236852   4.550   7.349   5.473  1.3154  0.9461  1.6314
   66MOL   H32336853   4.691   7.342   5.387 -0.5764 -0.2755  1.6445
   66MOL   H32436854   4.527   7.201   5.307 -0.7530  0.3007 -2.1290
   66MOL   H32536855   4.398   7.448   5.269 -2.1577 -0.3796 -0.2672
   66MOL   H32636856   4.696   7.265   5.149  0.2222 -1.2941 -0.5569
   66MOL   H32736857   4.507   7.462   5.034 -0.4039 -0.2431  1.0038
   66MOL   H32836858   4.663   7.491   5.085  0.0561 -1.1420  0.6005
   66MOL   H32936859   4.768   7.346   4.932 -0.0003 -0.2285 -1.4789
   66MOL   H33036860   4.701   7.552   4.858  0.0578  1.5235 -3.8947
   66MOL   H33136861   4.501   7.272   4.817  1.4349  2.1833 -1.3203
   66MOL   H33236862   4.664   7.268   4.624  1.2222 -2.1333 -1.4240
   66MOL   H33336863   4.761   7.168   4.731 -0.5215 -1.8013 -0.8149
   66MOL   H33436864   4.683   7.082   4.954  1.6573  2.3144  0.5125
   66MOL   H33536865   4.524   7.049   4.893  0.2139 -0.6323  0.0485
   66MOL   H33636866   4.492   7.089   5.129  0.7648 -0.1424  0.1112
   66MOL   H33736867   4.419   7.219   5.029  0.6752  0.7413 -1.2535
   66MOL   O33836868   4.590   7.084   4.660 -0.6117  0.0833 -0.6202
   66MOL   C33936869   4.473   7.130   4.596  0.1235  0.3238  0.2995
   66MOL   C34036870   4.435   6.996   4.527 -0.0544  0.4871  0.3735
   66MOL   O34136871   4.525   6.959   4.422  0.2404 -0.1224 -0.1489
   66MOL   C34236872   4.382   6.877   4.612  0.1089 -0.2919  0.0446
   66MOL   C34336873   4.278   6.930   4.711 -0.0170 -0.0110 -0.4082
   66MOL   C34436874   4.206   6.812   4.782 -0.5907 -0.0968 -0.1976
   66MOL   O34536875   4.110   6.877   4.872 -0.4773 -0.0354 -0.6414
   66MOL   C34636876   4.300   6.712   4.858  0.6856 -0.1078  0.1834
   66MOL   C34736877   4.220   6.587   4.904  0.7034 -0.3382  0.3664
   66MOL   C34836878   4.423   6.672   4.762  0.0647 -0.7851  0.5551
   66MOL   C34936879   4.488   6.793   4.694  0.5137  0.2652  0.4154
   66MOL   H35036880   4.493   7.197   4.513  0.4421 -0.4336 -0.2340
   66MOL   H35136881   4.394   7.176   4.656 -0.3692  1.9821 -1.5803
   66MOL   H35236882   4.350   7.017   4.464 -0.0792 -3.9427 -1.2616
   66MOL   H35336883   4.613   6.966   4.457 -0.0564  0.6177  0.4687
   66MOL   H35436884   4.320   6.834   4.533  1.6444 -1.5372 -0.5016
   66MOL   H35536885   4.315   7.008   4.777 -0.7044  0.2591 -0.3346
   66MOL   H35636886   4.199   6.977   4.652 -0.5272 -2.4744 -1.7965
   66MOL   H35736887   4.157   6.749   4.708  1.3241 -1.2007 -0.5574
   66MOL   H35836888   4.070   6.805   4.919 -2.3047  1.4043  0.0515
   66MOL   H35936889   4.336   6.764   4.946 -0.7727  0.4561  0.4623
   66MOL   H36036890   4.183   6.545   4.810  2.8123  0.2803 -0.7599
   66MOL   H36136891   4.292   6.516   4.942 -0.2337 -1.4550  0.0760
   66MOL   H36236892   4.399   6.603   4.681  0.3356 -1.6672  1.2161
   66MOL   H36336893   4.495   6.612   4.818 -0.1327 -0.9541  0.6266
   66MOL   H36436894   4.574   6.754   4.640  1.1030 -2.3900  3.1031
   66MOL   H36536895   4.515   6.855   4.779  0.7177 -0.6785  1.0489
   66MOL   O36636896   4.129   6.626   5.002  0.3133 -0.2912  0.6390
   66MOL   C36736897   4.036   6.519   5.017  0.1101 -0.4760  0.1525
   66MOL   C36836898   3.925   6.560   5.112 -0.8231  0.1942 -0.8456
   66MOL   O36936899   3.984   6.542   5.234  0.5380  0.4635 -0.8172
   66MOL   C37036900   3.868   6.705   5.104  1.0145 -0.2641  0.3926
   66MOL   C37136901   3.763   6.731   5.213 -0.0212 -0.5083  0.7043
   66MOL   C37236902   3.703   6.864   5.209  0.0200  0.0283 -0.2314
   66MOL   O37336903   3.621   6.886   5.321 -0.7167 -0.6437 -0.1135
   66MOL   C37436904   3.633   6.885   5.075 -0.4874 -0.5773  0.4017
   66MOL   C37536905   3.565   7.020   5.071 -0.1800  0.6027 -0.6851
   66MOL   C37636906   3.736   6.867   4.963  0.4680  0.7148 -0.1894
   66MOL   C37736907   3.799   6.726   4.965 -0.2404  0.1088 -0.4119
   66MOL   H37836908   4.081   6.424   5.047  0.4359 -0.2667  0.3343
   66MOL   H37936909   3.992   6.504   4.919 -1.7201  1.4827  0.6657
   66MOL   H38036910   3.844   6.486   5.106 -2.1178  1.5807 -0.8329
   66MOL   H38136911   4.063   6.593   5.232  0.9562 -0.1330  0.2309
   66MOL   H38236912   3.950   6.774   5.122 -0.0858  0.9864  0.6141
   66MOL   H38336913   3.689   6.651   5.205  0.8740 -1.3586  0.9123
   66MOL   H38436914   3.808   6.712   5.310  0.3902  0.1179  0.6391
   66MOL   H38536915   3.780   6.941   5.218 -2.1092  2.2399 -0.2094
   66MOL   H38636916   3.538   6.843   5.306  0.8352 -4.4062  1.4582
   66MOL   H38736917   3.552   6.813   5.064 -1.2760  0.0997  1.6391
   66MOL   H38836918   3.480   7.020   5.138 -0.6418 -0.0471 -1.2631
   66MOL   H38936919   3.634   7.096   5.108 -0.6668  1.4220 -1.4535
   66MOL   H39036920   3.821   6.935   4.970  0.0555  1.1471  0.7780
   66MOL   H39136921   3.701   6.896   4.864  2.7859 -0.9230 -1.5320
   66MOL   H39236922   3.878   6.727   4.891 -0.5029 -0.7547 -0.7118
   66MOL   H39336923   3.723   6.654   4.934 -0.2863  0.8621 -2.0701
   66MOL   O39436924   3.518   7.059   4.944 -0.0849 -0.5568  0.5049
   66MOL   C39536925   3.543   7.194   4.920 -0.4121  0.4611  0.4359
   66MOL   C39636926   3.467   7.287   5.010 -0.1528  0.7407 -0.4846
   66MOL   O39736927   3.533   7.408   5.028  0.1682 -0.2684  0.1719
   66MOL   C39836928   3.326   7.322   4.950  0.6483 -0.0563  0.1617
   66MOL   C39936929   3.225   7.206   4.937  0.5496  0.4177 -0.2167
   66MOL   C40036930   3.090   7.248   4.874 -0.4086  0.4106  0.1969
   66MOL   O40136931   3.009   7.132   4.878  0.1627 -0.3547  0.0213
   66MOL   C40236932   3.095   7.323   4.734 -1.0954 -0.2888  0.5571
   66MOL   C40336933   2.951   7.387   4.711  0.1307  0.3499 -0.1728
   66MOL   C40436934   3.193   7.440   4.762 -0.2467  0.3862 -0.3073
   66MOL   C40536935   3.330   7.398   4.813  0.0431  0.1283 -0.0933
   66MOL   H40636936   3.528   7.208   4.813 -0.0050 -1.5946  0.1039
   66MOL   H40736937   3.650   7.210   4.936 -0.3219 -0.8419  1.1759
   66MOL   H40836938   3.463   7.246   5.111  0.6043 -1.1579 -1.1984
   66MOL   H40936939   3.620   7.394   5.061 -0.2373  0.2515  1.4635
   66MOL   H41036940   3.291   7.396   5.022  0.6325  0.7166 -0.6323
   66MOL   H41136941   3.275   7.133   4.873 -0.2255  0.5005 -0.9346
   66MOL   H41236942   3.216   7.164   5.037  0.4928 -3.0598 -1.6171
   66MOL   H41336943   3.037   7.315   4.941  1.6488  0.1590  2.1339
   66MOL   H41436944   2.955   7.142   4.955  1.5051 -0.8642  1.0433
   66MOL   H41536945   3.114   7.252   4.653  2.3575  0.0236  1.0383
   66MOL   H41636946   2.875   7.309   4.703  1.3460 -0.6837 -1.9960
   66MOL   H41736947   2.918   7.444   4.798  0.6850 -0.8125  0.8167
   66MOL   H41836948   3.165   7.509   4.841  0.1199  0.3886 -0.1773
   66MOL   H41936949   3.206   7.508   4.677 -2.5513  2.2791  0.8033
   66MOL   H42036950   3.389   7.489   4.823 -0.3458  0.4779 -0.9097
   66MOL   H42136951   3.379   7.335   4.738 -1.3425  0.0120 -0.9147
   66MOL   O42236952   2.952   7.475   4.602 -0.1520  0.0750  0.0158
   66MOL   C42336953   2.828   7.551   4.604  0.1038 -0.4385  0.0118
   66MOL   C42436954   2.837   0.010   4.477  0.4610 -0.6196  0.1042
   66MOL   O42536955   2.857   7.550   4.372 -0.7446 -0.0779  0.1237
   66MOL   C42636956   2.708   0.090   4.456 -0.1116  0.3369 -0.2604
   66MOL   C42736957   2.715   0.169   4.330 -0.6448 -0.5380  0.3765
   66MOL   C42836958   2.599   0.272   4.300 -0.2935  0.4744  0.7496
   66MOL   O42936959   2.657   0.368   4.210  0.3677  0.0521  0.5028
   66MOL   C43036960   2.547   0.341   4.422  0.7711 -0.3340 -0.6571
   66MOL   C43136961   2.420   0.422   4.393  0.6574  0.3483  0.0516
   66MOL   C43236962   2.538   0.255   4.547 -0.0449 -1.0406 -0.3097
   66MOL   C43336963   2.675   0.191   4.574 -0.2079  0.3068  0.2204
   66MOL   H43436964   2.820   7.619   4.689  2.1718 -0.2833  0.1154
   66MOL   H43536965   2.744   7.483   4.587 -0.7211  0.8561 -1.2196
   66MOL   H43636966   2.921   0.080   4.484 -1.8439  2.0306  2.2462
   66MOL   H43736967   2.935   7.508   4.404  0.2550 -0.1419 -2.3578
   66MOL   H43836968   2.631   0.013   4.463 -0.8002  1.0640  0.4382
   66MOL   H43936969   2.807   0.228   4.332  0.3353 -2.0236  0.2861
   66MOL   H44036970   2.711   0.098   4.247 -0.3329  0.2694 -0.3292
   66MOL   H44136971   2.519   0.223   4.244  0.8438 -1.9048  1.1431
   66MOL   H44236972   2.747   0.381   4.233 -0.0145  1.3343  1.3149
   66MOL   H44336973   2.616   0.419   4.455 -2.8796  1.2790  3.6894
   66MOL   H44436974   2.405   0.488   4.479 -1.6664  1.0583 -0.8530
   66MOL   H44536975   2.431   0.475   4.299 -3.5387  0.8805 -0.2314
   66MOL   H44636976   2.460   0.182   4.529 -0.2670 -0.5672 -1.3493
   66MOL   H44736977   2.504   0.313   4.632 -0.4604  1.2074 -1.9583
   66MOL   H44836978   2.656   0.129   4.662  1.2623 -1.4206 -0.6598
   66MOL   H44936979   2.761   0.253   4.598 -0.3323  0.8484 -0.7161
   66MOL   O45036980   2.305   0.328   4.387 -0.0332  0.7827  0.5702
   66MOL   C45136981   2.194   0.396   4.326  0.3876 -0.8821  0.1085
   66MOL   C45236982   2.059   0.329   4.355  0.4656 -0.5360  0.0180
   66MOL   O45336983   1.964   0.434   4.364  0.6322  0.6829  0.0628
   66MOL   C45436984   2.015   0.223   4.243 -0.3626 -0.2581  0.1422
   66MOL   C45536985   1.978   0.282   4.106  0.5342 -0.0324  0.1237
   66MOL   C45636986   1.922   0.169   4.012 -0.0478 -0.1647 -0.5901
   66MOL   O45736987   1.877   0.229   3.889  0.2269 -0.4651 -0.5365
   66MOL   C45836988   1.810   0.081   4.071  0.3368  0.2251  1.2369
   66MOL   C45936989   1.773   7.599   3.970  0.0447 -0.0867 -0.2986
   66MOL   C46036990   1.861   0.025   4.201 -0.1235 -0.6533 -0.0575
   66MOL   C46136991   1.900   0.137   4.289 -0.1076 -0.3602  0.1817
   66MOL   H46236992   2.220   0.400   4.220 -1.9420 -1.2997 -0.5265
   66MOL   H46336993   2.194   0.497   4.368 -1.0666 -1.4792  1.6007
   66MOL   H46436994   2.061   0.277   4.450 -0.5894  1.3005  1.0674
   66MOL   H46536995   1.904   0.423   4.436  1.1552  0.8273  0.5195
   66MOL   H46636996   2.099   0.153   4.241 -1.9872 -2.2376  0.0698
   66MOL   H46736997   1.908   0.365   4.107  0.8430  0.2309 -0.1152
   66MOL   H46836998   2.064   0.330   4.060  0.2975  0.5651  0.3021
   66MOL   H46936999   2.008   0.104   3.993  0.6840  0.4616  0.5537
   66MOL   H47037000   1.817   0.296   3.918  0.3325 -0.6368  0.0884
   66MOL   H47137001   1.721   0.140   4.090  1.4417  2.9037 -1.5758
   66MOL   H47237002   1.721   0.009   3.884  0.2120 -2.6073 -1.6194
   66MOL   H47337003   1.871   7.553   3.955  0.1074 -0.2982  0.7021
   66MOL   H47437004   1.939   7.579   4.188 -0.2699 -0.7400 -0.4456
   66MOL   H47537005   1.778   7.601   4.247 -1.0522  1.6274  0.9893
   66MOL   H47637006   1.907   0.094   4.389  1.1878 -1.4484 -0.3779
   66MOL   H47737007   1.803   0.187   4.294 -0.3790 -1.0829  3.4417
   66MOL   O47837008   1.702   7.493   4.037  0.5417 -0.1628 -0.0777
   66MOL   C47937009   1.567   7.502   4.057  0.3856  0.1231  0.4210
   66MOL   C48037010   1.509   7.364   4.026 -0.4229  0.1104 -0.3582
   66MOL   O48137011   1.536   7.276   4.128  0.1256 -0.1994 -0.3910
   66MOL   C48237012   1.368   7.369   3.986  0.4693 -0.3497  0.6998
   66MOL   C48337013   1.283   7.380   4.106 -0.3337 -0.7542  0.4127
   66MOL   C48437014   1.139   7.382   4.057 -0.2471  0.1458  0.0727
   66MOL   O48537015   1.073   7.409   4.179 -0.5348 -0.6813  0.5483
   66MOL   C48637016   1.089   7.254   3.988  0.1887  0.2660 -0.2843
   66MOL   C48737017   0.946   7.257   3.941  0.9811 -0.2342  0.4705
   66MOL   C48837018   1.181   7.233   3.872  0.2224 -0.3014  0.8326
   66MOL   C48937019   1.332   7.237   3.911 -0.2563  0.7136  0.4267
   66MOL   H49037020   1.512   7.567   3.989 -1.8179 -1.4007  0.6744
   66MOL   H49137021   1.539   7.524   4.160 -1.7793 -0.7910  0.0521
   66MOL   H49237022   1.569   7.335   3.939 -2.3315  0.8036 -1.9290
   66MOL   H49337023   1.512   7.310   4.213  1.3459  0.8155 -0.4477
   66MOL   H49437024   1.339   7.448   3.917 -1.0156  0.3048  2.0413
   66MOL   H49537025   1.293   7.290   4.168  1.7895 -1.6829 -1.2323
   66MOL   H49637026   1.309   7.468   4.164  1.2283 -0.1996 -1.0769
   66MOL   H49737027   1.115   7.466   3.992  1.5478  0.5618 -0.0678
   66MOL   H49837028   1.048   7.327   4.219  1.0083 -1.3542  0.1681
   66MOL   H49937029   1.096   7.169   4.056 -2.6842  1.7490  1.9821
   66MOL   H50037030   0.880   7.276   4.025 -2.0424 -1.5036 -1.5144
   66MOL   H50137031   0.933   7.347   3.879  0.8696 -1.1186 -0.8149
   66MOL   H50237032   1.168   7.305   3.791 -0.0299  0.5005  1.5789
   66MOL   H50337033   1.164   7.141   3.816  2.0322  0.5929 -1.2461
   66MOL   H50437034   1.394   7.242   3.822 -1.1809  0.2043 -0.2447
   66MOL   H50537035   1.360   7.150   3.969  1.6558  1.0267  0.0169
   66MOL   O50637036   0.898   7.134   3.884  0.5583  0.3210  0.1983
   66MOL   C50737037   0.774   7.142   3.816 -0.5245  0.0814  0.4283
   66MOL   C50837038   0.718   7.014   3.749 -0.2522  1.0563 -0.0680
   66MOL   O50937039   0.710   6.919   3.848  0.3170 -0.4150 -0.5610
   66MOL   C51037040   0.575   7.030   3.678  0.0769 -0.0237  0.3697
   66MOL   C51137041   0.507   6.896   3.636  0.1090 -0.2063 -0.3636
   66MOL   C51237042   0.364   6.914   3.594  0.2604 -0.8380 -0.1786
   66MOL   O51337043   0.318   6.783   3.558 -0.3481  0.0350 -0.5512
   66MOL   C51437044   0.352   7.005   3.469  0.0884 -0.1290  0.2548
   66MOL   C51537045   0.210   7.044   3.436 -0.1148 -0.0566  0.1954
   66MOL   C51637046   0.444   7.133   3.481 -0.1304  0.5513  0.1419
   66MOL   C51737047   0.587   7.108   3.539  0.3413  0.3081  0.1300
   66MOL   H51837048   0.795   7.207   3.731  2.2848 -1.8817 -0.4751
   66MOL   H51937049   0.697   7.182   3.881 -0.1129  0.3658  0.7442
   66MOL   H52037050   0.790   6.964   3.684 -0.8748 -0.4428  0.3748
   66MOL   H52137051   0.769   6.949   3.916 -0.7420 -1.1078  0.6960
   66MOL   H52237052   0.504   7.083   3.741 -0.8345 -0.8037  0.0355
   66MOL   H52337053   0.565   6.856   3.553  1.0607  1.4005 -0.5012
   66MOL   H52437054   0.497   6.820   3.713  0.5439 -0.2777 -0.3800
   66MOL   H52537055   0.306   6.954   3.677 -1.2282 -0.6380 -1.2966
   66MOL   H52637056   0.299   6.733   3.635  0.9077  1.7492  0.8976
   66MOL   H52737057   0.381   6.944   3.383  0.3858 -1.4255  1.2495
   66MOL   H52837058   0.145   6.957   3.423  1.7028 -1.4917  0.5226
   66MOL   H52937059   0.174   7.109   3.516 -0.3376 -0.4139  0.3843
   66MOL   H53037060   0.397   7.208   3.545  0.8282 -0.3490  1.9384
   66MOL   H53137061   0.459   7.176   3.382 -2.0635  0.8573 -0.0479
   66MOL   H53237062   0.645   7.199   3.556  1.8085 -1.0528  2.6640
   66MOL   H53337063   0.637   7.044   3.466  0.6550 -1.0171  1.4791
   66MOL   O53437064   0.207   7.107   3.307 -0.8077  0.6257 -0.3321
   66MOL   C53537065   0.086   7.168   3.285 -0.3131 -0.6275  0.6894
   66MOL   C53637066   0.078   7.225   3.143 -0.9741 -0.2091  0.0817
   66MOL   O53737067   0.100   7.118   3.056 -0.6051  0.2464 -0.6404
   66MOL   C53837068   7.576   7.291   3.106  0.4645 -0.3286  0.1464
   66MOL   C53937069   7.581   7.326   2.959 -0.3992  0.7460 -0.0228
   66MOL   C54037070   7.468   7.427   2.917 -0.6922 -0.0049 -0.0254
   66MOL   O54137071   7.502   7.472   2.788  0.0216  0.3145 -0.2590
   66MOL   C54237072   7.456   7.543   3.014 -0.6470  0.0300  0.7855
   66MOL   C54337073   7.342   0.019   2.972  0.0726 -0.4179 -0.1121
   66MOL   C54437074   7.415   7.485   3.151  0.6982  0.3165 -0.3094
   66MOL   C54537075   7.532   7.402   3.201  0.9876  0.5015 -0.0126
   66MOL   H54637076   0.089   7.253   3.354 -1.4101  0.4295 -0.5269
   66MOL   H54737077   0.002   7.103   3.309  0.1955 -0.8872  1.7848
   66MOL   H54837078   0.162   7.295   3.138 -0.0201 -1.4471 -2.3306
   66MOL   H54937079   0.162   7.062   3.099 -1.6581 -0.6650 -0.3146
   66MOL   H55037080   7.495   7.219   3.120  0.3826 -0.4251 -0.7641
   66MOL   H55137081   0.052   7.362   2.941  0.3665 -0.6557  1.3220
   66MOL   H55237082   7.594   7.239   2.894 -0.3729  0.4785  0.3440
   66MOL   H55337083   7.370   7.381   2.929 -0.9156  0.5449  0.2799
   66MOL   H55437084   7.427   7.448   2.736  0.3371  0.3778 -0.7550
   66MOL   H55537085   7.551   7.593   3.031 -0.1488 -1.2977  1.9651
   66MOL   H55637086   7.391   0.096   2.913 -1.2558 -0.1872 -0.9339
   66MOL   H55737087   7.251   7.616   2.922  0.3918 -0.0040 -0.9726
   66MOL   H55837088   7.321   7.430   3.150  1.2488 -0.6724  1.1434
   66MOL   H55937089   7.392   7.566   3.221  0.5187 -0.2692  0.3136
   66MOL   H56037090   7.498   7.376   3.302 -2.8519 -1.5508 -1.7150
   66MOL   H56137091   7.621   7.464   3.208  2.5625 -1.9848  3.0589
   66MOL   H56237092   7.307   0.063   3.065  0.4164  0.1766 -0.2653
   67MOL     O137093   2.024   4.103   6.713  0.0697 -0.1579 -0.3994
   67MOL     C237094   2.018   4.038   6.837 -0.1054 -0.2925 -0.2611
   67MOL     C337095   2.158   4.055   6.913  0.2015 -0.1137 -0.3128
   67MOL     O437096   2.175   4.193   6.941  0.6272  0.0469  0.1436
   67MOL     C537097   2.145   3.986   7.051  0.7050 -0.3134 -0.2747
   67MOL     C637098   2.280   3.996   7.121  0.4252  0.1669 -0.0082
   67MOL     C737099   2.301   3.915   7.258 -0.5318 -0.1672 -0.1473
   67MOL     O837100   2.430   3.938   7.312 -0.2843 -0.5823  0.2209
   67MOL     C937101   2.289   3.764   7.232  0.4595  0.1950  0.1528
   67MOL    C1037102   2.305   3.672   7.356  0.2251  0.3405 -0.0523
   67MOL    C1137103   2.146   3.748   7.166  0.3943  0.0239 -0.0845
   67MOL    C1237104   2.115   3.833   7.041 -0.1740  0.1625  0.4488
   67MOL    H1337105   1.987   3.937   6.810 -0.4528 -0.3395  0.3096
   67MOL    H1437106   1.934   4.087   6.886 -0.4301 -0.6013 -0.5006
   67MOL    H1537107   2.231   4.000   6.854  1.8705  0.8863  0.7718
   67MOL    H1637108   2.192   4.238   6.860 -0.0454 -1.0647 -0.6190
   67MOL    H1737109   2.073   4.034   7.116 -1.3834 -0.3787 -2.4497
   67MOL    H1837110   2.359   3.971   7.049  0.2051 -0.1480 -0.1416
   67MOL    H1937111   2.294   4.103   7.136 -0.3541  0.6002 -2.1399
   67MOL    H2037112   2.227   3.929   7.337 -0.7772  0.1921 -0.4383
   67MOL    H2137113   2.482   3.906   7.240 -1.9161 -0.5078 -1.0261
   67MOL    H2237114   2.364   3.720   7.166 -0.8016 -2.7039  0.5321
   67MOL    H2337115   2.412   3.674   7.379 -0.2879  3.2660  2.4531
   67MOL    H2437116   2.266   3.720   7.446  0.2487  1.4980 -0.6522
   67MOL    H2537117   2.071   3.763   7.243 -0.7118 -3.7966 -0.3393
   67MOL    H2637118   2.134   3.646   7.131 -1.7997  0.0407  0.5244
   67MOL    H2737119   2.018   3.819   6.993 -1.2245  2.0853  1.9861
   67MOL    H2837120   2.197   3.800   6.977  2.2595 -0.1502  3.6039
   67MOL    H2937121   2.064   4.187   6.727  0.7512 -0.9457  2.6451
   67MOL    O3037122   2.254   3.546   7.334  0.5636 -0.1434  0.3047
   67MOL    C3137123   2.316   3.436   7.402 -0.4668  0.3918  0.0825
   67MOL    C3237124   2.245   3.305   7.381  0.6778 -0.4034 -0.0207
   67MOL    O3337125   2.332   3.194   7.387 -0.2126  0.4837 -0.0972
   67MOL    C3437126   2.118   3.282   7.474 -0.5764  0.5518 -0.0453
   67MOL    C3537127   2.047   3.146   7.450 -0.1925 -0.1248 -0.0819
   67MOL    C3637128   1.922   3.117   7.531  0.5725  0.3183  0.1402
   67MOL    O3737129   1.853   3.005   7.482 -0.4632  0.3442 -0.2518
   67MOL    C3837130   1.825   3.237   7.537  0.7947 -0.4778  0.2201
   67MOL    C3937131   1.712   3.218   0.008  0.2203 -0.3222 -0.1933
   67MOL    C4037132   1.894   3.373   7.553  0.1902 -0.1544 -0.3028
   67MOL    C4137133   2.008   3.392   7.455 -0.1299  0.8693  0.2914
   67MOL    H4237134   2.312   3.450   7.510 -2.0018 -3.8888  0.6767
   67MOL    H4337135   2.417   3.430   7.361  0.1628  0.4108  1.5705
   67MOL    H4437136   2.205   3.304   7.280  0.2530  0.4365  0.1287
   67MOL    H4537137   2.376   3.183   7.469  1.9298 -0.9643 -1.4016
   67MOL    H4637138   2.147   3.287   7.579  0.7351  0.5631 -0.3973
   67MOL    H4737139   2.014   3.138   7.346  0.9679 -2.7085 -0.2767
   67MOL    H4837140   2.123   3.071   7.471 -0.4843  0.2708  2.5102
   67MOL    H4937141   1.962   3.102   0.002 -0.5965  3.3380  1.1157
   67MOL    H5037142   1.839   3.014   7.389 -1.1993  1.0859 -0.0707
   67MOL    H5137143   1.782   3.246   7.438  1.2371  3.9177  0.3243
   67MOL    H5237144   1.653   3.127   0.002  2.4712 -1.7187 -1.9824
   67MOL    H5337145   1.749   3.220   0.111  0.3317 -0.0761 -0.2377
   67MOL    H5437146   1.928   3.380   0.027 -2.1860  1.2472  0.4135
   67MOL    H5537147   1.820   3.452   7.547  1.1860  0.8019 -0.2538
   67MOL    H5637148   2.038   3.495   7.479 -1.9633  0.9113  2.5424
   67MOL    H5737149   1.984   3.391   7.349 -1.2068  1.2325  0.5216
   67MOL    O5837150   1.624   3.329   7.612  0.4615  0.1357 -0.5218
   67MOL    C5937151   1.516   3.346   0.075 -0.0029  0.6919  0.2241
   67MOL    C6037152   1.465   3.488   0.069  0.3947  0.3501  0.2939
   67MOL    O6137153   1.409   3.497   7.566 -0.4273  0.0958  0.1863
   67MOL    C6237154   1.357   3.523   0.175  0.3042 -0.1078  0.9406
   67MOL    C6337155   1.283   3.663   0.136  0.4704  0.1905 -0.6672
   67MOL    C6437156   1.188   3.721   0.246 -0.1936 -0.0874 -0.2689
   67MOL    O6537157   1.135   3.840   0.206 -0.3989  0.1192  0.1218
   67MOL    C6637158   1.263   3.730   0.377 -0.0987  0.1717  0.3690
   67MOL    C6737159   1.173   3.791   0.489  0.2868  0.4896  0.3403
   67MOL    C6837160   1.311   3.596   0.423  0.9072  0.9677  0.2027
   67MOL    C6937161   1.407   3.523   0.323 -0.6001 -0.3143  0.2359
   67MOL    H7037162   1.549   3.324   0.176 -3.6806 -0.9532  1.1135
   67MOL    H7137163   1.442   3.267   0.061  0.1692  0.3914  0.9992
   67MOL    H7237164   1.537   3.569   0.074  0.6145  0.2566 -1.0047
   67MOL    H7337165   1.480   3.482   7.505 -1.0350  1.6730 -0.9505
   67MOL    H7437166   1.277   3.449   0.168 -0.5285  0.9786 -1.5705
   67MOL    H7537167   1.362   3.733   0.107 -1.5477  2.1214 -1.6221
   67MOL    H7637168   1.219   3.641   0.051 -0.8466  0.1080  0.3437
   67MOL    H7737169   1.106   3.651   0.260 -1.1047  0.9166 -0.5507
   67MOL    H7837170   1.140   3.839   0.111  0.1625  2.0729  0.1144
   67MOL    H7937171   1.345   3.801   0.368  0.7662 -0.7841  0.6307
   67MOL    H8037172   1.147   3.889   0.450 -1.6073 -0.0744  0.1365
   67MOL    H8137173   1.081   3.737   0.510 -0.2051  0.8351 -0.9048
   67MOL    H8237174   1.221   3.535   0.434  1.2893  0.1197 -1.1266
   67MOL    H8337175   1.355   3.599   0.522  1.3464 -0.5292  0.0688
   67MOL    H8437176   1.420   3.422   0.362  0.3526 -0.9454 -1.6149
   67MOL    H8537177   1.501   3.577   0.333 -0.6770 -0.0309 -0.5198
   67MOL    O8637178   1.250   3.808   0.606 -0.1280  0.0421 -0.3191
   67MOL    C8737179   1.193   3.890   0.706  0.4034  0.4376  0.5819
   67MOL    C8837180   1.289   3.922   0.819 -0.4263 -0.4931 -0.1425
   67MOL    O8937181   1.401   3.968   0.745  0.0283  0.2617  0.2668
   67MOL    C9037182   1.254   4.044   0.909  0.5511 -0.5338  0.3138
   67MOL    C9137183   1.369   4.070   1.006 -0.7543  0.7066  0.3680
   67MOL    C9237184   1.352   4.198   1.093  0.5824  0.3368  1.0594
   67MOL    O9337185   1.447   4.207   1.194 -0.1791 -0.0319  0.4596
   67MOL    C9437186   1.212   4.201   1.161 -0.0802 -0.5604 -0.1830
   67MOL    C9537187   1.194   4.339   1.226  0.4292  0.7903  0.2551
   67MOL    C9637188   1.105   4.163   1.061  0.0338  0.3548  0.7625
   67MOL    C9737189   1.131   4.024   0.991  0.4845 -0.7175 -0.0712
   67MOL    H9837190   1.099   3.839   0.728  1.4453 -1.3691  0.8711
   67MOL    H9937191   1.155   3.985   0.668  2.9110  1.5454  0.7447
   67MOL   H10037192   1.285   3.830   0.877 -2.2595  0.9423  2.0706
   67MOL   H10137193   1.409   3.910   0.671 -1.6492 -2.3634  2.0931
   67MOL   H10237194   1.247   4.132   0.845 -0.5933 -0.6407  0.2722
   67MOL   H10337195   1.390   3.989   1.075 -1.8671 -0.9902 -1.2280
   67MOL   H10437196   1.461   4.086   0.948 -0.2167  0.7728  1.2341
   67MOL   H10537197   1.358   4.296   1.046  0.9926 -0.6583 -1.0108
   67MOL   H10637198   1.444   4.124   1.240  0.3404  0.8592  2.1314
   67MOL   H10737199   1.215   4.129   1.243 -0.7710  0.2350  0.5461
   67MOL   H10837200   1.112   4.341   1.299  0.2978  0.0296  0.1322
   67MOL   H10937201   1.286   4.362   1.279 -0.0692  0.0915  1.4462
   67MOL   H11037202   1.102   4.245   0.990  3.6275 -0.5216 -0.4866
   67MOL   H11137203   1.018   4.159   1.126  0.6423  2.1032  1.7191
   67MOL   H11237204   1.046   4.007   0.925 -2.2982 -0.7396  3.3688
   67MOL   H11337205   1.135   3.940   1.061  2.0708  0.6461  1.5420
   67MOL   O11437206   1.168   4.444   1.130  0.1032 -0.2422  0.4804
   67MOL   C11537207   1.147   4.569   1.192  0.7601 -0.4091 -0.5515
   67MOL   C11637208   1.132   4.676   1.082  0.7527  0.3011  0.1812
   67MOL   O11737209   1.015   4.641   1.011  0.0156  0.5979 -0.0147
   67MOL   C11837210   1.127   4.820   1.137  0.1410 -0.0059 -0.2467
   67MOL   C11937211   1.264   4.889   1.185 -0.2700  0.2564  0.0394
   67MOL   C12037212   1.256   5.036   1.235 -0.5395 -0.6247 -0.2185
   67MOL   O12137213   1.386   5.076   1.267  0.5190  0.1361 -0.1912
   67MOL   C12237214   1.159   5.042   1.350  0.1814 -0.6674 -0.7658
   67MOL   C12337215   1.138   5.183   1.415  0.6433  0.6118 -0.0800
   67MOL   C12437216   1.022   4.991   1.299 -0.0428 -0.2457  0.0606
   67MOL   C12537217   1.026   4.835   1.254  0.7123  0.3392 -0.4826
   67MOL   H12637218   1.227   4.580   1.265 -0.6210 -3.2257  1.4718
   67MOL   H12737219   1.053   4.576   1.247  1.0340 -0.1894 -0.1107
   67MOL   H12837220   1.213   4.683   1.009  0.2398 -1.3965 -0.5839
   67MOL   H12937221   1.028   4.548   1.002  1.7687  0.9766 -1.5711
   67MOL   H13037222   1.090   4.889   1.060  0.7980  1.8424  1.0445
   67MOL   H13137223   1.307   4.829   1.265  0.4585  0.2888 -0.3269
   67MOL   H13237224   1.339   4.880   1.107 -0.2864 -0.7208  0.1327
   67MOL   H13337225   1.204   5.087   1.154  0.7918  0.9777 -0.0988
   67MOL   H13437226   1.417   5.015   1.333 -1.0915 -0.1340  0.3382
   67MOL   H13537227   1.201   4.973   1.423  0.7518 -0.5529 -0.9856
   67MOL   H13637228   1.223   5.247   1.389  0.8631 -0.6660 -2.6256
   67MOL   H13737229   1.053   5.227   1.363 -0.8147 -0.9767  0.9253
   67MOL   H13837230   0.983   5.057   1.222 -0.2314 -1.9235 -1.3148
   67MOL   H13937231   0.951   5.006   1.380 -0.3825 -1.8803  0.0898
   67MOL   H14037232   0.926   4.811   1.219  1.4073 -0.2619 -2.1071
   67MOL   H14137233   1.060   4.780   1.342  1.1009  1.1633 -0.1093
   67MOL   O14237234   1.101   5.183   1.552 -0.5226  0.1255 -0.6700
   67MOL   C14337235   1.210   5.188   1.649  0.6777  0.0517  0.1414
   67MOL   C14437236   1.138   5.191   1.782  0.2731  0.4927  0.3001
   67MOL   O14537237   1.076   5.064   1.789 -0.1955 -0.0027  0.0043
   67MOL   C14637238   1.221   5.231   1.905  0.3948  0.1852 -0.0803
   67MOL   C14737239   1.285   5.372   1.897  0.6153 -0.6449  0.9585
   67MOL   C14837240   1.353   5.407   2.031 -0.0872  0.1132 -0.4782
   67MOL   O14937241   1.407   5.537   2.016  0.2414  0.3398 -0.2875
   67MOL   C15037242   1.470   5.302   2.049 -0.9499  0.1529  0.0679
   67MOL   C15137243   1.545   5.334   2.177  0.0356  0.1059 -0.0848
   67MOL   C15237244   1.411   5.165   2.063 -0.4304  0.4179  0.4341
   67MOL   C15337245   1.334   5.130   1.936  0.6547 -0.2086  0.0130
   67MOL   H15437246   1.265   5.281   1.634  0.2525  0.3038  0.1439
   67MOL   H15537247   1.278   5.106   1.623 -0.5985 -1.0735  0.2683
   67MOL   H15637248   1.054   5.261   1.777 -1.6392 -1.7164  0.5724
   67MOL   H15737249   1.017   5.067   1.716 -0.7087 -1.0771  0.3623
   67MOL   H15837250   1.147   5.235   1.984 -0.1374 -2.2274 -0.4239
   67MOL   H15937251   1.346   5.383   1.807  0.8582 -1.2458  1.0459
   67MOL   H16037252   1.208   5.450   1.890  1.3597  0.0452  0.2950
   67MOL   H16137253   1.296   5.396   2.124 -0.8541 -1.7940 -1.1509
   67MOL   H16237254   1.380   5.585   2.093 -1.9672 -0.3550 -0.5950
   67MOL   H16337255   1.541   5.315   1.967 -1.2171  4.5807  0.4180
   67MOL   H16437256   1.581   5.436   2.190 -0.4586  0.3704 -0.7648
   67MOL   H16537257   1.474   5.322   2.259 -0.6329 -2.0890 -0.9396
   67MOL   H16637258   1.353   5.174   2.155 -2.3277 -0.3882 -0.6378
   67MOL   H16737259   1.488   5.091   2.081  0.8750  1.5417 -0.4256
   67MOL   H16837260   1.292   5.030   1.953 -2.4777  0.9788 -0.4490
   67MOL   H16937261   1.400   5.117   1.851 -1.0555 -2.6997 -1.0075
   67MOL   O17037262   1.652   5.239   2.188  0.3603  0.7580  0.3988
   67MOL   C17137263   1.717   5.241   2.315 -0.8644  0.4787  0.3681
   67MOL   C17237264   1.814   5.124   2.320 -0.5142 -0.4369 -0.0876
   67MOL   O17337265   1.866   5.116   2.454  0.3815 -0.3188  0.1814
   67MOL   C17437266   1.742   4.985   2.295 -0.5294  0.2001  0.5376
   67MOL   C17537267   1.623   4.960   2.389  0.2354 -0.4791 -0.2562
   67MOL   C17637268   1.558   4.818   2.373 -0.1820 -1.0800  0.2887
   67MOL   O17737269   1.453   4.803   2.473 -0.0650 -0.6129  0.2950
   67MOL   C17837270   1.670   4.712   2.396 -0.9248  1.1661  0.0538
   67MOL   C17937271   1.613   4.573   2.409  0.3143  0.5714 -0.9885
   67MOL   C18037272   1.772   4.733   2.286 -0.1771  0.2143  0.3563
   67MOL   C18137273   1.845   4.869   2.292  0.5228 -0.1018 -0.0737
   67MOL   H18237274   1.644   5.221   2.393  0.1543 -1.0011  0.9529
   67MOL   H18337275   1.763   5.335   2.349 -0.5584  1.3092 -2.2426
   67MOL   H18437276   1.892   5.143   2.247  0.0643  1.9136  1.1092
   67MOL   H18537277   1.932   5.049   2.454 -0.3122 -1.0091 -0.0816
   67MOL   H18637278   1.693   4.995   2.199  1.4999 -5.1879 -1.2305
   67MOL   H18737279   1.659   4.956   2.492 -2.0069  0.2066  0.5801
   67MOL   H18837280   1.537   5.020   2.360  0.9616  0.1930 -1.0170
   67MOL   H18937281   1.502   4.809   2.281 -0.6812 -1.1597  0.6014
   67MOL   H19037282   1.489   4.764   2.551  0.6259 -1.6851 -0.5332
   67MOL   H19137283   1.719   4.739   2.489 -0.4837  1.5136 -0.2759
   67MOL   H19237284   1.544   4.565   2.493  1.6552 -0.5926  0.0273
   67MOL   H19337285   1.557   4.535   2.323 -2.3597  1.4293  0.3192
   67MOL   H19437286   1.731   4.700   2.190 -0.6640 -0.4044  0.7771
   67MOL   H19537287   1.852   4.662   2.304  1.1891  2.0903  1.9057
   67MOL   H19637288   1.910   4.890   2.207  0.9821  1.7119  0.7040
   67MOL   H19737289   1.900   4.858   2.386 -0.3429  0.5748  0.5142
   67MOL   O19837290   1.707   4.470   2.431 -0.1421 -0.2837  0.3305
   67MOL   C19937291   1.767   4.466   2.560 -0.2845 -0.5724  0.3594
   67MOL   C20037292   1.843   4.335   2.582  0.4173 -0.7080  0.0655
   67MOL   O20137293   1.969   4.347   2.527 -0.5672  0.3724  0.9264
   67MOL   C20237294   1.845   4.288   2.724 -0.2759  0.1250 -0.3990
   67MOL   C20337295   1.930   4.379   2.821  0.3686  0.3764 -0.2219
   67MOL   C20437296   1.939   4.327   2.963  0.1412  0.0704 -0.5021
   67MOL   O20537297   2.036   4.398   3.033 -0.0789 -0.4449 -0.0432
   67MOL   C20637298   1.990   4.177   2.968  0.2049  0.3835 -0.1017
   67MOL   C20737299   1.971   4.115   3.110  0.9384  0.3104 -0.3607
   67MOL   C20837300   1.904   4.087   2.870 -0.0594  0.2561 -0.8035
   67MOL   C20937301   1.894   4.145   2.727  0.6268 -0.2410  0.3580
   67MOL   H21037302   1.693   4.470   2.640 -2.0165  1.4045 -1.2835
   67MOL   H21137303   1.841   4.547   2.565 -0.3136 -0.5129 -0.1456
   67MOL   H21237304   1.790   4.254   2.532 -1.9439  1.4068 -0.9861
   67MOL   H21337305   1.961   4.371   2.436 -0.6439 -1.3654  0.4580
   67MOL   H21437306   1.741   4.292   2.754 -0.2469 -0.2441 -0.2456
   67MOL   H21537307   2.025   4.393   2.767  0.0460 -0.0148 -0.9045
   67MOL   H21637308   1.901   4.484   2.812 -0.8252  0.2308  1.8468
   67MOL   H21737309   1.836   4.333   2.997 -0.3185 -0.2783 -1.7906
   67MOL   H21837310   2.026   4.490   3.013  2.9452 -0.3749 -1.4129
   67MOL   H21937311   2.093   4.175   2.932  0.9047 -0.4018  1.8805
   67MOL   H22037312   1.994   4.008   3.114  2.7436  0.6484 -1.2759
   67MOL   H22137313   2.045   4.156   3.179  2.4226  1.6239 -2.6988
   67MOL   H22237314   1.799   4.091   2.896 -0.8931  1.9312 -4.1533
   67MOL   H22337315   1.936   3.983   2.878 -1.4874 -0.2757 -1.8072
   67MOL   H22437316   1.827   4.090   2.661  0.3021  0.5143  0.0506
   67MOL   H22537317   1.998   4.131   2.696  1.7466  2.2083  2.8053
   67MOL   O22637318   1.839   4.132   3.152  0.1934  0.7924  0.3830
   67MOL   C22737319   1.807   4.093   3.285 -0.0356 -0.5294 -0.8243
   67MOL   C22837320   1.786   4.220   3.385  0.2760 -0.3439 -0.0791
   67MOL   O22937321   1.709   4.324   3.324 -0.2275  0.0930  0.5987
   67MOL   C23037322   1.713   4.171   3.514 -0.3821  0.3015 -0.1751
   67MOL   C23137323   1.566   4.128   3.503 -0.3241  1.2240 -0.4545
   67MOL   C23237324   1.495   4.096   3.634 -0.3603  0.0667 -0.2222
   67MOL   O23337325   1.362   4.065   3.597 -0.1923 -0.2205 -0.3684
   67MOL   C23437326   1.509   4.204   3.741 -0.3459  0.2636  0.2535
   67MOL   C23537327   1.457   4.165   3.883 -0.4348  0.5078  0.4966
   67MOL   C23637328   1.656   4.239   3.756  0.8657 -0.1379 -1.6074
   67MOL   C23737329   1.712   4.285   3.625 -0.9634  0.2821 -0.5463
   67MOL   H23837330   1.882   4.024   3.324 -1.6709 -1.9005 -0.0492
   67MOL   H23937331   1.727   4.019   3.281  2.2209 -3.0032 -2.3640
   67MOL   H24037332   1.892   4.246   3.394  0.3929 -1.5005  2.2260
   67MOL   H24137333   1.716   4.317   3.230 -0.5607 -1.6823  0.6910
   67MOL   H24237334   1.768   4.084   3.551 -1.4979 -0.0805  0.6082
   67MOL   H24337335   1.508   4.192   3.436  0.2800  0.4487 -1.7486
   67MOL   H24437336   1.566   4.032   3.451  2.9254  0.3467  1.0682
   67MOL   H24537337   1.544   4.007   3.674 -0.3000 -0.0236 -0.4995
   67MOL   H24637338   1.327   4.014   3.668  0.8346  0.3192  0.5324
   67MOL   H24737339   1.462   4.294   3.699 -0.2945 -0.8491 -2.2761
   67MOL   H24837340   1.354   4.137   3.864  0.0224 -1.2122  0.4374
   67MOL   H24937341   1.509   4.086   3.938  1.3404  0.5902 -1.0171
   67MOL   H25037342   1.711   4.162   3.810  1.0860 -0.3673 -2.1558
   67MOL   H25137343   1.660   4.327   3.820 -0.7507 -0.8588 -0.4927
   67MOL   H25237344   1.804   4.342   3.632 -1.2455  0.6420  0.3264
   67MOL   H25337345   1.649   4.366   3.587  0.7212  0.8892 -2.0950
   67MOL   O25437346   1.455   4.282   3.957  0.4019 -0.7214  0.6661
   67MOL   C25537347   1.414   4.278   4.091 -0.0811  0.4892 -0.6887
   67MOL   C25637348   1.543   4.249   4.174  0.3672 -0.0995  0.2353
   67MOL   O25737349   1.551   4.352   4.266  0.5976 -0.4672  0.7286
   67MOL   C25837350   1.538   4.116   4.254 -0.4720  0.3395  0.7300
   67MOL   C25937351   1.545   3.985   4.170  0.5578  0.2802  0.4288
   67MOL   C26037352   1.578   3.859   4.253  0.2693  1.0297 -0.0099
   67MOL   O26137353   1.573   3.759   4.155 -0.3240  0.2584  0.0729
   67MOL   C26237354   1.479   3.844   4.374  0.5762 -0.1859 -0.1755
   67MOL   C26337355   1.518   3.716   4.458  0.9458 -0.2164  0.4267
   67MOL   C26437356   1.463   3.974   4.459  0.5258 -0.9674  0.1366
   67MOL   C26537357   1.440   4.104   4.371  0.1968  0.6506 -0.3257
   67MOL   H26637358   1.332   4.212   4.118 -0.0788  0.8816  0.2929
   67MOL   H26737359   1.379   4.380   4.105 -1.3561  0.4872 -3.4028
   67MOL   H26837360   1.630   4.254   4.108 -0.9056  3.4288 -1.2744
   67MOL   H26937361   1.464   4.365   4.301  1.0985  2.3573  1.0533
   67MOL   H27037362   1.637   4.119   4.298  0.7081 -0.7269 -1.7640
   67MOL   H27137363   1.455   3.978   4.109  0.5784  1.5407  0.2419
   67MOL   H27237364   1.625   4.002   4.099  0.6016 -0.0005  0.4090
   67MOL   H27337365   1.680   3.875   4.286  0.1694 -1.2619  1.5067
   67MOL   H27437366   1.623   3.687   4.191 -1.5236 -0.3393  0.5373
   67MOL   H27537367   1.378   3.831   4.335  0.4823 -0.6332  0.2108
   67MOL   H27637368   1.515   3.624   4.400  0.4825  0.1533 -0.1428
   67MOL   H27737369   1.624   3.729   4.484  0.8091  0.5849  0.5920
   67MOL   H27837370   1.560   3.992   4.505 -0.5263  1.6212  1.4659
   67MOL   H27937371   1.383   3.963   4.533  1.4379 -2.3753  0.9385
   67MOL   H28037372   1.451   4.188   4.438  0.7294  0.0467  0.3493
   67MOL   H28137373   1.340   4.099   4.328 -0.2621 -2.8709  0.9712
   67MOL   O28237374   1.434   3.705   4.566  0.0676 -0.1490 -0.2942
   67MOL   C28337375   1.484   3.610   4.657 -0.0946  0.0705 -0.1957
   67MOL   C28437376   1.401   3.603   4.786 -0.1315  0.1861 -0.7974
   67MOL   O28537377   1.437   3.710   4.879 -0.2386  0.2250  0.3333
   67MOL   C28637378   1.246   3.607   4.761  0.4229 -0.6904 -0.2780
   67MOL   C28737379   1.164   3.622   4.890  0.2614  0.1198 -0.5210
   67MOL   C28837380   1.016   3.625   4.856 -0.4408 -0.2253  0.2256
   67MOL   O28937381   0.950   3.627   4.977 -0.1802  0.0973  0.2978
   67MOL   C29037382   0.966   3.507   4.775  0.5196  0.9270  0.8306
   67MOL   C29137383   0.813   3.505   4.750 -0.4197 -0.4655 -0.8587
   67MOL   C29237384   1.050   3.498   4.650 -0.4581 -0.4244  0.0164
   67MOL   C29337385   1.204   3.482   4.683  0.0349  0.7624 -0.1331
   67MOL   H29437386   1.582   3.645   4.688 -0.2647  2.7204 -2.5037
   67MOL   H29537387   1.497   3.514   4.607 -1.7492  0.9105 -2.3287
   67MOL   H29637388   1.418   3.510   4.841 -0.7237 -0.2028 -1.2697
   67MOL   H29737389   1.522   3.694   4.918  0.1738 -0.8500 -0.9802
   67MOL   H29837390   1.223   3.695   4.700  3.3509  1.0109  0.9644
   67MOL   H29937391   1.185   3.539   4.958  1.0956 -0.9649 -2.0648
   67MOL   H30037392   1.189   3.712   4.947 -2.3637  0.1334  0.6705
   67MOL   H30137393   1.003   3.712   4.792 -0.9743 -2.1135 -2.2628
   67MOL   H30237394   0.859   3.618   4.952  0.1299 -1.0798 -0.4595
   67MOL   H30337395   0.984   3.423   4.842  0.3465  1.0855  1.0762
   67MOL   H30437396   0.787   3.600   4.705  0.2045 -0.0101 -0.2601
   67MOL   H30537397   0.787   3.425   4.681  1.4568 -1.2300 -0.7105
   67MOL   H30637398   1.026   3.575   4.576  0.7087  0.7525  0.8460
   67MOL   H30737399   1.019   3.412   4.590 -0.4001 -0.5506  0.1682
   67MOL   H30837400   1.248   3.479   4.584  0.4416 -2.4106  0.1044
   67MOL   H30937401   1.220   3.387   4.734  0.1201  1.0557  0.3967
   67MOL   O31037402   0.741   3.485   4.873 -0.4491  0.2326  0.6860
   67MOL   C31137403   0.599   3.475   4.857  0.0064  0.0883  0.3231
   67MOL   C31237404   0.535   3.616   4.832 -0.4147  0.1017 -0.8907
   67MOL   O31337405   0.516   3.621   4.691  0.4485 -0.0527  0.2935
   67MOL   C31437406   0.401   3.624   4.908 -0.2767  0.2784 -0.5212
   67MOL   C31537407   0.307   3.739   4.864 -0.6504 -0.5824 -0.5895
   67MOL   C31637408   0.174   3.720   4.944 -0.3955 -0.3865 -0.1520
   67MOL   O31737409   0.089   3.827   4.911 -0.0819  0.4558  0.0318
   67MOL   C31837410   0.188   3.717   5.095 -0.2098 -0.0127 -0.7309
   67MOL   C31937411   0.044   3.711   5.161 -1.0489 -0.4590  0.1198
   67MOL   C32037412   0.289   3.604   5.137 -0.0886  0.6627  0.1172
   67MOL   C32137413   0.416   3.629   5.061  0.1459  0.0418  0.3113
   67MOL   H32237414   0.562   3.439   4.953  1.9329  0.0156  1.0560
   67MOL   H32337415   0.565   3.397   4.789  0.4146 -0.4784  0.7606
   67MOL   H32437416   0.602   3.688   4.877  0.8050 -1.4107 -0.2138
   67MOL   H32537417   0.522   3.714   4.675 -1.9776  0.2859  0.9838
   67MOL   H32637418   0.341   3.539   4.876  0.3326 -0.4382  0.2246
   67MOL   H32737419   0.355   3.833   4.892 -0.0123 -1.4563  1.3483
   67MOL   H32837420   0.293   3.755   4.757  0.3026  1.4844 -0.4438
   67MOL   H32937421   0.127   3.626   4.916 -2.0394 -0.3039  2.2150
   67MOL   H33037422   0.007   3.785   4.888  0.5830  0.1445 -1.8096
   67MOL   H33137423   0.228   3.812   5.133  2.4984 -1.0336 -0.9104
   67MOL   H33237424   7.604   3.789   5.130 -0.4804 -0.4274 -1.1136
   67MOL   H33337425   0.004   3.617   5.123 -0.7845 -0.2716 -0.6338
   67MOL   H33437426   0.237   3.513   5.107 -0.3905  0.8469  0.0843
   67MOL   H33537427   0.306   3.598   5.245  1.9679 -2.2027 -0.3093
   67MOL   H33637428   0.492   3.560   5.097 -1.3787 -1.1281  1.3622
   67MOL   H33737429   0.465   3.725   5.082 -0.2802  0.0567  1.2453
   67MOL   O33837430   0.056   3.704   5.299 -0.6125  0.3006  0.1283
   67MOL   C33937431   7.566   3.719   5.372 -0.3755  0.4196 -0.7076
   67MOL   C34037432   7.599   3.691   5.520  0.4535  0.6862  0.6105
   67MOL   O34137433   7.498   3.759   5.591 -0.4426 -0.6556  0.4298
   67MOL   C34237434   7.585   3.546   5.560  0.1484 -0.4177 -0.3367
   67MOL   C34337435   0.031   3.537   5.693 -0.6040 -0.1714 -0.7225
   67MOL   C34437436   0.040   3.396   5.753 -0.3978  0.3005 -0.3521
   67MOL   O34537437   0.130   3.402   5.867  0.1828 -0.1804  0.1049
   67MOL   C34637438   0.091   3.292   5.651  0.2244  0.4434 -0.3325
   67MOL   C34737439   0.079   3.141   5.708  0.7330 -0.2454 -0.1424
   67MOL   C34837440   0.029   3.307   5.518  0.5463 -0.6659  0.0154
   67MOL   C34937441   0.034   3.453   5.460  0.4002  0.2753 -0.0835
   67MOL   H35037442   7.481   3.656   5.346 -0.6107  0.4170  0.0662
   67MOL   H35137443   7.523   3.818   5.361 -0.1597  1.1720  4.3797
   67MOL   H35237444   0.071   3.727   5.539  0.0789  1.7520  0.6629
   67MOL   H35337445   7.481   3.843   5.551 -2.5317 -0.8504  0.8626
   67MOL   H35437446   7.480   3.520   5.566  0.2807 -1.1140 -1.0163
   67MOL   H35537447   0.131   3.580   5.689  0.0601 -1.4858  1.4174
   67MOL   H35637448   7.600   3.600   5.757  0.2271  0.4524 -0.5420
   67MOL   H35737449   7.574   3.354   5.786  0.8966 -2.9040 -0.4428
   67MOL   H35837450   0.088   3.459   5.930  1.1722  2.0149 -1.1637
   67MOL   H35937451   0.195   3.313   5.627  1.3249 -1.8539  2.1637
   67MOL   H36037452   0.127   3.130   5.805 -1.3451  1.9411  1.1967
   67MOL   H36137453   7.606   3.110   5.732  0.3337  2.3663  1.6952
   67MOL   H36237454   7.551   3.291   5.526  0.4588 -0.4586 -0.6534
   67MOL   H36337455   0.069   3.238   5.444  0.2179  0.3797 -1.1615
   67MOL   H36437456   7.616   3.459   5.362  2.2147 -1.1091 -1.0763
   67MOL   H36537457   0.138   3.481   5.445  0.7343 -1.5435 -1.2343
   67MOL   O36637458   0.125   3.053   5.605  0.2499  0.0546  0.1331
   67MOL   C36737459   0.267   3.029   5.621 -0.5676  0.5095 -0.8272
   67MOL   C36837460   0.296   2.882   5.594 -0.1371 -0.6563 -0.3685
   67MOL   O36937461   0.297   2.865   5.456  0.4718 -0.3141 -0.0674
   67MOL   C37037462   0.436   2.832   5.647 -0.2270 -0.3611  0.0974
   67MOL   C37137463   0.441   2.678   5.623 -0.2288  0.2655  0.3340
   67MOL   C37237464   0.570   2.603   5.658  0.3415 -0.2209  0.2405
   67MOL   O37337465   0.545   2.466   5.626  0.3500 -0.1277  0.3614
   67MOL   C37437466   0.584   2.618   5.807 -0.8321 -0.5994  0.4390
   67MOL   C37537467   0.708   2.548   5.853 -0.2027  0.5165 -0.3753
   67MOL   C37637468   0.594   2.769   5.846 -0.6132 -0.4508 -0.4070
   67MOL   C37737469   0.470   2.843   5.797 -0.4502 -1.1126  0.1700
   67MOL   H37837470   0.305   3.055   5.720 -1.1973 -1.1315 -0.1488
   67MOL   H37937471   0.331   3.082   5.550  0.5183 -0.3433 -0.4857
   67MOL   H38037472   0.215   2.819   5.631 -0.1480  1.3327  3.1308
   67MOL   H38137473   0.213   2.898   5.427  0.0048 -1.0970  0.3548
   67MOL   H38237474   0.515   2.888   5.596 -0.3621  0.3262  0.6430
   67MOL   H38337475   0.356   2.626   5.667 -1.8714  0.5191 -2.4770
   67MOL   H38437476   0.419   2.660   5.518  0.9480  0.6451  0.0062
   67MOL   H38537477   0.659   2.643   5.610  1.7013 -0.3288  2.6036
   67MOL   H38637478   0.575   2.408   5.694  0.0237  3.1937  3.4507
   67MOL   H38737479   0.503   2.574   5.864 -1.2409 -1.5202 -0.8226
   67MOL   H38837480   0.711   2.441   5.830 -0.0282  0.6873 -1.1461
   67MOL   H38937481   0.805   2.579   5.816 -0.3415 -0.2984 -1.4298
   67MOL   H39037482   0.684   2.806   5.797  0.9927 -1.7189  1.4468
   67MOL   H39137483   0.617   2.775   5.953 -0.0124 -1.1183 -0.4914
   67MOL   H39237484   0.489   2.947   5.827 -0.3946 -0.6737 -1.3302
   67MOL   H39337485   0.378   2.815   5.848 -2.7727  2.6983 -1.6667
   67MOL   O39437486   0.704   2.564   5.992 -0.0285 -0.1312  0.1697
   67MOL   C39537487   0.811   2.519   6.075  0.8953  0.5933  0.0212
   67MOL   C39637488   0.788   2.603   6.204 -0.3844 -0.2009  0.1690
   67MOL   O39737489   0.670   2.553   6.260  0.1793 -0.4045 -0.6125
   67MOL   C39837490   0.899   2.585   6.308  0.0164 -0.6579  0.1008
   67MOL   C39937491   0.909   2.453   6.387 -0.0604 -0.2328 -0.5409
   67MOL   C40037492   1.035   2.463   6.468 -0.3612  0.7464  0.2227
   67MOL   O40137493   1.041   2.346   6.545  0.2327  0.0572 -0.1482
   67MOL   C40237494   1.054   2.585   6.557  0.2410 -0.1389  0.2096
   67MOL   C40337495   1.193   2.599   6.619 -0.9981  0.3779 -0.2401
   67MOL   C40437496   1.028   2.718   6.480  0.0553  0.0585  0.2813
   67MOL   C40537497   0.898   2.711   6.397 -0.1360  0.7239 -0.3602
   67MOL   H40637498   0.902   2.549   6.023  1.4762  0.5999  1.0229
   67MOL   H40737499   0.816   2.411   6.089 -2.2489  0.5679  1.4359
   67MOL   H40837500   0.777   2.709   6.180 -1.2206 -0.6783 -1.6097
   67MOL   H40937501   0.598   2.562   6.198  0.5288  0.3519 -0.9197
   67MOL   H41037502   0.992   2.596   6.252 -0.4958  2.2235 -0.2799
   67MOL   H41137503   0.821   2.428   6.447 -0.5347  0.8134 -0.7853
   67MOL   H41237504   0.902   2.372   6.315 -0.9658  0.4134 -1.2033
   67MOL   H41337505   1.124   2.470   6.406  0.0411  3.6753  1.0414
   67MOL   H41437506   0.992   2.361   6.624  1.6859 -1.0738  0.9792
   67MOL   H41537507   0.975   2.574   6.632  1.3683 -1.1281  1.2683
   67MOL   H41637508   1.213   2.495   6.641 -0.1953  0.4162 -0.7598
   67MOL   H41737509   1.265   2.642   6.549 -1.2271  1.8284  0.3847
   67MOL   H41837510   1.116   2.743   6.421  0.4116 -3.4918 -0.8154
   67MOL   H41937511   1.016   2.798   6.552 -1.6168 -0.8094  0.9885
   67MOL   H42037512   0.868   2.806   6.352 -1.4337 -0.2594 -1.6274
   67MOL   H42137513   0.819   2.696   6.470  1.0706 -4.1339  0.1059
   67MOL   O42237514   1.187   2.671   6.743 -0.1260  0.1311 -0.3619
   67MOL   C42337515   1.300   2.631   6.828  0.0814 -0.3050  0.1185
   67MOL   C42437516   1.279   2.660   6.975 -0.0652  0.1042 -0.9092
   67MOL   O42537517   1.279   2.793   7.008 -0.0686 -0.8439 -0.1642
   67MOL   C42637518   1.172   2.565   7.044  0.3024 -0.9989  0.3690
   67MOL   C42737519   1.200   2.538   7.195 -0.1456 -0.2214 -0.3426
   67MOL   C42837520   1.082   2.443   7.249 -0.3783  0.3929 -0.2913
   67MOL   O42937521   1.111   2.423   7.387  0.1487 -0.0318 -0.1218
   67MOL   C43037522   1.060   2.313   7.171 -0.6410  1.3274 -0.2363
   67MOL   C43137523   0.962   2.209   7.229  1.2286 -0.8470 -0.4549
   67MOL   C43237524   1.031   2.355   7.028 -0.4692  0.5694 -0.0166
   67MOL   C43337525   1.147   2.433   6.973 -0.3295  0.6037 -0.0338
   67MOL   H43437526   1.394   2.682   6.804 -0.1794 -0.6159 -1.6275
   67MOL   H43537527   1.334   2.528   6.820 -0.7714 -0.4453 -2.0562
   67MOL   H43637528   1.366   2.619   7.025 -1.7299  1.1685  3.0240
   67MOL   H43737529   1.367   2.824   6.992 -0.4077 -0.0874 -0.6217
   67MOL   H43837530   1.073   2.607   7.027 -0.5505 -2.5996  1.1880
   67MOL   H43937531   1.296   2.489   7.206  1.5408  2.9952 -0.1545
   67MOL   H44037532   1.210   2.624   7.261 -1.1952 -1.2724  1.2425
   67MOL   H44137533   0.990   2.502   7.238 -0.8223 -0.0682  0.8591
   67MOL   H44237534   1.054   2.482   7.435 -0.3745 -1.0808  0.5493
   67MOL   H44337535   1.159   2.267   7.160 -1.9272 -1.6894  0.3167
   67MOL   H44437536   0.987   2.194   7.334  3.3155  0.1898 -0.7792
   67MOL   H44537537   0.862   2.252   7.221  1.8856  0.8720  0.2678
   67MOL   H44637538   0.943   2.417   7.046 -0.2788  1.0852 -0.8541
   67MOL   H44737539   0.992   2.278   6.962  1.5763  2.1563 -3.2160
   67MOL   H44837540   1.131   2.439   6.866  2.6747 -2.1037 -0.7343
   67MOL   H44937541   1.239   2.374   6.973 -1.3486 -1.0424  0.6361
   67MOL   O45037542   0.977   2.098   7.146 -0.1011 -0.3200  0.2334
   67MOL   C45137543   1.077   2.006   7.185 -0.4682  0.3611  0.6820
   67MOL   C45237544   1.091   1.922   7.062 -0.5330 -0.4598  0.0764
   67MOL   O45337545   0.978   1.838   7.044  0.7991  0.0157  0.2090
   67MOL   C45437546   1.116   1.989   6.923 -0.3975 -0.4575 -0.2255
   67MOL   C45537547   1.116   1.890   6.805 -0.7670 -0.1456  0.5163
   67MOL   C45637548   1.153   1.955   6.669  0.0930  0.0610  0.0117
   67MOL   O45737549   1.168   1.862   6.565  0.4444  0.2815 -0.0242
   67MOL   C45837550   1.280   2.045   6.682  0.4627 -0.9590 -0.3181
   67MOL   C45937551   1.313   2.123   6.549  0.1942  1.0217 -0.4671
   67MOL   C46037552   1.264   2.146   6.795  0.0659  0.5484 -0.4171
   67MOL   C46137553   1.237   2.070   6.931  0.1330  0.4475  0.1739
   67MOL   H46237554   1.038   1.950   7.270 -0.7805 -1.0161 -0.3438
   67MOL   H46337555   1.167   2.057   7.218  0.0213 -1.2292  1.8848
   67MOL   H46437556   1.173   1.852   7.079 -0.6347  0.1431  3.5503
   67MOL   H46537557   0.901   1.892   7.035 -1.0036 -2.6610 -1.1092
   67MOL   H46637558   1.028   2.048   6.900  0.0127 -0.3282 -1.5555
   67MOL   H46737559   1.186   1.812   6.834 -2.1644 -0.5446  2.9591
   67MOL   H46837560   1.020   1.839   6.798 -1.7341  1.7748 -0.7052
   67MOL   H46937561   1.064   2.014   6.645 -1.4192 -1.6776  1.2230
   67MOL   H47037562   1.246   1.811   6.582  0.9258  1.1210  0.2910
   67MOL   H47137563   1.364   1.983   6.711 -0.1890 -1.1224  1.2445
   67MOL   H47237564   1.319   2.049   6.469  0.8917  0.7320 -0.1547
   67MOL   H47337565   1.238   2.193   6.512 -2.2737 -1.9442 -1.1922
   67MOL   H47437566   1.185   2.217   6.768  1.0815  1.6502 -0.5624
   67MOL   H47537567   1.352   2.210   6.805 -0.5805  1.2829  0.6829
   67MOL   H47637568   1.230   2.146   7.009 -0.4601  0.0162  0.5483
   67MOL   H47737569   1.321   2.008   6.964 -0.5717 -0.6284 -0.0020
   67MOL   O47837570   1.452   2.169   6.562 -0.5332 -0.1249 -0.5186
   67MOL   C47937571   1.473   2.264   6.461 -0.4342 -0.7370 -0.7334
   67MOL   C48037572   1.605   2.340   6.474 -0.0737  0.1672  0.3003
   67MOL   O48137573   1.592   2.402   6.596  0.5479 -0.8543 -0.0865
   67MOL   C48237574   1.744   2.268   6.461 -0.8270 -0.3005  1.1617
   67MOL   C48337575   1.861   2.367   6.490 -0.5054  0.4407  0.1478
   67MOL   C48437576   1.991   2.291   6.464  0.4701 -0.4041  0.1556
   67MOL   O48537577   2.090   2.386   6.486  0.0732  0.3822 -0.3150
   67MOL   C48637578   2.012   2.230   6.325 -0.2412 -0.2250 -0.5086
   67MOL   C48737579   2.148   2.156   6.312 -0.9632 -0.1110  0.0918
   67MOL   C48837580   1.895   2.143   6.294 -0.0776  0.0964  0.0306
   67MOL   C48937581   1.763   2.220   6.318 -0.0176 -0.0749  0.6800
   67MOL   H49037582   1.390   2.336   6.464  0.9717  0.9282 -0.8709
   67MOL   H49137583   1.474   2.220   6.362 -1.1553 -1.8739 -0.2450
   67MOL   H49237584   1.593   2.426   6.407  2.3095  0.8786  0.7649
   67MOL   H49337585   1.547   2.334   6.645 -2.0000  0.3023 -0.7680
   67MOL   H49437586   1.746   2.182   6.529 -0.2704 -0.4466  0.9624
   67MOL   H49537587   1.840   2.455   6.430  0.2916  0.5033 -0.0471
   67MOL   H49637588   1.857   2.391   6.596 -1.5643  0.5711  0.0811
   67MOL   H49737589   2.001   2.214   6.540  0.8349 -0.4961  0.0128
   67MOL   H49837590   2.133   2.367   6.568 -0.0539  0.2491 -0.2800
   67MOL   H49937591   2.019   2.322   6.267  1.1180 -0.7819 -1.2297
   67MOL   H50037592   2.234   2.223   6.323 -0.7122 -0.9654  3.8887
   67MOL   H50137593   2.177   2.080   6.385 -0.0972  1.1111  1.0465
   67MOL   H50237594   1.898   2.044   6.340  0.3922  0.6067  1.1036
   67MOL   H50337595   1.904   2.121   6.188 -1.0032  1.8588 -0.4219
   67MOL   H50437596   1.682   2.159   6.280 -1.4477  2.5001 -0.5829
   67MOL   H50537597   1.762   2.313   6.261 -1.7773 -0.0676  0.6957
   67MOL   O50637598   2.151   2.107   6.180  0.6301 -0.3763 -0.1397
   67MOL   C50737599   2.265   2.046   6.119 -0.5140  0.0227  0.1279
   67MOL   C50837600   2.386   2.146   6.111  0.0639 -0.1346 -0.0733
   67MOL   O50937601   2.455   2.124   6.237  0.2566 -0.0476 -0.2524
   67MOL   C51037602   2.483   2.109   5.998 -0.2082  0.1499 -0.0298
   67MOL   C51137603   2.545   1.973   6.016  0.0465 -0.2448 -0.1295
   67MOL   C51237604   2.641   1.936   5.902  0.0205 -0.7970 -0.6552
   67MOL   O51337605   2.676   1.807   5.906 -0.3732 -0.5570 -0.7852
   67MOL   C51437606   2.755   2.031   5.886 -0.2333 -0.4407  0.2037
   67MOL   C51537607   2.852   1.985   5.780 -0.2488  0.4527 -0.1647
   67MOL   C51637608   2.699   2.178   5.876 -0.1689 -0.3758  0.1446
   67MOL   C51737609   2.599   2.212   5.993 -0.3579  0.0771 -0.3294
   67MOL   H51837610   2.238   2.025   6.015 -0.9977  2.0039 -0.1783
   67MOL   H51937611   2.285   1.954   6.172  3.1551  0.0018 -1.1855
   67MOL   H52037612   2.362   2.252   6.103  0.7882  0.3281  3.0194
   67MOL   H52137613   2.500   2.202   6.264 -0.7441  0.3472  0.3044
   67MOL   H52237614   2.429   2.103   5.904  1.8062 -2.2112 -1.0910
   67MOL   H52337615   2.604   1.961   6.108  0.5646 -3.5515 -0.8269
   67MOL   H52437616   2.460   1.905   6.021 -0.0735 -0.1033 -0.2679
   67MOL   H52537617   2.583   1.948   5.810  1.1474  0.0878 -1.2575
   67MOL   H52637618   2.770   1.800   5.915 -0.4539 -0.3514  0.3779
   67MOL   H52737619   2.812   2.022   5.978  0.8437 -0.5353 -0.4726
   67MOL   H52837620   2.820   1.952   5.681  1.1814 -3.4290  0.5607
   67MOL   H52937621   2.923   2.065   5.757 -0.4423  1.1367  1.5272
   67MOL   H53037622   2.643   2.191   5.784 -2.4818 -1.8530  1.2822
   67MOL   H53137623   2.788   2.240   5.871  0.3453 -1.1980 -1.1779
   67MOL   H53237624   2.552   2.310   5.986 -0.4022  0.0712 -0.1124
   67MOL   H53337625   2.661   2.221   6.082  1.6021  0.7244 -1.7175
   67MOL   O53437626   2.915   1.866   5.832  0.1399 -0.2740  0.3462
   67MOL   C53537627   3.060   1.859   5.810 -0.2125 -0.9142 -1.4389
   67MOL   C53637628   3.124   1.732   5.859 -0.4831  0.2595  0.3532
   67MOL   O53737629   3.247   1.722   5.787 -0.1770  0.3615  0.6080
   67MOL   C53837630   3.159   1.731   6.010 -0.7308 -0.4048 -0.1117
   67MOL   C53937631   3.261   1.621   6.053 -0.5472 -0.5100  0.5831
   67MOL   C54037632   3.278   1.606   6.206 -0.3991  0.4904 -0.7350
   67MOL   O54137633   3.374   1.502   6.224  0.2778  0.2898 -0.1963
   67MOL   C54237634   3.139   1.560   6.267  0.2462 -0.3726  0.1077
   67MOL   C54337635   3.147   1.519   6.419  0.1589  0.3846  0.0776
   67MOL   C54437636   3.041   1.672   6.238  0.1126  0.0006  0.3511
   67MOL   C54537637   3.024   1.699   6.087 -0.4844  0.7032 -0.4136
   67MOL   H54637638   3.118   1.937   5.859  0.4143 -1.4076 -1.3855
   67MOL   H54737639   3.086   1.878   5.707 -1.0866 -0.2154 -1.5387
   67MOL   H54837640   3.072   1.643   5.824  0.5188  0.7674 -2.5937
   67MOL   H54937641   3.220   1.721   5.696  2.5882 -1.2872 -0.2553
   67MOL   H55037642   3.184   1.833   6.041  1.0451 -0.5073 -1.1147
   67MOL   H55137643   3.234   1.527   6.006  0.8468 -0.3179 -0.6590
   67MOL   H55237644   3.358   1.646   6.008 -1.7821  0.3889 -1.6642
   67MOL   H55337645   3.318   1.697   6.250  1.3438 -1.2398  1.4334
   67MOL   H55437646   3.341   1.436   6.165 -0.6079 -2.6371  3.3889
   67MOL   H55537647   3.104   1.467   6.223 -0.0656 -1.3506  2.3512
   67MOL   H55637648   3.214   1.434   6.431 -0.5308  0.0527  1.6951
   67MOL   H55737649   3.188   1.597   6.483 -0.9213 -0.3852  1.7305
   67MOL   H55837650   3.071   1.764   6.288 -1.5329  0.2832  0.8827
   67MOL   H55937651   2.948   1.656   6.293  0.0260 -1.7057 -0.2653
   67MOL   H56037652   2.957   1.781   6.062 -2.8046 -0.6246  1.2105
   67MOL   H56137653   2.974   1.610   6.047  0.2723  1.2577 -2.6565
   67MOL   H56237654   3.055   1.499   6.473  0.5983 -0.3313  0.5693
   68MOL     O137655   7.136   2.422   4.888 -0.0283  0.6165 -0.2978
   68MOL     C237656   7.006   2.360   4.916  0.0328 -0.1299  0.1498
   68MOL     C337657   6.917   2.389   4.804 -0.6601  1.0202 -0.9135
   68MOL     O437658   6.992   2.354   4.690  0.7246  0.7078 -0.8474
   68MOL     C537659   6.779   2.321   4.821 -0.1383 -0.2005 -0.0856
   68MOL     C637660   6.723   2.274   4.681  0.0745  0.7533  0.2569
   68MOL     C737661   6.580   2.214   4.685 -0.6350  0.1065 -0.1477
   68MOL     O837662   6.533   2.210   4.554  0.2104  0.1110  0.6392
   68MOL     C937663   6.479   2.289   4.777 -0.6046 -0.4154  0.4397
   68MOL    C1037664   6.342   2.215   4.798 -0.1064  0.1006  0.2581
   68MOL    C1137665   6.550   2.332   4.910 -1.0677 -0.3677 -0.7154
   68MOL    C1237666   6.681   2.404   4.891 -0.5270 -1.2559 -0.2828
   68MOL    H1337667   6.960   2.395   5.008 -0.2034 -2.9857  1.1501
   68MOL    H1437668   7.022   2.252   4.918  0.1805 -0.1223 -0.5344
   68MOL    H1537669   6.889   2.495   4.802 -0.9190  1.0125  1.1363
   68MOL    H1637670   6.946   2.377   4.611 -4.0734 -1.8374  1.0067
   68MOL    H1737671   6.788   2.227   4.876  1.3713 -2.2528 -3.6477
   68MOL    H1837672   6.724   2.356   4.609 -1.5017  1.1693  0.6926
   68MOL    H1937673   6.786   2.192   4.645 -1.5944  0.5791 -2.3896
   68MOL    H2037674   6.598   2.111   4.713 -1.3689 -0.5751 -2.0632
   68MOL    H2137675   6.466   2.144   4.543  0.7570 -0.2044 -0.9267
   68MOL    H2237676   6.437   2.379   4.732 -1.3690 -1.8803 -1.7934
   68MOL    H2337677   6.295   2.197   4.702 -1.1674  2.1476  0.3550
   68MOL    H2437678   6.350   2.126   4.860  0.2785 -0.2923 -0.3572
   68MOL    H2537679   6.572   2.242   4.966  1.2683  0.7134  0.1915
   68MOL    H2637680   6.477   2.388   4.970  0.7087  0.5223  0.6550
   68MOL    H2737681   6.717   2.430   4.991  0.0043 -1.3577 -0.4439
   68MOL    H2837682   6.656   2.498   4.843  1.5442 -1.2045 -1.3400
   68MOL    H2937683   7.165   2.398   4.801  0.4277 -0.3247  0.1043
   68MOL    O3037684   6.253   2.295   4.881 -0.8275 -0.3616  0.6510
   68MOL    C3137685   6.156   2.231   4.955  0.5644 -0.1083  0.5517
   68MOL    C3237686   6.032   2.319   4.965  0.0155 -0.1808  0.0097
   68MOL    O3337687   5.933   2.227   5.012  0.2586  0.5267 -0.0386
   68MOL    C3437688   6.039   2.431   5.072  0.0365 -0.8682 -0.4050
   68MOL    C3537689   5.905   2.499   5.116  0.1317  0.2383  0.7956
   68MOL    C3637690   5.920   2.597   5.226  0.3455  0.2265  0.0069
   68MOL    O3737691   5.788   2.623   5.263 -0.0652 -0.4211 -0.6586
   68MOL    C3837692   5.997   2.717   5.171 -0.1807  0.5116  0.3959
   68MOL    C3937693   6.014   2.830   5.272 -0.0549  1.1427 -0.4201
   68MOL    C4037694   6.136   2.658   5.122  0.0433 -0.0005  0.7669
   68MOL    C4137695   6.129   2.549   5.014  0.7147 -0.3469 -0.5249
   68MOL    H4237696   6.189   2.196   5.053  0.2804 -2.1316 -0.0740
   68MOL    H4337697   6.119   2.143   4.903  0.6370 -0.3230  0.8669
   68MOL    H4437698   5.984   2.347   4.871 -0.5386  0.1062  0.3765
   68MOL    H4537699   5.847   2.265   5.000 -0.0428 -0.3092 -0.5813
   68MOL    H4637700   6.085   2.389   5.161 -0.3108  0.1736  0.2724
   68MOL    H4737701   5.867   2.550   5.027  0.2072 -0.2529  0.4841
   68MOL    H4837702   5.826   2.426   5.135 -0.0194 -0.3286 -1.7355
   68MOL    H4937703   5.980   2.552   5.305 -1.4396  0.5551  1.5804
   68MOL    H5037704   5.757   2.553   5.319 -1.1136  0.9709  0.5708
   68MOL    H5137705   5.938   2.752   5.086 -1.9548 -1.3936  0.7952
   68MOL    H5237706   6.032   2.932   5.237  0.6727  2.1333  2.6646
   68MOL    H5337707   5.919   2.844   5.323 -0.9279 -0.6200 -1.5131
   68MOL    H5437708   6.187   2.615   5.208  0.3921 -1.5459 -0.1797
   68MOL    H5537709   6.200   2.739   5.087  1.0679 -0.8594  0.6191
   68MOL    H5637710   6.226   2.507   4.989  0.6031 -0.5418 -0.6278
   68MOL    H5737711   6.084   2.585   4.922 -0.3473 -0.5408 -0.0945
   68MOL    O5837712   6.115   2.780   5.359 -0.1635  0.1096 -0.0332
   68MOL    C5937713   6.131   2.836   5.485 -0.5257  0.4802 -0.3361
   68MOL    C6037714   6.053   2.747   5.587  0.6926 -0.4542 -0.0227
   68MOL    O6137715   6.131   2.627   5.595  0.3940 -0.0992  0.2275
   68MOL    C6237716   6.038   2.815   5.729  0.1248  0.2935 -0.2248
   68MOL    C6337717   6.006   2.711   5.843 -0.0500 -0.8869  0.3699
   68MOL    C6437718   5.994   2.776   5.985 -0.0974 -0.3567  0.1045
   68MOL    O6537719   5.960   2.675   6.075 -0.6325  0.0886 -0.9142
   68MOL    C6637720   5.884   2.884   5.983 -0.1352 -0.2218  1.1211
   68MOL    C6737721   5.860   2.948   6.117  0.6748 -0.3443 -0.5500
   68MOL    C6837722   5.897   2.984   5.867  0.1167 -0.4290 -0.0979
   68MOL    C6937723   5.932   2.926   5.729  0.7211  0.2492  0.2721
   68MOL    H7037724   6.093   2.937   5.482 -0.4035  0.4732 -4.2884
   68MOL    H7137725   6.230   2.831   5.532 -1.3215  2.2584  1.5736
   68MOL    H7237726   5.952   2.717   5.558 -0.2051  0.4903  2.0327
   68MOL    H7337727   6.222   2.651   5.599  0.5318 -0.3281 -1.2495
   68MOL    H7437728   6.134   2.861   5.751 -1.2925  3.6192 -0.7616
   68MOL    H7537729   5.911   2.663   5.819 -0.8491  0.3820  0.9328
   68MOL    H7637730   6.080   2.631   5.848 -1.6690 -2.3619  1.3590
   68MOL    H7737731   6.090   2.823   6.009 -0.3073 -0.6411  1.5440
   68MOL    H7837732   5.951   2.720   6.158 -0.8861  0.0426 -0.9171
   68MOL    H7937733   5.792   2.828   5.964 -0.9149  1.4894 -0.3452
   68MOL    H8037734   5.815   3.046   6.099 -0.6323 -0.3221  2.5615
   68MOL    H8137735   5.784   2.892   6.172 -0.7744  1.3582 -0.7603
   68MOL    H8237736   5.984   3.041   5.898 -0.1213 -0.7688  1.2010
   68MOL    H8337737   5.806   3.045   5.864  0.5358  0.6469  4.6555
   68MOL    H8437738   5.949   3.006   5.657  0.5320 -1.5582 -1.8317
   68MOL    H8537739   5.846   2.875   5.686  0.3930 -0.1533  1.3813
   68MOL    O8637740   5.976   2.953   6.196 -0.5786  0.3724  0.1250
   68MOL    C8737741   5.952   3.020   6.322 -0.2227  0.4121  0.2300
   68MOL    C8837742   6.076   3.003   6.413 -0.0363  0.1287  0.4598
   68MOL    O8937743   6.053   3.084   6.524 -0.1026 -0.5001  0.2582
   68MOL    C9037744   6.117   2.860   6.465  0.3296  0.5413 -0.2048
   68MOL    C9137745   6.244   2.865   6.548 -0.4497 -0.1551  0.0139
   68MOL    C9237746   6.283   2.724   6.595 -0.9210  0.6798  0.2039
   68MOL    O9337747   6.407   2.743   6.660  0.3640  0.3783  0.7834
   68MOL    C9437748   6.299   2.621   6.486  0.4301  0.2758  0.7744
   68MOL    C9537749   6.312   2.478   6.551  0.1285 -0.4418 -0.0107
   68MOL    C9637750   6.176   2.615   6.399  0.4001 -0.3041  0.2311
   68MOL    C9737751   6.140   2.759   6.354 -0.5742  0.6983  0.8414
   68MOL    H9837752   5.866   2.979   6.374  0.5267 -1.7017 -0.1814
   68MOL    H9937753   5.913   3.121   6.308  1.5026  0.9866 -0.6101
   68MOL   H10037754   6.167   3.040   6.365  0.2706 -0.0702  0.8760
   68MOL   H10137755   6.098   3.164   6.502 -2.2549  0.6962  0.0625
   68MOL   H10237756   6.035   2.820   6.525  0.7301  1.0043  0.6456
   68MOL   H10337757   6.329   2.899   6.489  0.9448 -1.3106  1.3328
   68MOL   H10437758   6.236   2.936   6.630 -2.2943 -0.9869  0.5787
   68MOL   H10537759   6.212   2.689   6.670 -0.5659 -1.6740 -0.5002
   68MOL   H10637760   6.463   2.770   6.589 -0.6531 -1.5211 -0.8030
   68MOL   H10737761   6.387   2.636   6.423  2.0925 -0.2070  2.9416
   68MOL   H10837762   6.389   2.474   6.628  0.2308 -0.3314 -0.1071
   68MOL   H10937763   6.222   2.455   6.608 -2.3017  1.3321 -3.0064
   68MOL   H11037764   6.090   2.576   6.453 -0.3051 -0.0178 -0.6840
   68MOL   H11137765   6.184   2.543   6.317 -1.1685  1.2318 -1.3170
   68MOL   H11237766   6.052   2.758   6.289  1.3736 -0.8557 -1.8464
   68MOL   H11337767   6.210   2.802   6.282 -0.9229  1.5320  0.9898
   68MOL   O11437768   6.341   2.383   6.448 -0.0723  0.2955 -0.1913
   68MOL   C11537769   6.336   2.248   6.491  0.7025 -0.4954 -0.1570
   68MOL   C11637770   6.448   2.187   6.580  0.1356  0.1152  0.2569
   68MOL   O11737771   6.395   2.079   6.640 -0.3134 -0.0283  0.2898
   68MOL   C11837772   6.574   2.155   6.503  0.2786  0.5343  0.4642
   68MOL   C11937773   6.681   2.098   6.595  0.1523 -0.4757 -1.0019
   68MOL   C12037774   6.807   2.062   6.515  0.2730  0.5163 -0.5717
   68MOL   O12137775   6.887   2.011   6.621  0.1190  0.5994  0.2571
   68MOL   C12237776   6.872   2.182   6.448  0.0127 -0.2922 -0.0332
   68MOL   C12337777   7.000   2.141   6.376 -0.2541 -0.0357 -0.4637
   68MOL   C12437778   6.765   2.243   6.355 -0.0821  0.1158  0.2577
   68MOL   C12537779   6.636   2.279   6.432  0.3983  0.0502 -0.5215
   68MOL   H12637780   6.333   2.183   6.404  0.7561 -0.2099 -0.3714
   68MOL   H12737781   6.234   2.238   6.527  0.6587  3.5465  1.1875
   68MOL   H12837782   6.472   2.261   6.657  1.6365  0.3702 -0.4391
   68MOL   H12937783   6.329   2.114   6.698  0.0710 -0.7437  1.1603
   68MOL   H13037784   6.549   2.085   6.424 -0.1713  0.6922  0.4654
   68MOL   H13137785   6.707   2.173   6.669 -5.1228  0.8432 -0.2670
   68MOL   H13237786   6.642   2.008   6.643  0.1776  0.7474  1.3310
   68MOL   H13337787   6.791   1.980   6.445  2.0792 -0.0248 -0.3851
   68MOL   H13437788   6.845   1.949   6.679  0.1800  0.8760  0.6047
   68MOL   H13537789   6.893   2.255   6.527 -0.0248 -0.4010  0.0758
   68MOL   H13637790   7.063   2.087   6.447  0.1028 -0.5979 -1.1955
   68MOL   H13737791   6.974   2.068   6.299 -2.7924 -0.6028  0.9069
   68MOL   H13837792   6.755   2.169   6.276  0.5367 -1.0797  1.2718
   68MOL   H13937793   6.813   2.332   6.315  1.7771 -0.7373  0.5402
   68MOL   H14037794   6.569   2.335   6.366 -0.4467 -0.6635 -0.2685
   68MOL   H14137795   6.664   2.360   6.500  0.9877 -2.1234  1.8630
   68MOL   O14237796   7.046   2.264   6.308 -0.9872  0.8288 -0.1694
   68MOL   C14337797   7.184   2.287   6.308 -0.3948  0.0846 -0.1548
   68MOL   C14437798   7.225   2.396   6.211  0.6497 -0.1573  0.2323
   68MOL   O14537799   7.199   2.341   6.084 -0.3540  0.4372 -0.0437
   68MOL   C14637800   7.151   2.532   6.206  0.6097 -0.2837  0.3185
   68MOL   C14737801   7.216   2.636   6.120  0.2357 -0.3839 -0.2887
   68MOL   C14837802   7.128   2.766   6.127  0.2945 -0.3306 -0.1449
   68MOL   O14937803   7.175   2.852   6.030 -0.3458  0.6760 -0.4392
   68MOL   C15037804   7.131   2.829   6.264  0.6900 -0.0372  0.0190
   68MOL   C15137805   7.037   2.953   6.268  0.4772 -0.2421 -0.1547
   68MOL   C15237806   7.072   2.726   6.361 -0.7566 -0.3286  0.2475
   68MOL   C15337807   7.142   2.590   6.353  0.3545  0.6415 -0.1355
   68MOL   H15437808   7.236   2.197   6.276  1.2265  0.4870  1.2392
   68MOL   H15537809   7.215   2.308   6.411 -1.8968  2.5672 -0.1700
   68MOL   H15637810   7.327   2.428   6.232 -0.0867  0.5577  2.8773
   68MOL   H15737811   7.205   2.247   6.088  1.5949  0.4354 -1.6816
   68MOL   H15837812   7.053   2.505   6.168  0.7092 -2.2903  1.3964
   68MOL   H15937813   7.319   2.641   6.155 -0.2963 -0.7254  1.3790
   68MOL   H16037814   7.218   2.606   6.015  1.1143 -2.1459  0.1978
   68MOL   H16137815   7.022   2.752   6.106 -0.0337  1.7317  0.0505
   68MOL   H16237816   7.145   2.826   5.945  0.7160  1.7401 -1.1593
   68MOL   H16337817   7.226   2.868   6.301 -0.2364  0.9978  1.3806
   68MOL   H16437818   7.066   3.023   6.190  1.8239 -1.4000 -0.7304
   68MOL   H16537819   6.938   2.915   6.245 -0.3971  1.2524  1.1037
   68MOL   H16637820   6.965   2.715   6.339 -0.5632 -2.0625  0.0947
   68MOL   H16737821   7.066   2.757   6.465  0.7775  2.3762 -0.4304
   68MOL   H16837822   7.082   2.530   6.421  2.2154  0.5223  1.4401
   68MOL   H16937823   7.236   2.598   6.406 -0.5382  0.1321  1.5606
   68MOL   O17037824   7.028   3.017   6.392  0.7203 -0.5602  0.5219
   68MOL   C17137825   7.125   3.122   6.414 -0.5922 -0.3276 -0.5717
   68MOL   C17237826   7.115   3.163   6.561  0.0964  0.3264  0.3196
   68MOL   O17337827   6.984   3.203   6.578  0.5125  0.1474 -0.3050
   68MOL   C17437828   7.163   3.047   6.659 -0.7425  0.1041  0.7935
   68MOL   C17537829   7.160   3.093   6.804  0.7224  0.5465 -0.5631
   68MOL   C17637830   7.182   2.973   6.901  0.8660  0.1857 -0.0528
   68MOL   O17737831   7.152   3.009   7.035  0.3377 -0.2767  0.3756
   68MOL   C17837832   7.328   2.926   6.879 -0.4473 -0.0540  0.0819
   68MOL   C17937833   7.368   2.821   6.984  0.6515  0.5195 -0.0331
   68MOL   C18037834   7.347   2.886   6.730  0.1680  0.3008 -0.4250
   68MOL   C18137835   7.308   3.002   6.635  0.1136 -0.8982 -0.1585
   68MOL   H18237836   7.086   3.208   6.358 -0.7976  0.4210  0.7054
   68MOL   H18337837   7.226   3.100   6.379 -0.5818  0.8190 -1.3031
   68MOL   H18437838   7.176   3.251   6.580  1.9955 -0.7364 -0.7024
   68MOL   H18537839   6.936   3.148   6.518  0.1047 -1.4248  1.4483
   68MOL   H18637840   7.096   2.962   6.651 -1.5632  0.7659  0.5003
   68MOL   H18737841   7.240   3.166   6.819  0.8111 -0.0117  1.7562
   68MOL   H18837842   7.062   3.130   6.833 -0.0115  0.6140 -3.0221
   68MOL   H18937843   7.112   2.899   6.863  0.2034  1.8813 -2.2892
   68MOL   H19037844   7.205   3.085   7.054  1.1791  0.2276 -3.6274
   68MOL   H19137845   7.392   3.011   6.903 -0.0337 -0.3897  0.1694
   68MOL   H19237846   7.350   2.862   7.083  0.6866 -0.3842  0.3513
   68MOL   H19337847   7.310   2.729   6.972  2.2382 -0.7277  1.5969
   68MOL   H19437848   7.295   2.794   6.703 -0.1081 -0.0054  1.1439
   68MOL   H19537849   7.452   2.861   6.710 -0.4184 -2.1040 -0.7050
   68MOL   H19637850   7.318   2.967   6.532 -0.2454  0.2090 -0.5752
   68MOL   H19737851   7.374   3.087   6.654 -1.4584  0.7000 -1.6123
   68MOL   O19837852   7.508   2.806   6.967  0.0055 -0.3170 -0.4063
   68MOL   C19937853   7.557   2.718   7.067  0.1677  0.1689  0.6048
   68MOL   C20037854   0.083   2.747   7.071 -0.5868 -1.0259 -0.6099
   68MOL   O20137855   0.138   2.691   6.955  0.1160 -0.0999 -0.1846
   68MOL   C20237856   0.114   2.896   7.074 -0.3481 -0.4260  0.2903
   68MOL   C20337857   0.258   2.942   7.035  0.2661  0.5477 -0.7839
   68MOL   C20437858   0.279   3.095   7.053  0.2395  0.2178  0.3181
   68MOL   O20537859   0.413   3.138   7.024 -0.2035 -0.2858  0.1979
   68MOL   C20637860   0.238   3.140   7.193  0.5472 -0.1745 -0.8619
   68MOL   C20737861   0.294   3.278   7.239  0.0421  0.3287 -0.6297
   68MOL   C20837862   0.086   3.116   7.206 -0.7376 -0.1379  0.9447
   68MOL   C20937863   0.052   2.971   7.193 -0.2825 -0.0911  0.1510
   68MOL   H21037864   7.527   2.617   7.040 -0.4508  0.4546  0.2219
   68MOL   H21137865   7.500   2.743   7.156 -1.7262 -1.2737 -0.1788
   68MOL   H21237866   0.139   2.702   7.154  1.1221  0.8815 -0.6963
   68MOL   H21337867   0.076   2.711   6.886  0.4420  0.9456 -0.1816
   68MOL   H21437868   0.064   2.942   6.989 -0.4898 -1.0350  0.0432
   68MOL   H21537869   0.324   2.878   7.094 -1.0420  1.6661  1.9651
   68MOL   H21637870   0.275   2.917   6.930  0.2417 -1.0591 -0.4283
   68MOL   H21737871   0.223   3.149   6.976  4.4633  1.1423 -2.2775
   68MOL   H21837872   0.424   3.231   7.021 -0.6730 -0.2269  0.3738
   68MOL   H21937873   0.291   3.073   7.261  2.3625  1.3893 -0.7047
   68MOL   H22037874   0.261   3.318   7.335  0.6388  0.2806 -0.4058
   68MOL   H22137875   0.401   3.285   7.256  0.0850  1.5657 -1.3762
   68MOL   H22237876   0.040   3.175   7.127  0.4315 -0.0936  0.2776
   68MOL   H22337877   0.052   3.154   7.303  0.9154  1.4475  0.9482
   68MOL   H22437878   7.573   2.963   7.180 -0.3585  0.8776  0.1590
   68MOL   H22537879   0.077   2.915   7.283  0.3598  0.4064  0.2887
   68MOL   O22637880   0.245   3.378   7.140  0.3820  1.1691 -0.1421
   68MOL   C22737881   0.301   3.506   7.152  0.2140  0.2682 -0.4866
   68MOL   C22837882   0.222   3.582   7.042  0.3735  0.0787  0.4428
   68MOL   O22937883   0.084   3.595   7.082  0.1347 -0.1767 -0.1125
   68MOL   C23037884   0.283   3.721   6.998  0.4390  1.2347  0.3936
   68MOL   C23137885   0.262   3.810   7.123  0.2049  0.0295  0.1789
   68MOL   C23237886   0.295   3.957   7.096 -0.2170  0.6920  1.1288
   68MOL   O23337887   0.261   4.042   7.201  0.3402  0.1578  0.1380
   68MOL   C23437888   0.214   4.002   6.970 -0.2023 -0.4290 -0.3041
   68MOL   C23537889   0.251   4.142   6.930  0.4547  0.7624 -0.4033
   68MOL   C23637890   0.244   3.914   6.850  0.0800  0.5463 -0.5934
   68MOL   C23737891   0.204   3.771   6.878  0.2507  0.3712  0.7259
   68MOL   H23837892   0.408   3.495   7.136 -0.0270 -0.7136 -1.4878
   68MOL   H23937893   0.289   3.551   7.250 -0.7012 -1.4284  0.2031
   68MOL   H24037894   0.214   3.517   6.954  0.6805 -1.1611  1.3053
   68MOL   H24137895   0.049   3.516   7.118 -0.4895  0.2840  0.2949
   68MOL   H24237896   0.386   3.707   6.966  0.3471 -3.2472  1.6721
   68MOL   H24337897   0.163   3.813   7.169  0.7474 -0.3844  1.3987
   68MOL   H24437898   0.334   3.780   7.199 -0.0885  1.9477  1.2551
   68MOL   H24537899   0.403   3.957   7.080 -0.1378  0.9379  1.6511
   68MOL   H24637900   0.176   4.015   7.233  1.4732 -0.7405  2.5855
   68MOL   H24737901   0.110   3.994   7.000 -1.0616 -0.3075 -3.1510
   68MOL   H24837902   0.241   4.212   7.014  0.6707 -1.0640  1.1841
   68MOL   H24937903   0.354   4.133   6.898 -0.0305 -0.9041 -1.5280
   68MOL   H25037904   0.351   3.919   6.829  0.4479  0.3506  1.1408
   68MOL   H25137905   0.194   3.952   6.762 -0.2624 -0.1053 -0.6831
   68MOL   H25237906   0.224   3.711   6.789  0.2616  2.5724 -0.7992
   68MOL   H25337907   0.097   3.758   6.889  0.1975 -0.1958 -0.4156
   68MOL   O25437908   0.170   4.195   6.820 -0.2335 -0.0624 -0.4047
   68MOL   C25537909   0.222   4.310   6.757 -0.0784 -0.7180 -0.2242
   68MOL   C25637910   0.125   4.397   6.694  0.3067  0.3310  0.2269
   68MOL   O25737911   0.068   4.322   6.596 -0.4220  0.6586 -0.0271
   68MOL   C25837912   0.006   4.443   6.777 -0.1240  0.2527 -0.6797
   68MOL   C25937913   7.526   4.518   6.693  0.1714 -0.4223 -1.1862
   68MOL   C26037914   7.408   4.556   6.785 -1.2214  0.4061  0.0212
   68MOL   O26137915   7.310   4.630   6.712  0.1845  0.1759 -0.5392
   68MOL   C26237916   7.458   4.647   6.897  0.4759  0.1117  0.3214
   68MOL   C26337917   7.344   4.687   6.993  0.6790 -0.3552  0.0334
   68MOL   C26437918   7.570   4.584   6.979 -0.6431 -0.2234  0.2143
   68MOL   C26537919   0.059   4.520   6.905 -0.3148  0.0950 -0.3431
   68MOL   H26637920   0.285   4.278   6.674  1.7794 -0.7680  1.1742
   68MOL   H26737921   0.284   4.366   6.827 -0.8096  0.4810 -0.5063
   68MOL   H26837922   0.179   4.481   6.651 -0.5888  0.0904 -1.4106
   68MOL   H26937923   0.029   4.240   6.622 -1.5738  1.7214  1.7114
   68MOL   H27037924   7.587   4.364   6.834  2.0914 -0.8850 -0.3158
   68MOL   H27137925   7.565   4.610   6.650  0.2513  0.1556  0.1015
   68MOL   H27237926   7.475   4.449   6.626  0.9026 -2.3479  0.2027
   68MOL   H27337927   7.362   4.466   6.824 -0.4785  0.5802  1.3259
   68MOL   H27437928   7.336   4.720   6.710 -0.4011  0.4361  1.7052
   68MOL   H27537929   7.500   4.741   6.863 -1.6568  1.8706  2.4338
   68MOL   H27637930   7.386   4.724   7.086 -1.8817  1.8390  0.3618
   68MOL   H27737931   7.289   4.776   6.964  2.0290  0.3528 -0.3937
   68MOL   H27837932   7.523   4.504   7.037  0.3692 -1.6812 -0.9376
   68MOL   H27937933   7.605   4.654   7.055  2.4200  0.1396 -1.4745
   68MOL   H28037934   0.117   4.467   6.981  3.1819 -0.1813 -3.0774
   68MOL   H28137935   0.121   4.607   6.885  2.7152 -2.0091 -0.5132
   68MOL   O28237936   7.261   4.572   7.018 -0.4490 -0.3620  0.4514
   68MOL   C28337937   7.190   4.569   7.145 -0.4761  0.0301 -0.4600
   68MOL   C28437938   7.294   4.504   7.233 -0.5689  0.6442  0.4895
   68MOL   O28537939   7.243   4.530   7.355  0.1050 -0.3420  0.0764
   68MOL   C28637940   7.304   4.347   7.221 -0.4785  0.3283  0.0810
   68MOL   C28737941   7.425   4.294   7.307  0.2743 -0.1380 -0.1997
   68MOL   C28837942   7.453   4.143   7.286  0.1889 -0.1693  0.4019
   68MOL   O28937943   7.582   4.115   7.332  0.0330 -0.6273  0.3559
   68MOL   C29037944   7.459   4.094   7.141 -0.3917 -0.0987  0.0436
   68MOL   C29137945   7.483   3.945   7.136  0.1787  0.0766 -0.3657
   68MOL   C29237946   7.334   4.137   7.071 -0.4332 -0.0468 -0.6681
   68MOL   C29337947   7.315   4.292   7.074 -0.1322 -0.1686  0.3654
   68MOL   H29437948   7.107   4.499   7.151 -1.0982  0.7089 -1.1460
   68MOL   H29537949   7.148   4.665   7.177  0.7994  0.6730 -0.6876
   68MOL   H29637950   7.392   4.550   7.218 -0.3340  0.1476  0.4917
   68MOL   H29737951   7.172   4.469   7.368  1.4656 -1.6221  1.7909
   68MOL   H29837952   7.214   4.303   7.265 -1.3723  1.1036 -0.9522
   68MOL   H29937953   7.516   4.349   7.281  1.1129 -1.2571  0.3345
   68MOL   H30037954   7.415   4.311   7.414  0.7406 -1.3350  0.0442
   68MOL   H30137955   7.386   4.087   7.351  0.6407  0.6830  1.6429
   68MOL   H30237956   7.576   4.130   7.426 -3.1493 -0.8729  0.2330
   68MOL   H30337957   7.542   4.140   7.087 -1.7357 -0.9121 -2.8408
   68MOL   H30437958   7.480   3.912   7.032 -0.5017  2.0315 -0.9794
   68MOL   H30537959   7.574   3.914   7.187 -0.9023 -0.4629  1.2625
   68MOL   H30637960   7.250   4.085   7.118 -0.7449 -0.9054 -2.1308
   68MOL   H30737961   7.331   4.096   6.970 -2.7590  0.7078 -0.9358
   68MOL   H30837962   7.227   4.329   7.021  1.1971  2.1991 -0.2408
   68MOL   H30937963   7.394   4.349   7.026  0.9679 -1.5056  0.5460
   68MOL   O31037964   7.385   3.872   7.211  0.0780  0.7241 -0.4810
   68MOL   C31137965   7.412   3.731   7.214  0.0863  0.7260  0.1899
   68MOL   C31237966   7.290   3.671   7.289 -0.4991  0.5898  0.3671
   68MOL   O31337967   7.173   3.694   7.216  0.3937 -0.0882 -0.9239
   68MOL   C31437968   7.304   3.518   7.323  0.4950  0.0795 -0.6316
   68MOL   C31537969   7.304   3.431   7.195 -0.6691  0.3860  0.1190
   68MOL   C31637970   7.337   3.285   7.219  0.8048 -0.1034  0.1786
   68MOL   O31737971   7.331   3.216   7.096  0.9285 -0.2182 -0.8101
   68MOL   C31837972   7.251   3.219   7.330 -0.0084 -0.8720 -0.6393
   68MOL   C31937973   7.304   3.076   7.365  0.2582 -0.8565 -0.6242
   68MOL   C32037974   7.239   3.312   7.455 -0.0563  0.5548  0.4538
   68MOL   C32137975   7.199   3.460   7.426  0.6704 -0.2781  0.0438
   68MOL   H32237976   7.507   3.704   7.260 -0.5372  1.0399  1.6734
   68MOL   H32337977   7.419   3.690   7.113 -1.5106  0.2705  0.2531
   68MOL   H32437978   7.286   3.737   7.376  1.1326  0.1757  0.7856
   68MOL   H32537979   7.178   3.777   7.171  0.7865  0.3573 -0.0722
   68MOL   H32637980   7.404   3.506   7.365  0.7848 -1.3266 -1.6592
   68MOL   H32737981   7.211   3.430   7.138 -1.4703 -0.9089  1.4206
   68MOL   H32837982   7.385   3.453   7.125 -0.8518 -0.5092 -0.3859
   68MOL   H32937983   7.444   3.291   7.242  1.0014 -1.6187 -0.3136
   68MOL   H33037984   7.381   3.264   7.031 -1.1286  4.2590  0.7545
   68MOL   H33137985   7.148   3.205   7.298 -0.2256  0.5892 -0.6477
   68MOL   H33237986   7.298   3.019   7.273  1.2123 -0.1056 -1.1658
   68MOL   H33337987   7.406   3.082   7.402 -0.8425  3.0136  2.1238
   68MOL   H33437988   7.330   3.311   7.515  0.2737 -0.1993 -0.0432
   68MOL   H33537989   7.169   3.274   7.530  0.9636  0.9077  1.6144
   68MOL   H33637990   7.174   3.520   7.513  0.2780 -0.2833 -0.0645
   68MOL   H33737991   7.101   3.460   7.378  0.2761  1.0389  0.8422
   68MOL   O33837992   7.222   3.012   7.455 -0.1503  0.1745 -0.0324
   68MOL   C33937993   7.246   2.871   7.480 -0.7749 -0.2729  0.2922
   68MOL   C34037994   7.234   2.853   7.627  0.3988  0.9167  0.8963
   68MOL   O34137995   7.345   2.916   0.045  0.9925  0.3359 -0.0616
   68MOL   C34237996   7.111   2.923   0.060 -0.3380  0.4424  0.3252
   68MOL   C34337997   7.119   2.930   0.215 -0.0263  0.5137  0.0081
   68MOL   C34437998   7.001   3.009   0.272 -0.2841  0.6607  0.3175
   68MOL   O34537999   6.989   3.014   0.415 -0.2146 -0.0492 -0.1431
   68MOL   C34638000   6.863   2.944   0.221 -0.0029  0.2723 -0.4024
   68MOL   C34738001   6.740   3.017   0.285  1.0036  0.5178 -0.1101
   68MOL   C34838002   6.858   2.947   0.072  0.1949 -0.3622  0.3664
   68MOL   C34938003   6.978   2.866   0.013  0.7914 -0.1321 -0.8133
   68MOL   H35038004   7.332   2.828   7.430  0.2042  2.5206 -0.5341
   68MOL   H35138005   7.157   2.823   7.440 -1.3494 -1.2815  2.6752
   68MOL   H35238006   7.234   2.746   0.019  0.9481  0.9931  1.2787
   68MOL   H35338007   7.355   2.994   7.623  0.3070 -2.0339 -4.0250
   68MOL   H35438008   7.114   3.023   0.018  0.9361 -0.8752 -2.8392
   68MOL   H35538009   7.125   2.829   0.255 -0.6014 -0.2358 -1.7430
   68MOL   H35638010   7.206   2.980   0.259 -2.0484  2.7689  1.5671
   68MOL   H35738011   7.004   3.108   0.227  2.0324 -0.5627 -2.3403
   68MOL   H35838012   6.915   3.073   0.427 -0.5511 -0.2093 -1.3728
   68MOL   H35938013   6.859   2.840   0.251 -1.2541  0.1947 -0.8103
   68MOL   H36038014   6.653   2.988   0.227  0.1897 -0.7258  1.6911
   68MOL   H36138015   6.715   2.981   0.385 -0.1131 -1.5441 -1.1235
   68MOL   H36238016   6.848   3.048   0.032  1.5434 -1.0655 -1.8213
   68MOL   H36338017   6.779   2.882   0.037  1.2531  0.0197 -2.9398
   68MOL   H36438018   6.972   2.877   7.534 -0.0604  0.5972 -0.7073
   68MOL   H36538019   6.966   2.761   0.041 -0.0605  0.2833  0.4117
   68MOL   O36638020   6.761   3.156   0.282  0.0923  0.6331  0.6804
   68MOL   C36738021   6.640   3.230   0.317 -0.4202 -0.0663 -0.3934
   68MOL   C36838022   6.685   3.365   0.367 -0.4633 -0.4176  0.2143
   68MOL   O36938023   6.701   3.348   0.502  0.0185  0.1211  0.2643
   68MOL   C37038024   6.800   3.425   0.287 -0.4543 -0.1217  0.6644
   68MOL   C37138025   6.826   3.569   0.342 -0.1673 -0.4460  0.1986
   68MOL   C37238026   6.929   3.658   0.271 -0.5223 -0.5394  0.4137
   68MOL   O37338027   6.941   3.786   0.331 -0.2391  0.5234  0.3349
   68MOL   C37438028   6.893   3.666   0.117 -0.8739  0.7636 -0.6164
   68MOL   C37538029   6.979   3.758   0.029 -0.0571  0.1156 -0.5592
   68MOL   C37638030   6.886   3.522   0.057  1.5896  0.6751 -0.9629
   68MOL   C37738031   6.773   3.435   0.132 -0.7447  0.3949  0.0205
   68MOL   H37838032   6.586   3.182   0.398  0.0730  0.5463  0.2972
   68MOL   H37938033   6.574   3.229   0.230  1.2662 -0.5180 -1.6965
   68MOL   H38038034   6.602   3.435   0.354  0.5536  1.0727  1.6112
   68MOL   H38138035   6.615   3.375   0.532 -0.6969  0.3426 -1.8450
   68MOL   H38238036   6.888   3.364   0.304  1.7574  2.0451 -2.5851
   68MOL   H38338037   6.729   3.616   0.328 -0.3624 -1.1466 -0.8958
   68MOL   H38438038   6.839   3.565   0.450  0.3614 -0.3406  0.1388
   68MOL   H38538039   7.015   3.592   0.274 -0.0241  0.1511  1.5731
   68MOL   H38638040   6.977   3.773   0.418 -0.0862 -0.9251  0.0703
   68MOL   H38738041   6.791   3.706   0.117 -1.6401 -1.0708  0.8715
   68MOL   H38838042   6.952   3.857   0.064  0.5534 -0.0895  0.4942
   68MOL   H38938043   7.086   3.740   0.038 -0.0520 -0.6819 -2.0952
   68MOL   H39038044   6.981   3.470   0.058  0.9713 -0.4451  0.0720
   68MOL   H39138045   6.854   3.538   7.583 -1.5069  0.3408 -0.1190
   68MOL   H39238046   6.762   3.342   0.075 -0.6127  0.6655 -0.4483
   68MOL   H39338047   6.677   3.485   0.122  0.2077  2.9749  3.1913
   68MOL   O39438048   6.936   3.761   7.523 -0.0454  0.3572  0.3493
   68MOL   C39538049   6.989   3.867   7.442 -0.1159  0.0838 -0.2388
   68MOL   C39638050   6.921   3.847   7.310  0.5577 -0.1111  0.2513
   68MOL   O39738051   6.785   3.864   7.333 -0.5349  1.0998 -0.1536
   68MOL   C39838052   6.971   3.941   7.206  0.2443  0.2934 -0.8254
   68MOL   C39938053   6.916   4.088   7.218 -0.5052  1.1697  0.1644
   68MOL   C40038054   6.952   4.180   7.098  0.5687 -0.0975  0.5738
   68MOL   O40138055   6.893   4.305   7.107  0.1753 -0.2717  0.1587
   68MOL   C40238056   6.911   4.108   6.964  0.2967  0.4399 -0.9300
   68MOL   C40338057   6.960   4.186   6.849 -0.4408 -0.8713 -0.4619
   68MOL   C40438058   6.986   3.972   6.948  0.3134  0.0622  0.0667
   68MOL   C40538059   6.944   3.883   7.064  0.9047  0.0845  0.2258
   68MOL   H40638060   7.097   3.855   7.437 -0.2217 -0.3562 -1.5175
   68MOL   H40738061   6.964   3.969   7.471  1.0066  0.4548 -0.5938
   68MOL   H40838062   6.939   3.745   7.277  0.4484  0.5308 -1.8603
   68MOL   H40938063   6.780   3.845   7.426  3.3271  3.2044  0.5896
   68MOL   H41038064   7.079   3.948   7.216  0.0089  0.0546  2.5756
   68MOL   H41138065   6.809   4.088   7.235 -0.5297 -1.4447  0.2547
   68MOL   H41238066   6.954   4.129   7.311  0.7183 -0.7182  0.5234
   68MOL   H41338067   7.060   4.188   7.091  0.6901 -1.3080  0.8895
   68MOL   H41438068   6.911   4.341   7.022 -0.7160 -0.9112 -0.3033
   68MOL   H41538069   6.804   4.096   6.950  0.0804  0.9499  0.2382
   68MOL   H41638070   7.063   4.223   6.852 -0.4434 -0.7587 -1.5771
   68MOL   H41738071   6.968   4.121   6.762  4.1400  2.1176 -2.5218
   68MOL   H41838072   7.094   3.977   6.945  0.4677 -2.2555  0.2241
   68MOL   H41938073   6.944   3.930   6.856  0.6788  0.2134 -0.1696
   68MOL   H42038074   6.990   3.785   7.057 -2.2844 -1.2876 -3.1419
   68MOL   H42138075   6.837   3.861   7.063  1.0223 -0.4280 -1.2408
   68MOL   O42238076   6.879   4.309   6.838 -0.3800  0.0370 -0.5188
   68MOL   C42338077   6.886   4.375   6.707  1.0223 -0.1378 -0.1717
   68MOL   C42438078   6.959   4.504   6.732 -0.6001 -0.6673 -0.4447
   68MOL   O42538079   7.014   4.552   6.613  0.0747  1.0074 -0.3588
   68MOL   C42638080   6.877   4.612   6.796  0.3360  0.4268 -0.2669
   68MOL   C42738081   6.765   4.673   6.711  0.1697 -0.1584 -0.2423
   68MOL   C42838082   6.692   4.790   6.784 -0.6178  0.3650  0.1782
   68MOL   O42938083   6.612   4.859   6.687  0.0245 -0.3359 -0.5155
   68MOL   C43038084   6.794   4.896   6.829  0.1784  0.1442  1.1550
   68MOL   C43138085   6.732   5.019   6.897 -0.1712 -0.4077  0.2785
   68MOL   C43238086   6.903   4.842   6.914 -0.6806 -0.5755  0.0689
   68MOL   C43338087   6.975   4.721   6.850  0.8077  0.2815  0.5459
   68MOL   H43438088   6.786   4.388   6.665  1.8929  2.1205 -1.5923
   68MOL   H43538089   6.947   4.310   6.644  0.8124 -0.3639 -0.1454
   68MOL   H43638090   7.051   4.492   6.790 -1.7097  0.8886  1.6904
   68MOL   H43738091   7.103   4.579   6.629  0.5985 -1.8841  2.0048
   68MOL   H43838092   6.830   4.574   6.887 -1.5196  2.5986 -0.2775
   68MOL   H43938093   6.807   4.698   6.613  2.4885 -0.7580  0.5565
   68MOL   H44038094   6.696   4.589   6.704 -1.8193  1.2189  2.1547
   68MOL   H44138095   6.638   4.763   6.875 -1.3215 -0.8245 -0.5886
   68MOL   H44238096   6.533   4.888   6.730 -0.9676  0.4019 -2.7601
   68MOL   H44338097   6.840   4.934   6.738 -1.4768  0.0817  0.2728
   68MOL   H44438098   6.642   5.055   6.848  2.1804  2.5447 -2.0569
   68MOL   H44538099   6.682   4.995   6.990  0.3686  1.1656  1.0049
   68MOL   H44638100   6.866   4.820   7.014 -3.4835  0.6706 -0.6632
   68MOL   H44738101   6.985   4.913   6.931 -2.8728  1.7879  1.0989
   68MOL   H44838102   7.039   4.671   6.923  0.3619 -0.5624  0.3644
   68MOL   H44938103   7.035   4.752   6.764  0.5446 -2.1438 -0.5676
   68MOL   O45038104   6.821   5.135   6.897 -0.0599  0.3080  0.6605
   68MOL   C45138105   6.805   5.226   7.003  0.1728  0.2015  0.8317
   68MOL   C45238106   6.895   5.347   6.978  0.3139 -0.3347  0.3206
   68MOL   O45338107   6.851   5.455   7.060 -0.1019  0.4967  0.1271
   68MOL   C45438108   7.048   5.324   6.995  0.2256 -0.3552  0.1352
   68MOL   C45538109   7.109   5.249   6.876  0.1082 -0.0779 -0.4191
   68MOL   C45638110   7.260   5.231   6.890  0.2270  0.3862 -0.4292
   68MOL   O45738111   7.303   5.162   6.779  0.1624 -0.0693  0.1552
   68MOL   C45838112   7.301   5.172   7.025  0.0213 -1.1887  0.3007
   68MOL   C45938113   7.452   5.169   7.037  0.5924  0.3420 -0.2547
   68MOL   C46038114   7.243   5.256   7.141 -0.1642 -0.1121  0.9448
   68MOL   C46138115   7.091   5.259   7.127 -0.0525  0.3035 -0.0265
   68MOL   H46238116   6.830   5.173   7.095 -2.7764  0.3472  1.7812
   68MOL   H46338117   6.702   5.262   7.013 -0.5713 -1.3057 -1.1229
   68MOL   H46438118   6.884   5.379   6.875  3.9269 -0.9887 -0.3250
   68MOL   H46538119   6.777   5.491   7.013  0.4614  1.8202  0.2073
   68MOL   H46638120   7.096   5.422   6.990  1.3946 -0.9063  0.4220
   68MOL   H46738121   7.070   5.148   6.873 -0.1632  0.0190 -0.1133
   68MOL   H46838122   7.096   5.306   6.784  0.0579 -1.3547 -1.2122
   68MOL   H46938123   7.312   5.326   6.891 -4.2307  2.9608 -0.3943
   68MOL   H47038124   7.381   5.115   6.806  1.4717  2.6008  1.2024
   68MOL   H47138125   7.272   5.068   7.040 -0.0387 -1.0457  1.1687
   68MOL   H47238126   7.495   5.252   6.982  0.4822  0.1448 -0.6400
   68MOL   H47338127   7.475   5.184   7.143 -1.4739 -1.8408  0.5565
   68MOL   H47438128   7.283   5.357   7.149  1.0490 -0.6484  1.9006
   68MOL   H47538129   7.265   5.214   7.240  0.5122 -2.0316  0.0079
   68MOL   H47638130   7.050   5.328   7.202 -0.0766 -0.7771  0.9734
   68MOL   H47738131   7.041   5.165   7.150 -0.3904  0.5216  0.1454
   68MOL   O47838132   7.490   5.050   6.982  0.1067 -0.1850  0.3822
   68MOL   C47938133   7.627   5.028   6.965  0.4105  0.2769  0.2045
   68MOL   C48038134   0.022   5.027   6.815  1.2045  0.1853 -0.3272
   68MOL   O48138135   0.025   5.161   6.770  0.4013 -0.2629  0.2100
   68MOL   C48238136   0.151   4.943   6.787  1.0266 -0.3229 -0.0761
   68MOL   C48338137   0.282   5.034   6.759  0.8986  0.6279 -0.2946
   68MOL   C48438138   0.411   4.944   6.753 -0.3914  0.0817  0.0035
   68MOL   O48538139   0.524   5.024   6.716  0.3298  0.1612  0.1370
   68MOL   C48638140   0.395   4.833   6.642 -0.2355 -0.3681  0.0430
   68MOL   C48738141   0.524   4.749   6.619  0.3808 -0.0223 -0.0588
   68MOL   C48838142   0.269   4.758   6.671  0.1171 -0.4903 -0.8153
   68MOL   C48938143   0.148   4.848   6.665  0.0527  0.9223 -0.6842
   68MOL   H49038144   0.022   4.930   7.006 -0.5234  0.4242  1.1412
   68MOL   H49138145   0.051   5.106   7.020 -1.2296  1.4080  0.2306
   68MOL   H49238146   7.565   4.984   6.765  0.5608  2.2567 -1.0375
   68MOL   H49338147   0.096   5.214   6.803 -0.2230  2.9430 -3.2314
   68MOL   H49438148   0.163   4.884   6.878  0.8850  0.3160  0.3627
   68MOL   H49538149   0.268   5.099   6.673 -1.6385  2.9387  1.7608
   68MOL   H49638150   0.295   5.099   6.845 -0.8443  0.6782 -0.0487
   68MOL   H49738151   0.422   4.895   6.850 -0.2468 -0.0809 -0.0958
   68MOL   H49838152   0.505   5.053   6.628 -0.3821 -1.1405 -0.1481
   68MOL   H49938153   0.380   4.882   6.546  2.9733  1.9164  0.6062
   68MOL   H50038154   0.587   4.813   6.557  0.0615 -1.1312 -1.5455
   68MOL   H50138155   0.576   4.727   6.712 -0.1040 -0.1714  0.1793
   68MOL   H50238156   0.281   4.706   6.765 -0.5454 -1.6852 -1.3730
   68MOL   H50338157   0.256   4.681   6.594 -4.2477 -0.0374 -0.6498
   68MOL   H50438158   0.057   4.788   6.662  1.1116 -0.6986 -1.6070
   68MOL   H50538159   0.142   4.901   6.570  0.0832 -0.7082 -1.6207
   68MOL   O50638160   0.490   4.626   6.557  0.3880 -0.5111 -0.3813
   68MOL   C50738161   0.593   4.591   6.462 -0.2187 -0.1883 -0.7372
   68MOL   C50838162   0.575   4.445   6.401 -0.5229  0.6736 -0.0935
   68MOL   O50938163   0.588   4.356   6.508 -0.0903  0.0194 -0.1239
   68MOL   C51038164   0.456   4.420   6.304 -1.0248 -0.3030  0.9353
   68MOL   C51138165   0.322   4.451   6.367  0.3634 -0.5478 -0.3922
   68MOL   C51238166   0.194   4.444   6.277 -0.9170  0.5437 -0.0830
   68MOL   O51338167   0.081   4.459   6.362 -0.1768  0.1137 -0.5278
   68MOL   C51438168   0.179   4.306   6.214 -0.2120 -0.2187 -0.0602
   68MOL   C51538169   0.058   4.304   6.114 -0.1682  0.8614 -0.0550
   68MOL   C51638170   0.314   4.261   6.146 -0.4252 -0.0761 -0.7783
   68MOL   C51738171   0.436   4.277   6.256 -0.2848  0.4692  0.2060
   68MOL   H51838172   0.693   4.597   6.504 -0.9970 -0.5087  1.2152
   68MOL   H51938173   0.589   4.670   6.387 -0.9794  1.2874  0.8281
   68MOL   H52038174   0.659   4.428   6.333 -0.3039 -1.5294  0.7037
   68MOL   H52138175   0.542   4.392   6.582  1.8929  1.2576  0.5604
   68MOL   H52238176   0.488   4.481   6.220  1.8956 -0.9832  1.5025
   68MOL   H52338177   0.308   4.395   6.459 -1.8524 -1.5675 -1.3257
   68MOL   H52438178   0.328   4.558   6.389  2.7183 -0.3222 -1.8991
   68MOL   H52538179   0.206   4.525   6.205 -0.2204 -0.2579 -0.8729
   68MOL   H52638180   0.087   4.399   6.435  0.3485 -0.8924 -1.3782
   68MOL   H52738181   0.168   4.231   6.293 -1.8627 -1.2665 -1.2526
   68MOL   H52838182   7.601   4.357   6.154 -1.3203 -1.3068  0.3891
   68MOL   H52938183   0.090   4.357   6.024  0.2617 -1.9557 -1.6304
   68MOL   H53038184   0.325   4.317   6.053  3.7163 -1.7842 -1.3900
   68MOL   H53138185   0.301   4.154   6.129 -1.8357 -0.2694  1.3508
   68MOL   H53238186   0.529   4.230   6.225  0.3309 -0.1012  2.8786
   68MOL   H53338187   0.416   4.211   6.340 -1.2398 -0.0859 -0.4431
   68MOL   O53438188   0.030   4.169   6.077 -0.1846  0.2842 -0.0518
   68MOL   C53538189   7.556   4.110   6.151 -0.3075  0.0789  0.0685
   68MOL   C53638190   7.553   3.963   6.121  0.0126  0.3309  0.3286
   68MOL   O53738191   7.550   3.940   5.985  0.4024  0.2370  0.1700
   68MOL   C53838192   0.044   3.889   6.191  0.1950  1.0477  0.4569
   68MOL   C53938193   0.058   3.745   6.131  1.1234  0.9402 -0.4451
   68MOL   C54038194   0.167   3.671   6.214  0.4734  0.5443  0.0812
   68MOL   O54138195   0.152   3.535   6.174  0.0721 -0.2971  0.4851
   68MOL   C54238196   0.147   3.666   6.369 -0.2836  0.1722  0.4197
   68MOL   C54338197   0.249   3.577   6.449 -0.1543 -0.4026  0.3151
   68MOL   C54438198   0.138   3.804   6.428  0.3117 -0.1991 -0.1095
   68MOL   C54538199   0.042   3.890   6.345 -0.1731 -0.1714  0.6563
   68MOL   H54638200   7.460   4.136   6.108 -0.3662 -0.9863 -0.4548
   68MOL   H54738201   7.561   4.134   6.258 -1.6638 -1.1144  0.4159
   68MOL   H54838202   7.464   3.917   6.164 -0.6448  0.9076 -0.4069
   68MOL   H54938203   7.604   4.006   5.944 -0.3557 -0.4264 -1.9306
   68MOL   H55038204   0.146   3.927   6.181  1.4743 -2.4159 -0.1904
   68MOL   H55138205   7.596   3.687   6.141  2.7399 -1.3660  1.4582
   68MOL   H55238206   0.075   3.741   6.024 -0.0552  1.3794 -0.6590
   68MOL   H55338207   0.271   3.700   6.195  0.2111  1.7840  0.5189
   68MOL   H55438208   0.084   3.499   6.228  0.7770 -1.2193  0.7787
   68MOL   H55538209   0.052   3.614   6.381 -1.4018  1.4850 -2.2074
   68MOL   H55638210   0.217   3.574   6.554  2.5042  0.2079  1.1678
   68MOL   H55738211   0.249   3.471   6.426  0.6247 -0.6806  1.5545
   68MOL   H55838212   0.234   3.856   6.428  1.8976 -3.0273  0.7532
   68MOL   H55938213   0.107   3.807   6.533  1.1207 -0.6762  0.1482
   68MOL   H56038214   0.053   3.991   6.385  0.0651 -0.1249  0.4699
   68MOL   H56138215   7.568   3.871   6.377 -0.7798 -1.1675 -1.7893
   68MOL   H56238216   0.347   3.623   6.442 -0.5150  0.1949 -0.9838
   69MOL     O138217   1.690   5.044   7.143  0.9818 -0.8220  0.3226
   69MOL     C238218   1.777   5.126   7.224 -0.2632  0.1457  0.0930
   69MOL     C338219   1.841   5.032   7.323  0.2977 -0.3004  0.0791
   69MOL     O438220   1.920   4.951   7.236 -0.0627  0.1433  0.2717
   69MOL     C538221   1.942   5.091   7.420 -0.2597 -0.1853 -1.1303
   69MOL     C638222   2.021   4.973   7.497 -0.0491  0.1325 -0.2052
   69MOL     C738223   2.117   5.031   7.607 -0.0290  0.0554 -0.1743
   69MOL     O838224   2.160   4.923   0.058  0.6118  0.1210  0.0125
   69MOL     C938225   2.040   5.127   0.066  0.2238 -0.5944  0.3813
   69MOL    C1038226   2.130   5.175   0.178  0.1077  0.1911  0.4763
   69MOL    C1138227   1.969   5.245   7.619  0.5672 -0.0913 -0.0017
   69MOL    C1238228   1.870   5.184   7.522 -0.0678  0.5828 -0.1984
   69MOL    H1338229   1.702   5.188   7.273  0.0658 -0.5793  1.5554
   69MOL    H1438230   1.852   5.182   7.168  1.8077  0.3354  2.9509
   69MOL    H1538231   1.774   4.976   7.388 -0.4608  1.6613  1.0203
   69MOL    H1638232   1.852   4.921   7.177  0.3786 -0.0755 -0.1363
   69MOL    H1738233   2.020   5.142   7.363 -1.3452  0.3683 -2.1348
   69MOL    H1838234   1.948   4.906   7.541 -0.7754  1.1191  0.1221
   69MOL    H1938235   2.079   4.918   7.423  2.4233  3.2772 -0.7574
   69MOL    H2038236   2.198   5.081   7.553 -0.7907  1.7761  0.2751
   69MOL    H2138237   2.230   4.888   0.006  0.2073  3.1183 -2.7194
   69MOL    H2238238   1.951   5.082   0.109 -1.1789 -0.6308 -2.4125
   69MOL    H2338239   2.175   5.100   0.242 -0.3152 -1.0663 -0.6741
   69MOL    H2438240   2.220   5.221   0.136  0.2854  0.2093  0.8800
   69MOL    H2538241   2.045   5.308   7.573  0.2531  0.0188 -0.3673
   69MOL    H2638242   1.917   5.304   0.065 -0.2530 -1.7285  0.7520
   69MOL    H2738243   1.816   5.269   7.479 -0.2408  0.1686 -0.8086
   69MOL    H2838244   1.798   5.122   7.576  2.5963 -0.8952  1.7404
   69MOL    H2938245   1.647   5.101   7.080  2.5165  0.0493  0.0341
   69MOL    O3038246   2.059   5.276   0.252 -0.1622  0.4412  0.1844
   69MOL    C3138247   1.959   5.239   0.340  0.1775  0.3381 -0.3344
   69MOL    C3238248   1.964   5.336   0.454  0.0792 -0.6617 -0.1458
   69MOL    O3338249   1.846   5.319   0.522  0.1949 -0.2370 -0.0352
   69MOL    C3438250   2.081   5.334   0.556  0.7623  0.1110  0.7040
   69MOL    C3538251   2.204   5.408   0.498 -0.1882 -0.2733 -0.3894
   69MOL    C3638252   2.304   5.428   0.603 -0.4886 -0.3072 -0.6982
   69MOL    O3738253   2.418   5.475   0.539 -0.3404  0.4504  0.0792
   69MOL    C3838254   2.342   5.293   0.675 -0.0841 -0.2614  0.0280
   69MOL    C3938255   2.442   5.321   0.791 -0.0978  0.2910  0.2298
   69MOL    C4038256   2.222   5.206   0.723  0.5496  0.0050  0.0900
   69MOL    C4138257   2.116   5.196   0.609 -0.1610  0.0273 -0.4329
   69MOL    H4238258   1.990   5.143   0.380 -2.1188 -0.0341  0.6290
   69MOL    H4338259   1.869   5.225   0.281  1.0523 -0.9468 -1.4103
   69MOL    H4438260   1.963   5.435   0.408  0.6645 -0.6784 -0.1922
   69MOL    H4538261   1.774   5.348   0.469 -2.0781 -3.4991  1.0771
   69MOL    H4638262   2.051   5.388   0.645 -0.3669 -0.4694  0.6825
   69MOL    H4738263   2.249   5.359   0.412  0.5894  0.4016 -0.3727
   69MOL    H4838264   2.180   5.511   0.473  1.9882  0.3395 -0.0322
   69MOL    H4938265   2.272   5.512   0.664 -0.2060 -0.4068 -0.4089
   69MOL    H5038266   2.426   5.417   0.465  1.9826 -1.7512  1.9170
   69MOL    H5138267   2.384   5.227   0.599  1.4885  0.2396  0.4581
   69MOL    H5238268   2.536   5.367   0.760  1.5694 -2.3205  1.2492
   69MOL    H5338269   2.389   5.384   0.863  1.6826 -0.1634  1.9764
   69MOL    H5438270   2.171   5.247   0.810  0.7133  2.3871 -0.8902
   69MOL    H5538271   2.247   5.104   0.750 -1.3118  0.0182  2.0239
   69MOL    H5638272   2.029   5.151   0.656  1.3216 -1.9877  0.4296
   69MOL    H5738273   2.145   5.122   0.535 -1.8635 -1.5714  0.4705
   69MOL    O5838274   2.459   5.200   0.859 -0.5846 -0.4666 -0.1393
   69MOL    C5938275   2.540   5.212   0.983  0.0730 -0.3055 -0.1587
   69MOL    C6038276   2.478   5.101   1.071 -0.4119  0.0755  0.6368
   69MOL    O6138277   2.545   5.102   1.193 -0.5320 -0.1615  0.5606
   69MOL    C6238278   2.321   5.110   1.092  0.0114  0.1932 -0.4467
   69MOL    C6338279   2.288   5.237   1.172  0.0226  0.2662 -0.2433
   69MOL    C6438280   2.133   5.264   1.189 -0.3282  0.8493 -0.2475
   69MOL    O6538281   2.117   5.375   1.277  0.0725  0.1011  0.1287
   69MOL    C6638282   2.072   5.140   1.260  0.0303 -0.4062  0.0824
   69MOL    C6738283   1.920   5.157   1.257 -0.0981  0.0099 -0.2983
   69MOL    C6838284   2.105   5.017   1.171  0.1681 -0.0405 -0.7392
   69MOL    C6938285   2.255   4.990   1.150  0.7117 -0.4672 -0.1695
   69MOL    H7038286   2.527   5.309   1.030 -2.3987 -0.2048 -0.9548
   69MOL    H7138287   2.641   5.187   0.952 -0.4052 -0.6549 -1.4959
   69MOL    H7238288   2.490   5.006   1.019 -0.8889  0.8907 -1.0028
   69MOL    H7338289   2.519   5.184   1.233 -2.5393  0.3871 -1.7109
   69MOL    H7438290   2.276   5.118   0.992 -0.4406 -0.3067 -0.2871
   69MOL    H7538291   2.331   5.231   1.273  0.5071  0.1552 -0.4532
   69MOL    H7638292   2.335   5.323   1.126 -1.7510  0.4728 -1.7119
   69MOL    H7738293   2.085   5.276   1.092  1.8030  0.7666 -1.3542
   69MOL    H7838294   2.173   5.372   1.354 -3.1868 -2.3740  2.5666
   69MOL    H7938295   2.109   5.111   1.358  1.4305 -1.2336 -0.6731
   69MOL    H8038296   1.887   5.237   1.323 -0.7242 -1.5493  1.3166
   69MOL    H8138297   1.887   5.170   1.154  0.0650  0.9452 -0.2372
   69MOL    H8238298   2.055   5.024   1.075  0.2097 -0.5523 -0.8016
   69MOL    H8338299   2.071   4.922   1.213  2.5780 -1.1536 -1.2223
   69MOL    H8438300   2.270   4.900   1.090  1.8392 -1.1260  1.0654
   69MOL    H8538301   2.312   4.969   1.240  1.0719  1.6629  0.1285
   69MOL    O8638302   1.853   5.040   1.316 -0.2416  0.6968  0.2998
   69MOL    C8738303   1.713   5.039   1.302  0.5884 -0.3104  0.4718
   69MOL    C8838304   1.659   4.909   1.366 -0.1370 -0.1948  0.0420
   69MOL    O8938305   1.528   4.940   1.428  0.0118  0.2235  0.0281
   69MOL    C9038306   1.644   4.790   1.267 -0.2585  0.9517 -0.0735
   69MOL    C9138307   1.580   4.668   1.337 -0.6425  0.1368  0.1228
   69MOL    C9238308   1.589   4.541   1.247  0.6958 -0.7001 -0.1898
   69MOL    O9338309   1.552   4.432   1.326  0.0278 -0.1952 -0.0326
   69MOL    C9438310   1.721   4.511   1.180  0.0804 -0.0902  0.3756
   69MOL    C9538311   1.725   4.395   1.078  0.0318 -0.1631  0.0719
   69MOL    C9638312   1.777   4.640   1.113  0.0286  0.2373 -0.2354
   69MOL    C9738313   1.783   4.748   1.212 -0.4902  0.1258 -0.0914
   69MOL    H9838314   1.675   5.032   1.200 -0.2487 -1.4303  0.8444
   69MOL    H9938315   1.672   5.123   1.358  1.4018 -0.3247  1.0974
   69MOL   H10038316   1.725   4.873   1.445  1.6781  1.5768 -0.6523
   69MOL   H10138317   1.545   4.967   1.517 -0.5180  0.9199 -0.0757
   69MOL   H10238318   1.590   4.821   1.178 -1.5930 -0.9849  0.0501
   69MOL   H10338319   1.630   4.639   1.430  0.3019  0.4721 -0.2678
   69MOL   H10438320   1.482   4.703   1.367 -0.6016  1.4499 -1.1961
   69MOL   H10538321   1.516   4.546   1.166  1.2063 -0.9579 -0.6707
   69MOL   H10638322   1.552   4.361   1.263  0.9551 -0.8779  0.7264
   69MOL   H10738323   1.788   4.485   1.262  4.6446  0.7467 -2.8816
   69MOL   H10838324   1.659   4.318   1.117 -0.3107  0.5828  0.9464
   69MOL   H10938325   1.709   4.437   0.978  1.5350 -2.5218 -1.2247
   69MOL   H11038326   1.718   4.669   1.026  0.5842 -2.0920 -1.4249
   69MOL   H11138327   1.881   4.625   1.083 -0.5429  1.8104 -3.3206
   69MOL   H11238328   1.850   4.825   1.176 -0.5835  0.4964  0.5162
   69MOL   H11338329   1.841   4.708   1.295  0.5617  0.7385 -0.5303
   69MOL   O11438330   1.856   4.341   1.055 -0.2833  0.0365  0.1039
   69MOL   C11538331   1.848   4.225   0.973 -0.2875  0.9263  0.8427
   69MOL   C11638332   1.945   4.122   1.026 -0.0787  0.5286 -0.0705
   69MOL   O11738333   1.874   4.057   1.128  0.7628  0.0124  0.8018
   69MOL   C11838334   1.987   4.008   0.927 -0.0052  1.0139 -0.5246
   69MOL   C11938335   2.089   3.923   0.997 -0.0808  0.1194 -0.4782
   69MOL   C12038336   2.160   3.821   0.909 -0.4216  0.5946  0.6812
   69MOL   O12138337   2.263   3.755   0.986  0.4778 -0.7477 -1.1118
   69MOL   C12238338   2.225   3.887   0.789 -0.3250 -0.8646 -0.0566
   69MOL   C12338339   2.294   3.788   0.693 -0.4298  0.0473  0.2259
   69MOL   C12438340   2.114   3.958   0.708 -0.1261  0.2098  0.3365
   69MOL   C12538341   2.048   4.065   0.793 -0.0340 -0.9109  0.1719
   69MOL   H12638342   1.877   4.262   0.875 -0.7530  0.9001  0.6954
   69MOL   H12738343   1.747   4.187   0.964 -0.2468  0.8130  0.8598
   69MOL   H12838344   2.031   4.159   1.082  0.2616 -1.4362  0.7599
   69MOL   H12938345   1.858   4.128   1.187 -1.1985 -0.1265  0.4853
   69MOL   H13038346   1.913   3.932   0.902  1.0073 -0.1427 -0.0794
   69MOL   H13138347   2.169   3.987   1.036 -1.7247  1.2603  1.0790
   69MOL   H13238348   2.038   3.885   1.085 -0.8039  0.2732 -0.8276
   69MOL   H13338349   2.096   3.738   0.880 -0.3450  0.8245 -0.1634
   69MOL   H13438350   2.308   3.697   0.927 -1.2910 -0.5743 -2.7019
   69MOL   H13538351   2.305   3.954   0.819 -0.8417  0.5151 -1.6401
   69MOL   H13638352   2.209   3.727   0.663 -0.5142 -1.1092  2.6756
   69MOL   H13738353   2.339   3.831   0.603  2.1801 -0.4121  1.2675
   69MOL   H13838354   2.040   3.886   0.674 -0.6119  0.8817 -0.0304
   69MOL   H13938355   2.151   4.002   0.616  0.3967 -1.5836 -0.3382
   69MOL   H14038356   1.962   4.109   0.744  2.2777 -0.3027 -3.5144
   69MOL   H14138357   2.124   4.138   0.821 -2.0627  2.0509 -1.7039
   69MOL   O14238358   2.403   3.727   0.770  0.1364 -0.4490  0.1053
   69MOL   C14338359   2.474   3.622   0.702 -0.4722 -0.0300  0.2083
   69MOL   C14438360   2.614   3.602   0.770 -0.5663  0.3786 -0.1914
   69MOL   O14538361   2.612   3.603   0.912 -0.0702 -0.0085 -0.2878
   69MOL   C14638362   2.685   3.472   0.722  0.3500  0.1482 -0.2442
   69MOL   C14738363   2.825   3.448   0.781 -0.3992 -0.0080 -0.6346
   69MOL   C14838364   2.887   3.326   0.734 -0.4804  0.7910  0.4039
   69MOL   O14938365   3.020   3.319   0.787  0.5824  0.3934 -0.4118
   69MOL   C15038366   2.905   3.315   0.586  0.5772 -1.0109 -0.0479
   69MOL   C15138367   2.972   3.189   0.536 -0.0492 -1.1275 -0.0027
   69MOL   C15238368   2.765   3.337   0.520 -0.2185 -0.5580 -0.5068
   69MOL   C15338369   2.697   3.467   0.567  0.3034 -0.0825 -0.2578
   69MOL   H15438370   2.475   3.638   0.594 -0.8246 -0.5607  0.1228
   69MOL   H15538371   2.405   3.540   0.724  0.3101 -1.1522 -1.4106
   69MOL   H15638372   2.669   3.695   0.751 -0.7196  1.0827  2.6120
   69MOL   H15738373   2.572   3.684   0.941  0.9940  1.3621 -2.4971
   69MOL   H15838374   2.626   3.384   0.747 -0.0292  0.4730  0.0205
   69MOL   H15938375   2.890   3.534   0.762 -0.4401 -0.2159 -1.7543
   69MOL   H16038376   2.816   3.447   0.889 -2.5520  2.0408 -0.7595
   69MOL   H16138377   2.830   3.240   0.769  0.2670  0.9601  2.1302
   69MOL   H16238378   3.019   3.305   0.881  1.1645 -0.4332 -0.5308
   69MOL   H16338379   2.963   3.404   0.562  0.3568 -1.2277 -1.4777
   69MOL   H16438380   3.076   3.192   0.569  0.4392  2.5383 -1.6149
   69MOL   H16538381   2.942   3.094   0.580  2.0664 -1.8946 -0.1673
   69MOL   H16638382   2.693   3.259   0.545  0.4298 -0.8223  0.5711
   69MOL   H16738383   2.764   3.340   0.411  0.9659  1.4089 -0.4883
   69MOL   H16838384   2.598   3.460   0.522  1.2284 -1.1486 -2.1586
   69MOL   H16938385   2.740   3.556   0.522 -1.8947  0.1542 -1.9415
   69MOL   O17038386   2.961   3.194   0.397 -0.4516  0.2721 -0.0325
   69MOL   C17138387   2.864   3.098   0.346 -0.4190  0.9739  0.3836
   69MOL   C17238388   2.886   3.114   0.190 -0.0735  0.1608  0.1163
   69MOL   O17338389   3.012   3.059   0.164 -0.4793  0.0198 -0.0916
   69MOL   C17438390   2.782   3.055   0.105 -0.6972  0.5790 -0.1697
   69MOL   C17538391   2.647   3.132   0.099  0.6235 -0.1320  0.4905
   69MOL   C17638392   2.566   3.084   7.606  0.0566 -0.3902 -0.3576
   69MOL   O17738393   2.450   3.158   7.615  0.2268  0.0562  0.2318
   69MOL   C17838394   2.537   2.936   7.617 -0.3594  0.2946 -0.0039
   69MOL   C17938395   2.450   2.872   7.510 -0.1598  0.0925  0.2018
   69MOL   C18038396   2.671   2.854   0.001  0.3079 -0.2608 -0.1900
   69MOL   C18138397   2.751   2.901   0.117  0.5222  0.7028 -0.2082
   69MOL   H18238398   2.760   3.096   0.380 -0.6652 -2.5940 -0.2886
   69MOL   H18338399   2.899   2.999   0.376 -0.5686  1.0346  0.7510
   69MOL   H18438400   2.886   3.220   0.164  0.4730 -0.2671 -1.6931
   69MOL   H18538401   3.069   3.110   0.221  0.9166  0.2280 -1.6311
   69MOL   H18638402   2.801   3.077   0.000  1.9895  3.0686  0.7907
   69MOL   H18738403   2.583   3.117   0.185 -1.1254  2.1194 -0.3857
   69MOL   H18838404   2.659   3.240   0.096 -2.4550  0.2156 -1.7437
   69MOL   H18938405   2.617   3.115   7.514 -0.0924  1.9579  0.3368
   69MOL   H19038406   2.419   3.155   0.074  0.1893 -0.6491  0.1914
   69MOL   H19138407   2.486   2.921   0.083 -0.8264  0.0382 -0.2896
   69MOL   H19238408   2.378   2.951   7.488  1.0538  1.4809  1.0674
   69MOL   H19338409   2.494   2.854   7.412  2.9075  0.0615  1.5331
   69MOL   H19438410   2.728   2.867   7.538 -0.6930  0.8044 -0.6681
   69MOL   H19538411   2.647   2.748   7.628  0.2564 -0.2315 -1.8259
   69MOL   H19638412   2.843   2.845   0.107  0.9933  1.0134  2.0025
   69MOL   H19738413   2.700   2.877   0.211 -0.3282 -0.1478 -0.8842
   69MOL   O19838414   2.379   2.762   7.557 -0.4857 -0.1853  0.5841
   69MOL   C19938415   2.266   2.787   0.011  0.2159 -0.3001  0.3227
   69MOL   C20038416   2.165   2.670   0.006  1.0878  0.1491 -0.1211
   69MOL   O20138417   2.216   2.560   0.077  0.1709 -0.1840 -0.3080
   69MOL   C20238418   2.017   2.698   0.027  0.1910  0.2325 -0.0641
   69MOL   C20338419   1.980   2.795   0.148 -0.4316  0.0675 -0.8278
   69MOL   C20438420   1.833   2.825   0.161 -0.3330 -0.5917  0.6096
   69MOL   O20538421   1.817   2.917   0.257 -0.0406  0.5846 -0.5298
   69MOL   C20638422   1.747   2.696   0.178 -0.4811 -0.1741 -0.0965
   69MOL   C20738423   1.599   2.733   0.175  0.3961  0.9748 -0.4091
   69MOL   C20838424   1.781   2.596   0.060 -0.6682  0.4387  0.2751
   69MOL   C20938425   1.933   2.568   0.048 -0.3349  0.3588 -0.2496
   69MOL   H21038426   2.208   2.879   0.003 -1.3840 -1.2749  0.3814
   69MOL   H21138427   2.299   2.795   0.114  0.6326  2.8576 -0.0110
   69MOL   H21238428   2.164   2.643   7.530  0.8116 -0.7356  0.1059
   69MOL   H21338429   2.262   2.507   0.013  1.6982  0.0161  0.6132
   69MOL   H21438430   1.985   2.743   7.563  0.8708  2.6510  0.8409
   69MOL   H21538431   2.020   2.755   0.241 -0.7058  0.9361 -0.3309
   69MOL   H21638432   2.028   2.891   0.130  0.4671 -0.2882 -0.3326
   69MOL   H21738433   1.814   2.885   0.072  1.9936  0.3561  0.7316
   69MOL   H21838434   1.870   2.900   0.333  0.3995 -1.2282 -1.2201
   69MOL   H21938435   1.765   2.640   0.270 -0.4028  1.0113  0.6305
   69MOL   H22038436   1.587   2.799   0.261  1.6371 -0.0600  0.5947
   69MOL   H22138437   1.567   2.789   0.087  2.2364  2.7150 -0.0099
   69MOL   H22238438   1.747   2.643   7.597  0.2331 -0.4786 -0.5264
   69MOL   H22338439   1.729   2.501   0.055 -1.1097  0.6608  0.6314
   69MOL   H22438440   1.960   2.498   7.598 -0.7822 -0.8543  0.6448
   69MOL   H22538441   1.963   2.520   0.141 -1.1549  0.3676  0.0196
   69MOL   O22638442   1.512   2.617   0.177 -0.4039  0.2666 -0.4759
   69MOL   C22738443   1.501   2.542   0.300  0.4288  0.2102 -0.1382
   69MOL   C22838444   1.426   2.413   0.287  0.0499  0.2567 -0.0478
   69MOL   O22938445   1.288   2.446   0.282  0.0029  0.5365 -0.2136
   69MOL   C23038446   1.461   2.323   0.166  0.0067  0.0508  0.6410
   69MOL   C23138447   1.403   2.371   0.032 -0.3439  0.2301  0.2657
   69MOL   C23238448   1.455   2.280   7.546 -0.0813  0.2642 -0.7629
   69MOL   O23338449   1.389   2.317   7.431  0.7323 -0.1598 -0.1745
   69MOL   C23438450   1.415   2.129   7.573 -0.5369  0.0716 -0.1695
   69MOL   C23538451   1.452   2.024   7.462 -0.1462  0.3099  0.4647
   69MOL   C23638452   1.477   2.082   0.077 -0.0402 -0.6856 -0.3750
   69MOL   C23738453   1.431   2.176   0.196 -0.2207  0.5937  0.4206
   69MOL   H23838454   1.456   2.605   0.376  0.2746  0.1005 -0.1383
   69MOL   H23938455   1.606   2.519   0.319  0.8435  0.5880 -1.8781
   69MOL   H24038456   1.447   2.357   0.378  2.5516  1.7317  0.3531
   69MOL   H24138457   1.273   2.510   0.215  0.6329 -0.6182 -1.4976
   69MOL   H24238458   1.570   2.320   0.154  0.0059  1.3880  0.1843
   69MOL   H24338459   1.295   2.359   0.025 -0.3648 -0.0357  1.0116
   69MOL   H24438460   1.425   2.474   0.007 -0.6617  0.1152 -0.4849
   69MOL   H24538461   1.563   2.289   7.536  0.2836 -3.0466 -0.5281
   69MOL   H24638462   1.299   2.336   7.453  1.1345 -2.2404  3.4873
   69MOL   H24738463   1.306   2.131   7.584 -0.5093  0.3811  0.0380
   69MOL   H24838464   1.405   2.043   7.366  1.3260 -0.0678 -0.3264
   69MOL   H24938465   1.556   2.035   7.431 -0.2766  0.7792  0.1942
   69MOL   H25038466   1.583   2.064   0.062  0.5019 -0.1609  2.6115
   69MOL   H25138467   1.428   1.987   0.097 -2.0734 -0.0192 -1.9947
   69MOL   H25238468   1.466   2.140   0.292 -0.6658 -1.2939 -0.0935
   69MOL   H25338469   1.324   2.162   0.209 -0.2258  1.3905  1.2308
   69MOL   O25438470   1.423   1.891   7.498 -0.3904  0.5566 -0.2272
   69MOL   C25538471   1.287   1.871   7.491  0.6359 -0.2306 -0.6405
   69MOL   C25638472   1.252   1.729   7.539  0.5993  0.2533 -0.1427
   69MOL   O25738473   1.273   1.710   0.048  0.2387  0.2599  0.2944
   69MOL   C25838474   1.111   1.692   7.507  0.3179 -0.0605 -0.2232
   69MOL   C25938475   1.083   1.658   7.356 -1.1481  0.0954 -0.0665
   69MOL   C26038476   0.931   1.617   7.337 -0.3405  0.1119  0.2928
   69MOL   O26138477   0.903   1.604   7.196 -0.0837  0.5166 -0.1771
   69MOL   C26238478   0.834   1.722   7.393  0.1461 -0.5750 -0.1246
   69MOL   C26338479   0.690   1.664   7.379 -0.1939  0.3954 -0.1229
   69MOL   C26438480   0.863   1.745   7.543 -0.3438  0.5452 -0.0173
   69MOL   C26538481   1.007   1.791   7.564 -0.4407  0.4151  0.0772
   69MOL   H26638482   1.262   1.882   7.385  2.2769  1.2484 -0.8884
   69MOL   H26738483   1.234   1.940   7.557 -1.4834 -1.4970 -0.9493
   69MOL   H26838484   1.311   1.661   7.477  0.3560  1.1207 -1.3587
   69MOL   H26938485   1.338   1.764   0.090 -1.1091  0.8444  1.6715
   69MOL   H27038486   1.093   1.602   7.565 -2.4037  0.4029 -0.3026
   69MOL   H27138487   1.113   1.740   7.292  1.2698 -0.5010  0.2499
   69MOL   H27238488   1.149   1.577   7.324 -2.7493 -1.2913  0.0276
   69MOL   H27338489   0.907   1.526   7.391  1.1422  0.1609  1.0568
   69MOL   H27438490   0.914   1.683   7.146  1.3175 -0.0088 -0.7245
   69MOL   H27538491   0.850   1.814   7.335  0.7904 -1.7501 -1.8620
   69MOL   H27638492   0.671   1.633   7.276  2.6052  0.6073 -0.7498
   69MOL   H27738493   0.678   1.573   7.438 -3.1521  1.8134  1.5882
   69MOL   H27838494   0.858   1.656   7.605  2.6747 -0.6343 -1.3452
   69MOL   H27938495   0.790   1.814   7.585 -2.9333 -1.2317 -1.5319
   69MOL   H28038496   1.029   1.807   0.040 -0.2393 -0.1293  0.1163
   69MOL   H28138497   1.009   1.887   7.512 -2.0902 -0.5288 -1.8028
   69MOL   O28238498   0.593   1.761   7.410  0.3967 -0.3960 -0.1480
   69MOL   C28338499   0.589   1.870   7.324 -0.0472 -0.7832 -0.0046
   69MOL   C28438500   0.609   2.004   7.399  0.7336  0.2358 -1.0707
   69MOL   O28538501   0.610   2.109   7.303  0.2502 -0.1783 -0.2569
   69MOL   C28638502   0.505   2.033   7.503 -0.1094 -0.9518 -0.1737
   69MOL   C28738503   0.360   2.033   7.451  0.1603 -0.1108  1.1814
   69MOL   C28838504   0.256   2.053   7.562  1.0605  0.1400  0.1267
   69MOL   O28938505   0.126   2.049   7.507 -0.5106  0.2879  0.0528
   69MOL   C29038506   0.276   2.192   0.006 -0.3694  0.3651 -0.4141
   69MOL   C29138507   0.172   2.212   0.122  0.2059 -0.3884  0.2267
   69MOL   C29238508   0.429   2.204   0.054 -0.1324 -0.9841 -0.2800
   69MOL   C29338509   0.535   2.171   7.582 -1.0710 -0.2771  0.7919
   69MOL   H29438510   0.494   1.865   7.269 -0.9787 -1.1301  1.6060
   69MOL   H29538511   0.659   1.859   7.242  0.6998 -1.0014  0.6616
   69MOL   H29638512   0.705   2.002   7.450 -0.7175  4.0369  2.0140
   69MOL   H29738513   0.524   2.125   7.266 -0.0138 -1.0520 -0.0184
   69MOL   H29838514   0.510   1.957   7.580 -1.9409  1.8943  2.8662
   69MOL   H29938515   0.349   2.097   7.364  1.3707 -2.4070 -0.7115
   69MOL   H30038516   0.335   1.936   7.408 -0.1725  0.2240  0.6256
   69MOL   H30138517   0.253   1.970   0.003  2.2153 -0.9204 -1.0282
   69MOL   H30238518   0.106   1.958   7.490  1.0410  0.2382 -1.5516
   69MOL   H30338519   0.256   2.263   7.555  0.4578  0.0811 -0.8749
   69MOL   H30438520   0.070   2.204   0.083  0.0718 -0.7411  0.6449
   69MOL   H30538521   0.183   2.121   0.181  2.2064 -0.5512 -0.3778
   69MOL   H30638522   0.445   2.133   0.135  0.7276 -0.1958  0.2553
   69MOL   H30738523   0.439   2.305   0.094  0.2964  0.2049 -3.2479
   69MOL   H30838524   0.629   2.152   0.004  0.6150 -1.4305 -2.5900
   69MOL   H30938525   0.549   2.250   7.508  0.2239 -0.4898  0.7911
   69MOL   O31038526   0.191   2.330   0.196  0.1880 -0.5737 -0.3467
   69MOL   C31138527   0.094   2.347   0.293  0.0863  0.1571 -0.8683
   69MOL   C31238528   0.113   2.471   0.390 -0.2145 -0.6787 -0.1032
   69MOL   O31338529   0.080   2.583   0.311  0.3033  0.1070 -0.3502
   69MOL   C31438530   0.015   2.455   0.504  0.3521  0.0698 -0.7376
   69MOL   C31538531   7.621   2.586   0.584  0.3073 -0.5104  0.1020
   69MOL   C31638532   7.524   2.571   0.700  0.1555 -0.5519  0.2168
   69MOL   O31738533   7.530   2.696   0.761  0.4358  0.3998  0.1447
   69MOL   C31838534   7.575   2.465   0.799 -0.1793  1.1046 -0.3619
   69MOL   C31938535   7.482   2.450   0.919  0.2737 -0.1218  0.5627
   69MOL   C32038536   7.584   2.330   0.720 -0.4442 -0.6420  0.2671
   69MOL   C32138537   0.059   2.346   0.606 -0.0673 -0.4774 -0.1776
   69MOL   H32238538   0.097   2.252   0.347  3.5756 -0.2570 -1.6668
   69MOL   H32338539   7.625   2.356   0.247 -0.4894 -1.2017  0.0719
   69MOL   H32438540   0.216   2.477   0.426 -0.6461 -1.9115  1.3752
   69MOL   H32538541   0.140   2.576   0.239  0.4460  1.5392 -0.3812
   69MOL   H32638542   7.547   2.421   0.469 -0.0792  0.4755  0.0456
   69MOL   H32738543   0.087   2.635   0.605  0.4338 -1.0759  0.8477
   69MOL   H32838544   7.572   2.658   0.518  0.2197 -2.2875 -1.8240
   69MOL   H32938545   7.421   2.549   0.670  0.6668  0.1135 -2.1271
   69MOL   H33038546   7.482   2.758   0.709 -1.7988 -0.0199  1.6530
   69MOL   H33138547   0.040   2.501   0.840 -0.7087  0.2173  1.6788
   69MOL   H33238548   7.496   2.551   0.959  2.9259 -0.1923 -0.1028
   69MOL   H33338549   7.383   2.426   0.880 -0.4978  1.1930  1.6728
   69MOL   H33438550   7.483   2.309   0.684 -0.3812 -0.9256  0.2620
   69MOL   H33538551   7.609   2.241   0.777  4.7723  0.1644 -0.5357
   69MOL   H33638552   0.076   2.244   0.571  0.2750 -0.6983  0.6201
   69MOL   H33738553   0.151   2.389   0.644 -0.4015  2.9404 -3.0239
   69MOL   O33838554   7.537   2.370   1.024 -0.7038  0.3768  0.0044
   69MOL   C33938555   7.439   2.292   1.096 -0.2477  0.3469 -0.3121
   69MOL   C34038556   7.516   2.189   1.177 -0.4714 -0.3885 -0.2536
   69MOL   O34138557   7.605   2.132   1.082 -0.0595  0.0843  0.1139
   69MOL   C34238558   7.597   2.247   1.295 -0.5452 -0.5848  0.0840
   69MOL   C34338559   0.033   2.126   1.372 -0.2964  0.3564  0.3435
   69MOL   C34438560   0.089   2.158   1.513  0.4605  0.0177 -0.0558
   69MOL   O34538561   0.130   2.037   1.572  1.1823  0.0620 -0.4165
   69MOL   C34638562   7.620   2.235   1.599  0.6458 -0.3138  0.0427
   69MOL   C34738563   0.055   2.287   1.736  0.0154  0.2633 -0.1610
   69MOL   C34838564   7.575   2.364   1.527 -0.3210  0.9795 -0.4845
   69MOL   C34938565   7.511   2.337   1.392 -0.4915 -0.8259  1.0738
   69MOL   H35038566   7.371   2.238   1.030 -1.2986  0.8978  0.3102
   69MOL   H35138567   7.384   2.362   1.158  1.8705  2.5671 -0.8224
   69MOL   H35238568   7.444   2.111   1.201 -0.5019  0.9785  4.5747
   69MOL   H35338569   0.001   2.204   1.027 -1.0334  0.6016  0.3320
   69MOL   H35438570   0.047   2.308   1.253  0.3476 -1.5565  0.3214
   69MOL   H35538571   7.586   2.049   1.387  2.3542 -1.7169  4.0154
   69MOL   H35638572   0.111   2.085   1.308 -0.9782 -0.1668 -0.1607
   69MOL   H35738573   0.176   2.223   1.507  1.0642 -0.6553  1.3217
   69MOL   H35838574   0.142   2.053   1.665 -1.7460 -0.6821  0.1225
   69MOL   H35938575   7.534   2.176   1.632  1.0118 -0.3931  0.8551
   69MOL   H36038576   0.133   2.361   1.727 -0.4752  0.9947  1.4763
   69MOL   H36138577   7.605   2.333   1.796  0.0837 -0.3979  0.4455
   69MOL   H36238578   0.038   2.419   1.516  1.8388 -2.2073  0.9202
   69MOL   H36338579   7.495   2.411   1.585 -0.1193 -1.9351  2.3371
   69MOL   H36438580   7.482   2.430   1.343  1.3913 -0.7163  0.1135
   69MOL   H36538581   7.421   2.277   1.411 -0.2629 -0.8700  2.0690
   69MOL   O36638582   0.087   2.170   1.805 -0.2059  0.6675  0.7960
   69MOL   C36738583   0.154   2.192   1.925 -0.1401  0.5060  0.3186
   69MOL   C36838584   0.180   2.045   1.978 -0.6659 -0.3868  0.0475
   69MOL   O36938585   0.314   2.037   2.026  0.1184  0.0385 -0.0201
   69MOL   C37038586   0.076   1.993   2.078  0.1970  0.1004  0.4743
   69MOL   C37138587   0.075   2.063   2.214 -0.7618 -0.5886 -0.0119
   69MOL   C37238588   7.593   2.010   2.304 -0.3936  0.7023  0.0418
   69MOL   O37338589   7.604   2.082   2.421  0.3348  0.6443  0.2395
   69MOL   C37438590   7.602   1.865   2.338 -0.2413 -0.0187 -0.1526
   69MOL   C37538591   7.477   1.809   2.416 -0.2955  0.3502 -0.2465
   69MOL   C37638592   7.610   1.790   2.202  0.1200  0.8229 -0.4681
   69MOL   C37738593   0.081   1.843   2.099  0.3577 -0.2365 -0.0425
   69MOL   H37838594   0.082   2.240   1.992 -1.9745 -0.4193 -0.9647
   69MOL   H37938595   0.240   2.255   1.901 -0.1598  0.6685  0.6666
   69MOL   H38038596   0.187   1.974   1.896 -2.3399  0.0124 -0.4579
   69MOL   H38138597   0.327   1.980   2.100  0.1780  0.7272  0.5111
   69MOL   H38238598   7.610   2.020   2.032  0.0868 -2.5890 -1.0016
   69MOL   H38338599   0.175   2.051   2.256 -0.5901 -1.1194 -0.5611
   69MOL   H38438600   0.057   2.169   2.193  1.1416  0.5573  3.6785
   69MOL   H38538601   7.492   2.018   2.263 -0.0012 -3.3966 -1.9974
   69MOL   H38638602   0.038   2.044   2.479 -0.7354 -0.9278  0.4061
   69MOL   H38738603   0.059   1.848   2.403  1.2719  2.1109 -1.5336
   69MOL   H38838604   7.481   1.701   2.428 -1.9350  0.2690 -0.2618
   69MOL   H38938605   7.478   1.848   2.517 -2.1996  0.1846 -0.1548
   69MOL   H39038606   7.515   1.807   2.153  0.1150  1.1617 -0.3419
   69MOL   H39138607   7.627   1.685   2.227  1.9515  1.0845 -0.5449
   69MOL   H39238608   0.065   1.787   2.007 -0.9542 -0.5999  0.3953
   69MOL   H39338609   0.181   1.813   2.130  0.4385 -0.9878 -1.0246
   69MOL   O39438610   7.366   1.830   2.332  0.6260  0.2022 -0.5054
   69MOL   C39538611   7.243   1.840   2.412  0.8771 -0.5512  0.5410
   69MOL   C39638612   7.207   1.729   2.510  0.1080  0.0480  0.0280
   69MOL   O39738613   7.119   1.794   2.604  0.2319  0.3768  0.6156
   69MOL   C39838614   7.138   1.602   2.438 -0.0905 -0.4765 -0.9335
   69MOL   C39938615   7.098   1.497   2.547  0.0546  0.0723  0.1391
   69MOL   C40038616   7.029   1.374   2.478 -0.5295 -0.0987 -0.0707
   69MOL   O40138617   7.009   1.280   2.570  0.3528 -0.0041  0.1701
   69MOL   C40238618   7.107   1.306   2.372  0.3712 -0.2408  0.1276
   69MOL   C40338619   7.021   1.197   2.293  0.6588  0.0726 -0.9202
   69MOL   C40438620   7.148   1.413   2.268 -0.1559  0.3056 -0.4821
   69MOL   C40538621   7.229   1.535   2.329  0.0414 -0.2314  0.6405
   69MOL   H40638622   7.161   1.847   2.342  1.5828 -1.3453 -0.3765
   69MOL   H40738623   7.246   1.939   2.458 -1.9605 -0.6493  1.0057
   69MOL   H40838624   7.293   1.679   2.555  0.4397  1.1824  0.6872
   69MOL   H40938625   7.039   1.810   2.555  0.6829 -3.0669 -1.3810
   69MOL   H41038626   7.049   1.638   2.387 -0.2060  0.7412  0.0956
   69MOL   H41138627   7.191   1.472   2.599 -0.7436 -2.8485  0.2302
   69MOL   H41238628   7.027   1.546   2.614 -0.1650  0.6595 -0.5225
   69MOL   H41338629   6.928   1.400   2.445 -0.7872 -1.5025 -0.4379
   69MOL   H41438630   7.062   1.305   2.645  1.7703  0.6802 -1.0422
   69MOL   H41538631   7.202   1.276   2.417  0.3636  1.5930  1.4068
   69MOL   H41638632   6.996   1.129   2.374  1.9125 -1.5101 -1.8164
   69MOL   H41738633   6.934   1.254   2.262 -1.1163 -1.4265  1.1347
   69MOL   H41838634   7.060   1.453   2.219 -0.0961  1.5972  0.4382
   69MOL   H41938635   7.208   1.375   2.185  0.1667 -1.3063  0.4753
   69MOL   H42038636   7.262   1.600   2.248  1.1514 -0.8537  0.5701
   69MOL   H42138637   7.318   1.498   2.380  0.9103 -0.2000 -0.7962
   69MOL   O42238638   7.097   1.136   2.187  0.6238  0.1836 -0.0690
   69MOL   C42338639   7.026   1.034   2.124 -0.3984 -0.5085 -0.0279
   69MOL   C42438640   7.090   0.897   2.159 -0.2634  0.4205  0.2863
   69MOL   O42538641   7.052   0.868   2.290 -0.4189 -0.5843 -0.1181
   69MOL   C42638642   7.040   0.788   2.066  0.0860  0.2245  0.5329
   69MOL   C42738643   7.135   0.672   2.066  0.3283  0.3821  0.5212
   69MOL   C42838644   7.072   0.545   2.009  0.1871  0.8964 -0.3671
   69MOL   O42938645   7.171   0.445   2.015  1.0096 -0.1048  0.0354
   69MOL   C43038646   7.013   0.552   1.867 -0.4855 -0.4463  0.3750
   69MOL   C43138647   6.923   0.426   1.834 -0.5105 -0.0873 -0.2342
   69MOL   C43238648   6.925   0.679   1.861 -0.6841  0.0038  0.2894
   69MOL   C43338649   7.003   0.801   1.912 -0.1712 -0.4999 -0.2362
   69MOL   H43438650   7.039   1.058   2.018  1.1092 -1.2357 -0.0216
   69MOL   H43538651   6.917   1.033   2.135 -0.4175  0.4045 -0.0867
   69MOL   H43638652   7.198   0.909   2.152 -0.0265 -0.5975  2.1235
   69MOL   H43738653   7.116   0.912   2.343  0.2771 -1.3033 -0.3539
   69MOL   H43838654   6.948   0.753   2.112  0.0934 -0.6624 -0.0947
   69MOL   H43938655   7.217   0.700   1.999 -0.3148  0.5806 -0.1892
   69MOL   H44038656   7.176   0.662   2.166  0.2567  1.1913  0.6372
   69MOL   H44138657   6.990   0.504   2.068  0.8098  1.2677  0.7805
   69MOL   H44238658   7.182   0.424   2.106 -1.6813  0.9996  0.6708
   69MOL   H44338659   7.093   0.551   1.794  0.6844 -3.3080  1.6300
   69MOL   H44438660   6.886   0.441   1.733 -2.1664  1.6562  0.5934
   69MOL   H44538661   6.991   0.341   1.838  0.1731  0.4722  0.2912
   69MOL   H44638662   6.838   0.680   1.927 -0.5752  1.4451  0.4125
   69MOL   H44738663   6.886   0.683   1.760  1.8286 -1.2934 -0.7770
   69MOL   H44838664   6.944   0.891   1.893  0.7375  0.2227  0.3480
   69MOL   H44938665   7.093   0.819   1.852  0.1629  0.1222  0.4488
   69MOL   O45038666   6.816   0.424   1.922 -0.1713  0.8678  0.1981
   69MOL   C45138667   6.732   0.307   1.916  0.0882  0.0388  0.3253
   69MOL   C45238668   6.636   0.294   1.799  0.9639 -0.4546 -0.3614
   69MOL   O45338669   6.598   0.157   1.787  0.2135  0.1567 -0.1924
   69MOL   C45438670   6.500   0.370   1.818  0.1813  0.3453 -0.0291
   69MOL   C45538671   6.409   0.349   1.694 -0.0268  0.1748 -0.7028
   69MOL   C45638672   6.277   0.432   1.694 -1.5001  0.6377 -0.1308
   69MOL   O45738673   6.201   0.409   1.576 -0.4108 -0.7020 -0.0650
   69MOL   C45838674   6.299   0.581   1.733 -0.0618 -0.0398  0.1690
   69MOL   C45938675   6.162   0.642   1.749 -0.5283 -0.6074 -0.8653
   69MOL   C46038676   6.383   0.583   1.863  0.4521  0.4293  0.7501
   69MOL   C46138677   6.520   0.518   1.843 -0.2093 -0.8738 -0.5868
   69MOL   H46238678   6.672   0.296   2.006 -2.3038  0.1444 -1.2182
   69MOL   H46338679   6.798   0.221   1.923  0.5828  0.2077 -1.8893
   69MOL   H46438680   6.673   0.317   1.699 -0.6007  0.5652 -0.7343
   69MOL   H46538681   6.673   0.102   1.770 -0.4786 -1.0632  0.6299
   69MOL   H46638682   6.449   0.318   1.899 -0.8909  0.5126 -0.5983
   69MOL   H46738683   6.471   0.371   1.607  0.8316  1.1890  0.1583
   69MOL   H46838684   6.381   0.244   1.679  4.1422 -1.1405 -0.0377
   69MOL   H46938685   6.216   0.394   1.777 -1.8296  1.3400 -0.0529
   69MOL   H47038686   6.108   0.411   1.595 -0.1204 -0.0803  1.3373
   69MOL   H47138687   6.351   0.633   1.652 -1.5074  3.2762  1.2766
   69MOL   H47238688   6.097   0.623   1.663  0.5573 -0.1329 -1.8006
   69MOL   H47338689   6.113   0.589   1.831 -1.6163  1.8221  0.0938
   69MOL   H47438690   6.326   0.520   1.931  0.2417  2.0365  2.1122
   69MOL   H47538691   6.381   0.685   1.902 -2.9737  0.6498  0.2146
   69MOL   H47638692   6.578   0.520   1.934  1.1245 -0.5144 -1.4394
   69MOL   H47738693   6.581   0.559   1.762  1.5714  0.1332  1.2257
   69MOL   O47838694   6.172   0.786   1.759  0.4293  0.3954  0.1878
   69MOL   C47938695   6.048   0.862   1.759 -0.4496  1.0972  0.3644
   69MOL   C48038696   6.052   0.963   1.880  0.0484 -0.1127  0.0812
   69MOL   O48138697   5.952   1.064   1.852  0.4139 -0.6508  0.3278
   69MOL   C48238698   6.018   0.902   2.022  0.0138 -0.4165  0.1677
   69MOL   C48338699   6.142   0.825   2.073  0.9880  0.2066 -0.5046
   69MOL   C48438700   6.115   0.756   2.217 -0.1632  0.2616 -0.1130
   69MOL   O48538701   6.220   0.671   2.240 -0.3579 -0.6115  0.8850
   69MOL   C48638702   5.976   0.677   2.218 -0.0400 -0.1727 -0.1554
   69MOL   C48738703   5.940   0.634   2.363  0.6383 -0.2136 -0.9179
   69MOL   C48838704   5.865   0.771   2.166 -0.0946 -0.4946  0.5771
   69MOL   C48938705   5.894   0.816   2.024 -0.0092 -0.5233  0.5062
   69MOL   H49038706   5.956   0.803   1.752 -0.2903  0.9559 -0.6004
   69MOL   H49138707   6.042   0.912   1.662  1.3340 -2.1067 -1.4632
   69MOL   H49238708   6.154   0.993   1.902  0.1734 -0.9613  0.6675
   69MOL   H49338709   5.995   1.140   1.816 -1.4914  1.1105  1.6080
   69MOL   H49438710   6.026   0.985   2.092  0.4084 -0.7897  0.5710
   69MOL   H49538711   6.163   0.746   2.002 -0.1657 -2.2363  1.7794
   69MOL   H49638712   6.233   0.884   2.064  0.7227  0.9695  1.5372
   69MOL   H49738713   6.120   0.838   2.289  0.4119 -0.8621  1.1500
   69MOL   H49838714   6.198   0.632   2.323 -2.5724  3.3754  2.3086
   69MOL   H49938715   5.967   0.585   2.159  2.5498 -1.0910  0.8066
   69MOL   H50038716   5.972   0.708   2.436 -1.0796 -0.8281  0.4919
   69MOL   H50138717   5.831   0.627   2.369  0.7110 -1.5955 -1.1278
   69MOL   H50238718   5.862   0.857   2.234 -2.1150 -0.4036  0.4237
   69MOL   H50338719   5.766   0.725   2.164 -0.0253 -0.6559  0.7166
   69MOL   H50438720   5.809   0.879   2.000  0.1592  0.3040  2.0022
   69MOL   H50538721   5.903   0.730   1.959 -0.4117  0.2882 -0.6273
   69MOL   O50638722   6.002   0.511   2.400  0.4495 -0.1058  0.3226
   69MOL   C50738723   5.916   0.409   2.363 -0.5376 -0.1014 -0.0699
   69MOL   C50838724   5.997   0.278   2.372  0.2247  0.4112  0.3963
   69MOL   O50938725   5.926   0.170   2.426  0.0898 -0.2650  0.4433
   69MOL   C51038726   6.085   0.242   2.247 -0.5702 -0.1771  0.2937
   69MOL   C51138727   6.006   0.165   2.141  0.3939  0.4785  0.4354
   69MOL   C51238728   6.095   0.130   2.025 -0.3530 -0.7029 -0.6674
   69MOL   O51338729   6.019   0.054   1.938  1.0353 -0.0711  0.1208
   69MOL   C51438730   6.213   0.049   2.064  0.2557 -0.5644  0.0795
   69MOL   C51538731   6.298   0.013   1.943 -0.3697  0.5145  0.4264
   69MOL   C51638732   6.295   0.128   2.168 -0.9001  0.1038  0.0595
   69MOL   C51738733   6.213   0.164   2.289  0.4379  0.0422 -0.2605
   69MOL   H51838734   5.869   0.418   2.265  0.0992 -1.1091 -0.4773
   69MOL   H51938735   5.840   0.388   2.439  1.9791  0.5090  2.6879
   69MOL   H52038736   6.070   0.296   2.451  1.9065 -1.1432 -0.7525
   69MOL   H52138737   5.834   0.181   2.406  0.4420  1.0200 -0.5227
   69MOL   H52238738   6.117   0.338   2.206  2.0359 -1.1785 -0.1153
   69MOL   H52338739   5.959   0.078   2.187  0.8675  0.4830  0.9336
   69MOL   H52438740   5.925   0.226   2.102  1.2105  0.4510 -1.3263
   69MOL   H52538741   6.129   0.213   1.963  0.6140 -0.6431 -0.0687
   69MOL   H52638742   6.080   7.623   1.900 -0.0527 -0.5940 -0.8552
   69MOL   H52738743   6.172   7.592   2.117 -2.5377 -0.5972 -2.0167
   69MOL   H52838744   6.300   0.099   1.877 -3.8219 -1.0453 -1.8646
   69MOL   H52938745   6.396   7.609   1.976 -0.1108  1.4538  0.6023
   69MOL   H53038746   6.325   0.219   2.116 -1.4990  0.5245  0.4387
   69MOL   H53138747   6.390   0.085   2.198 -0.9990  0.1676  0.4716
   69MOL   H53238748   6.278   0.212   2.363  0.5764 -0.9961  0.3024
   69MOL   H53338749   6.173   0.076   2.339 -0.0507 -0.5835 -1.7306
   69MOL   O53438750   6.239   7.540   1.863 -0.2431 -0.1494  0.1103
   69MOL   C53538751   6.316   7.498   1.752 -0.0261  0.2267 -0.9834
   69MOL   C53638752   6.244   7.401   1.655  0.3963  0.0221 -0.6004
   69MOL   O53738753   6.163   7.323   1.737  0.3791 -0.2100 -0.2354
   69MOL   C53838754   6.160   7.470   1.543  0.1212 -0.3855 -0.5412
   69MOL   C53938755   6.051   7.575   1.601  0.0377 -0.2891 -0.0333
   69MOL   C54038756   5.978   0.015   1.484 -0.0921  0.1344  0.3922
   69MOL   O54138757   5.865   0.080   1.539  0.1272  1.2727  0.0438
   69MOL   C54238758   5.916   7.540   1.389 -0.5645 -0.1422 -0.6776
   69MOL   C54338759   5.869   7.615   1.261  0.6213 -0.0807  0.4905
   69MOL   C54438760   6.012   7.428   1.339  0.3011 -0.3636 -0.0548
   69MOL   C54538761   6.094   7.368   1.451 -0.2504  0.3556  0.4471
   69MOL   H54638762   6.395   7.441   1.801 -0.6024  1.4942  1.5282
   69MOL   H54738763   6.353   7.591   1.708 -0.2343  0.7776 -0.0185
   69MOL   H54838764   6.318   7.334   1.612 -1.3462 -2.1067 -0.3130
   69MOL   H54938765   6.125   7.384   1.798  0.6642 -0.4730  0.1992
   69MOL   H55038766   6.230   7.531   1.486  1.3019  0.0438  1.3351
   69MOL   H55138767   5.983   7.515   1.662  1.9111 -0.1231  2.3296
   69MOL   H55238768   6.094   0.025   1.662 -0.7862  0.4132 -0.3489
   69MOL   H55338769   6.052   0.068   1.424 -0.1348 -1.1096 -0.7644
   69MOL   H55438770   5.866   0.072   1.633 -3.7565  1.0963  0.1270
   69MOL   H55538771   5.817   7.510   1.425 -0.8322 -0.4953 -1.6790
   69MOL   H55638772   5.948   0.030   1.201 -2.0844 -0.3338 -3.4949
   69MOL   H55738773   5.818   7.544   1.195 -0.0519 -0.1105  1.0347
   69MOL   H55838774   6.080   7.465   1.261  1.5801  0.4771  1.4405
   69MOL   H55938775   5.945   7.358   1.288 -1.0731  0.7037  0.2596
   69MOL   H56038776   6.163   7.298   1.404 -1.4301 -0.9327  0.6030
   69MOL   H56138777   6.025   7.304   1.506  1.2074 -0.8446  0.9264
   69MOL   H56238778   5.795   0.061   1.287  1.8154  0.9178  1.0267
   70MOL     O138779   5.981   3.314   1.689  0.2918  0.4324 -0.2622
   70MOL     C238780   5.905   3.219   1.769  0.0527 -0.3758  0.8177
   70MOL     C338781   5.761   3.180   1.721  0.3391  0.2176  0.5213
   70MOL     O438782   5.772   3.139   1.584 -0.2446  0.4508 -0.1796
   70MOL     C538783   5.705   3.059   1.798  0.1102  0.3202 -1.1603
   70MOL     C638784   5.772   2.929   1.753  0.3658  0.3875 -0.0024
   70MOL     C738785   5.708   2.807   1.828  0.1554 -0.5495 -0.4312
   70MOL     O838786   5.777   2.691   1.780 -0.4027  0.0301  0.6593
   70MOL     C938787   5.554   2.802   1.803 -0.2085 -0.2887  0.2765
   70MOL    C1038788   5.497   2.680   1.875 -0.0085 -0.7586  0.2332
   70MOL    C1138789   5.487   2.930   1.857 -0.1053  0.4260 -0.6009
   70MOL    C1238790   5.545   3.051   1.793 -0.0637 -0.6029  0.3234
   70MOL    H1338791   5.896   3.254   1.872  0.2792 -0.1745  0.7696
   70MOL    H1438792   5.967   3.130   1.772  0.3465 -0.2465 -0.8191
   70MOL    H1538793   5.693   3.266   1.730  0.2159  0.1070  0.6668
   70MOL    H1638794   5.843   3.187   1.543  0.1900  0.2906  0.3782
   70MOL    H1738795   5.728   3.085   1.901 -0.8701 -0.5369 -0.7143
   70MOL    H1838796   5.754   2.914   1.646  0.0583 -0.3134  0.1437
   70MOL    H1938797   5.877   2.932   1.782  0.2923 -0.8979  0.4466
   70MOL    H2038798   5.725   2.820   1.935 -1.4339 -3.4015  0.1976
   70MOL    H2138799   5.846   2.670   1.841  1.3112  0.0586 -1.2225
   70MOL    H2238800   5.535   2.798   1.696  0.3197 -0.9367  0.2029
   70MOL    H2338801   5.551   2.589   1.852 -1.1199 -1.2617 -0.4531
   70MOL    H2438802   5.520   2.706   1.978 -0.3899  0.4357  0.0291
   70MOL    H2538803   5.491   2.946   1.964 -3.5882 -0.4165 -0.2765
   70MOL    H2638804   5.381   2.941   1.833 -0.0474 -0.1409 -1.1434
   70MOL    H2738805   5.497   3.135   1.844  0.6785 -0.9373  1.5910
   70MOL    H2838806   5.512   3.069   1.690  1.1273 -1.7429 -0.2654
   70MOL    H2938807   6.007   3.277   1.606  0.0380  1.2856 -0.7338
   70MOL    O3038808   5.352   2.675   1.865 -0.4930 -0.5503  0.3340
   70MOL    C3138809   5.293   2.578   1.953  0.2981 -0.2351  0.3394
   70MOL    C3238810   5.139   2.569   1.947  1.0493  1.3384  0.1783
   70MOL    O3338811   5.080   2.458   2.030  0.1318  0.4157 -0.0735
   70MOL    C3438812   5.055   2.700   1.983  0.6029  0.7862  0.6687
   70MOL    C3538813   5.056   2.728   2.141 -0.0492  0.3082 -0.0960
   70MOL    C3638814   4.966   2.856   2.168 -0.0327 -0.9131 -0.8741
   70MOL    O3738815   4.966   2.886   2.311  0.5249  0.2877 -0.2127
   70MOL    C3838816   4.820   2.853   2.112 -0.3027 -0.4357  0.1353
   70MOL    C3938817   4.742   2.987   2.137  0.0180  0.1081  0.8852
   70MOL    C4038818   4.835   2.825   1.962  0.1787  0.0112  0.4186
   70MOL    C4138819   4.917   2.700   1.931  0.4830  0.1903  0.0507
   70MOL    H4238820   5.330   2.605   2.052  1.5559  1.6759 -0.6092
   70MOL    H4338821   5.328   2.478   1.927 -0.3502  0.3343 -2.9466
   70MOL    H4438822   5.111   2.539   1.846  3.1137  1.7915 -0.5494
   70MOL    H4538823   5.151   2.417   2.076 -0.1679  0.7971  0.7459
   70MOL    H4638824   5.115   2.779   1.937  1.1850 -0.7824 -1.3929
   70MOL    H4738825   5.027   2.647   2.207 -1.6951 -0.9898 -2.3691
   70MOL    H4838826   5.155   2.759   2.175  0.0885 -0.1219 -0.1064
   70MOL    H4938827   5.019   2.938   2.119  1.1018 -0.8740  0.3754
   70MOL    H5038828   4.909   2.958   2.335  1.2100  0.4995  0.8079
   70MOL    H5138829   4.760   2.774   2.155  0.0499 -0.1253  1.2104
   70MOL    H5238830   4.650   2.985   2.079  0.5224 -0.2451  0.0892
   70MOL    H5338831   4.705   2.992   2.240 -1.2492 -0.2572  0.4474
   70MOL    H5438832   4.880   2.906   1.903  0.3418 -0.0252  0.4937
   70MOL    H5538833   4.744   2.799   1.908  0.1143  1.1142 -0.0229
   70MOL    H5638834   4.937   2.692   1.824 -0.0493 -3.2241  0.1543
   70MOL    H5738835   4.868   2.612   1.972  0.2321  0.1574 -0.3146
   70MOL    O5838836   4.806   3.112   2.098 -0.6330 -0.2505 -0.0547
   70MOL    C5938837   4.728   3.224   2.125  0.4358  0.0558  1.0313
   70MOL    C6038838   4.755   3.356   2.042  0.2261 -0.2001  0.3307
   70MOL    O6138839   4.875   3.406   2.098  0.1183  0.0547  0.6102
   70MOL    C6238840   4.763   3.349   1.890 -0.3761 -0.1745  1.1740
   70MOL    C6338841   4.759   3.486   1.825 -0.3118 -0.1702  0.5678
   70MOL    C6438842   4.768   3.474   1.663  0.7769  0.3034 -0.2341
   70MOL    O6538843   4.751   3.606   1.619 -0.3520  0.4050  0.1684
   70MOL    C6638844   4.657   3.384   1.613  0.2031 -1.0392 -0.1156
   70MOL    C6738845   4.666   3.357   1.461 -0.9551 -0.3460 -0.4089
   70MOL    C6838846   4.667   3.254   1.689  0.2887  0.3120 -0.5728
   70MOL    C6938847   4.640   3.272   1.838  0.2813  0.3162  0.2436
   70MOL    H7038848   4.739   3.218   2.233  0.7216  0.9607  1.0543
   70MOL    H7138849   4.622   3.208   2.105  0.5519  3.0039 -2.4685
   70MOL    H7238850   4.673   3.423   2.069 -0.3688  0.2727 -2.5444
   70MOL    H7338851   4.942   3.344   2.075 -0.0147 -0.6503  2.0903
   70MOL    H7438852   4.861   3.305   1.869 -0.2639 -0.3484  2.0279
   70MOL    H7538853   4.661   3.528   1.848 -1.0220 -0.2761 -2.0228
   70MOL    H7638854   4.831   3.558   1.863 -2.2838  0.8981  2.3578
   70MOL    H7738855   4.865   3.436   1.632  2.6160  2.9091  2.1799
   70MOL    H7838856   4.821   3.658   1.655 -1.0181  0.7990  0.9076
   70MOL    H7938857   4.560   3.424   1.643  0.7674  1.1209 -1.0849
   70MOL    H8038858   4.669   3.455   1.415 -1.3594 -0.3707 -0.4889
   70MOL    H8138859   4.759   3.301   1.453 -0.9473 -0.4951  0.6209
   70MOL    H8238860   4.766   3.218   1.661  0.4226  1.0981 -1.1391
   70MOL    H8338861   4.591   3.188   1.647 -0.3145  0.0226  0.9541
   70MOL    H8438862   4.623   3.174   1.881 -0.8432  0.6159  0.4787
   70MOL    H8538863   4.547   3.325   1.855  0.7566  1.5737 -0.9777
   70MOL    O8638864   4.555   3.274   1.418 -0.1722 -0.0253  0.2518
   70MOL    C8738865   4.600   3.156   1.343  0.1951 -0.2000  0.4093
   70MOL    C8838866   4.475   3.079   1.315 -0.3433  0.4713  0.2200
   70MOL    O8938867   4.386   3.167   1.246 -1.1584  0.1811  0.0775
   70MOL    C9038868   4.490   2.943   1.244  0.0304 -0.4635  0.6047
   70MOL    C9138869   4.559   2.951   1.099  0.0687  0.5589 -0.2133
   70MOL    C9238870   4.581   2.808   1.029 -0.0795 -0.5477  0.4953
   70MOL    O9338871   4.635   2.821   0.895 -0.1729  0.0956  0.1917
   70MOL    C9438872   4.455   2.717   1.032 -0.0679 -0.3841  0.0677
   70MOL    C9538873   4.482   2.577   0.991 -0.0780 -0.8124 -0.2106
   70MOL    C9638874   4.386   2.719   1.167  0.1121  0.2315 -0.2014
   70MOL    C9738875   4.358   2.867   1.218 -0.3526  0.0448 -0.0894
   70MOL    H9838876   4.668   3.098   1.406 -0.2010 -1.3654 -0.2206
   70MOL    H9938877   4.655   3.190   1.255  1.8370  3.7132  2.8033
   70MOL   H10038878   4.426   3.073   1.412  2.5821  0.0901  1.7052
   70MOL   H10138879   4.390   3.253   1.286 -1.5054  0.8286 -1.2355
   70MOL   H10238880   4.556   2.879   1.302  1.2525 -1.9211 -2.2902
   70MOL   H10338881   4.504   3.021   1.036 -1.8286 -0.6963  0.0291
   70MOL   H10438882   4.650   3.012   1.106 -0.5337  1.8655 -2.9358
   70MOL   H10538883   4.655   2.754   1.088 -0.4694 -1.1110  0.4673
   70MOL   H10638884   4.615   2.736   0.857  3.4619 -0.0702 -1.5681
   70MOL   H10738885   4.372   2.740   0.965  0.2621 -2.5386 -1.1118
   70MOL   H10838886   4.551   2.523   1.056  0.5778 -0.9031 -0.9643
   70MOL   H10938887   4.389   2.522   0.999 -0.8794  0.3240 -1.4318
   70MOL   H11038888   4.443   2.662   1.240  0.2414  0.7987  0.1459
   70MOL   H11138889   4.292   2.664   1.176  0.9335 -1.0389  0.8387
   70MOL   H11238890   4.304   2.847   1.311  1.0223  0.3918  0.7900
   70MOL   H11338891   4.294   2.927   1.153 -0.8994 -1.3108 -0.8333
   70MOL   O11438892   4.523   2.580   0.853  0.4952  0.5059 -0.5682
   70MOL   C11538893   4.508   2.451   0.791 -0.5335  0.5729  0.2607
   70MOL   C11638894   4.627   2.363   0.830  0.2404  0.2441 -0.0559
   70MOL   O11738895   4.592   2.229   0.831 -0.4701 -0.5032  0.4383
   70MOL   C11838896   4.755   2.382   0.740  0.9808 -0.3054 -0.9026
   70MOL   C11938897   4.877   2.305   0.798  0.5097  0.1912 -0.3095
   70MOL   C12038898   4.997   2.312   0.701  0.1004  0.2038  0.0039
   70MOL   O12138899   5.114   2.272   0.759  0.4324  0.3178 -0.5329
   70MOL   C12238900   5.035   2.454   0.643 -0.7079  0.3554 -0.4534
   70MOL   C12338901   5.129   2.446   0.523 -0.1985  0.0694  0.5450
   70MOL   C12438902   4.910   2.532   0.602 -0.7181  0.8896 -0.0205
   70MOL   C12538903   4.802   2.528   0.710  0.0619  0.3851 -0.6315
   70MOL   H12638904   4.500   2.476   0.685 -0.9152 -2.6028 -0.5275
   70MOL   H12738905   4.415   2.397   0.808  0.4258 -1.3251 -0.3664
   70MOL   H12838906   4.658   2.383   0.933 -1.6047  0.8822  0.3904
   70MOL   H12938907   4.517   2.211   0.885 -0.3751 -1.8973  0.1183
   70MOL   H13038908   4.728   2.342   0.642 -0.0268 -0.1235 -0.7131
   70MOL   H13138909   4.912   2.331   0.898 -1.0810 -1.2516  0.6496
   70MOL   H13238910   4.845   2.202   0.812  1.9075 -0.3863 -1.2654
   70MOL   H13338911   4.970   2.253   0.613  0.0060 -0.9827  0.8133
   70MOL   H13438912   5.123   2.324   0.837 -1.9119  2.6423 -1.7315
   70MOL   H13538913   5.075   2.510   0.727 -0.6729 -0.0034 -0.2342
   70MOL   H13638914   5.213   2.379   0.538 -0.7559 -0.9379 -0.7201
   70MOL   H13738915   5.079   2.414   0.431 -1.6360  1.4882  0.8022
   70MOL   H13838916   4.867   2.493   0.509  2.3704 -1.9428 -0.3387
   70MOL   H13938917   4.935   2.636   0.579  3.7408 -0.0485  0.0952
   70MOL   H14038918   4.717   2.586   0.676  0.0431 -0.2486 -1.7115
   70MOL   H14138919   4.842   2.580   0.797 -2.2170 -0.5462  1.0179
   70MOL   O14238920   5.179   2.579   0.503  0.5962 -0.5133  0.0073
   70MOL   C14338921   5.254   2.595   0.381  0.0878 -0.1391  0.2920
   70MOL   C14438922   5.163   2.611   0.260 -0.4627 -0.8171  0.0619
   70MOL   O14538923   5.086   2.727   0.290 -0.6871  0.9930  0.0633
   70MOL   C14638924   5.232   2.622   0.124 -0.3597 -0.5257  0.0757
   70MOL   C14738925   5.323   2.747   0.119 -0.1832 -0.4721 -0.2398
   70MOL   C14838926   5.384   2.775   7.608 -0.0521 -0.4219 -0.0604
   70MOL   O14938927   5.438   2.901   7.607 -0.3934  0.5006  0.0339
   70MOL   C15038928   5.287   2.770   7.488  0.3001 -0.0126 -1.1466
   70MOL   C15138929   5.371   2.776   7.359 -0.0686  0.4075  0.4223
   70MOL   C15238930   5.207   2.644   7.496  0.7313  0.0687  0.0605
   70MOL   C15338931   5.134   2.632   0.001 -0.4810  0.2215 -0.1831
   70MOL   H15438932   5.324   2.512   0.377 -0.2088 -0.3103 -3.7502
   70MOL   H15538933   5.307   2.688   0.400 -2.3949  1.2793  0.5819
   70MOL   H15638934   5.093   2.530   0.237 -2.0741  0.5945 -0.1113
   70MOL   H15738935   5.061   2.722   0.381  1.1224  0.2086  0.5358
   70MOL   H15838936   5.294   2.532   0.121  1.2061  0.5030  1.1328
   70MOL   H15938937   5.279   2.841   0.152  1.1397 -0.0795  0.4275
   70MOL   H16038938   5.399   2.733   0.196  2.0055  0.3063 -2.2179
   70MOL   H16138939   5.466   2.704   7.591  2.3500  2.0442  0.9333
   70MOL   H16238940   5.528   2.886   0.003 -0.0661  3.5891  0.9318
   70MOL   H16338941   5.214   2.851   7.492  0.6287  0.3468 -2.3394
   70MOL   H16438942   5.430   2.868   7.354 -2.0848  1.7248 -0.0295
   70MOL   H16538943   5.436   2.692   7.334  0.6280  0.8818  0.6323
   70MOL   H16638944   5.278   2.562   7.491 -0.2846 -0.8013 -0.3577
   70MOL   H16738945   5.131   2.636   7.418  0.4068 -0.3744  0.4213
   70MOL   H16838946   5.069   2.544   7.626  0.1849 -0.2313 -1.1221
   70MOL   H16938947   5.080   2.724   0.024  0.6159  1.0092 -0.7109
   70MOL   O17038948   5.280   2.785   7.249 -0.2493  0.2150 -0.4889
   70MOL   C17138949   5.342   2.828   7.126  0.2273 -0.2705 -0.0469
   70MOL   C17238950   5.240   2.831   7.008 -0.5717  0.3359  0.0677
   70MOL   O17338951   5.300   2.889   6.894  0.1191 -0.2224 -0.0075
   70MOL   C17438952   5.188   2.692   6.971  0.9513  0.1021  0.3157
   70MOL   C17538953   5.096   2.697   6.840  0.6634  0.0831  0.2856
   70MOL   C17638954   5.026   2.561   6.798  0.1516 -0.1333 -1.2187
   70MOL   O17738955   4.932   2.586   6.694  0.0469 -0.0651 -0.1372
   70MOL   C17838956   4.967   2.486   6.919  0.4883 -0.2688  0.1609
   70MOL   C17938957   4.905   2.356   6.891  0.3256  0.4196  0.0620
   70MOL   C18038958   5.072   2.469   7.023  0.3678 -0.3637 -0.1607
   70MOL   C18138959   5.111   2.613   7.079 -0.0641  0.2438 -0.2259
   70MOL   H18238960   5.436   2.777   7.106 -0.7231 -1.9457 -0.2888
   70MOL   H18338961   5.363   2.934   7.144 -1.3277  0.0867 -0.2146
   70MOL   H18438962   5.156   2.892   7.044 -0.7989 -0.0280  0.1525
   70MOL   H18538963   5.341   2.972   6.916 -1.6034  0.2087  1.7276
   70MOL   H18638964   5.276   2.634   6.944  1.1777 -0.0171  1.3120
   70MOL   H18738965   5.012   2.762   6.864  0.1736 -0.9324  1.3831
   70MOL   H18838966   5.154   2.737   6.758  0.2195 -4.4195 -2.3737
   70MOL   H18938967   5.099   2.490   6.761 -1.6392 -2.3129 -0.6809
   70MOL   H19038968   4.861   2.633   6.735  0.8783  1.3775 -0.3185
   70MOL   H19138969   4.888   2.553   6.952 -0.2125  0.9090 -3.6507
   70MOL   H19238970   4.841   2.366   6.804  0.9191 -0.1731 -0.4498
   70MOL   H19338971   4.981   2.282   6.866 -2.8863 -2.9985  0.1244
   70MOL   H19438972   5.156   2.417   6.977  0.5036 -0.0976 -0.2147
   70MOL   H19538973   5.037   2.411   7.109  4.5027 -0.3325  1.6791
   70MOL   H19638974   5.175   2.593   7.166 -0.3558  1.5971  0.3147
   70MOL   H19738975   5.027   2.672   7.114  0.3814  0.2499  0.8530
   70MOL   O19838976   4.824   2.319   7.005 -0.2620 -0.1656 -0.3705
   70MOL   C19938977   4.696   2.273   6.982  0.1948 -1.0090  0.0528
   70MOL   C20038978   4.714   2.127   6.929 -0.1665  0.1197  0.4177
   70MOL   O20138979   4.817   2.066   7.008  0.3740  0.0754  0.0212
   70MOL   C20238980   4.589   2.048   6.908 -0.3293 -0.6366 -0.0523
   70MOL   C20338981   4.621   1.923   6.830  0.2925 -0.5596 -0.1395
   70MOL   C20438982   4.502   1.831   6.827 -0.1053  0.2556  0.0998
   70MOL   O20538983   4.534   1.729   6.733 -0.6445 -0.3704 -0.2613
   70MOL   C20638984   4.383   1.904   6.757 -0.3477  0.1433 -0.0727
   70MOL   C20738985   4.258   1.812   6.743  0.0246  0.0863  0.1753
   70MOL   C20838986   4.353   2.031   6.833  0.0604  0.3690 -0.4442
   70MOL   C20938987   4.477   2.120   6.842  0.0534  0.4933 -0.3235
   70MOL   H21038988   4.656   2.349   6.915  0.4454 -1.1278 -0.2329
   70MOL   H21138989   4.645   2.277   7.079  1.5505 -2.8790  0.8768
   70MOL   H21238990   4.764   2.140   6.832 -1.2407  0.4448 -0.0979
   70MOL   H21338991   4.882   2.134   7.021 -1.1826  2.0272 -1.9908
   70MOL   H21438992   4.560   2.025   7.011  1.4490  2.2692  1.1351
   70MOL   H21538993   4.650   1.951   6.729  1.1117  1.7754  0.7211
   70MOL   H21638994   4.708   1.871   6.872 -0.2849 -1.4624 -0.0551
   70MOL   H21738995   4.470   1.783   6.919 -0.4211 -1.4188 -0.8618
   70MOL   H21838996   4.477   1.654   6.742 -0.5667 -0.3727  0.2307
   70MOL   H21938997   4.412   1.931   6.655  1.7823  0.3171  0.5620
   70MOL   H22038998   4.167   1.864   6.711 -1.1765 -3.1117 -1.9043
   70MOL   H22138999   4.284   1.737   6.668 -0.1609 -1.1943  1.3825
   70MOL   H22239000   4.308   2.020   6.932  1.3255  0.0252  0.1064
   70MOL   H22339001   4.271   2.089   6.791  0.4263  1.0209 -0.2560
   70MOL   H22439002   4.442   2.208   6.896  1.9388  0.9283  0.2211
   70MOL   H22539003   4.513   2.155   6.745 -2.6337  1.2261 -1.1042
   70MOL   O22639004   4.230   1.766   6.877 -0.2626  0.3069 -0.8097
   70MOL   C22739005   4.171   1.639   6.881  0.3030 -0.9142 -0.6708
   70MOL   C22839006   4.272   1.518   6.875 -0.3516  0.5948  0.3040
   70MOL   O22939007   4.328   1.529   6.744  0.2788 -0.3454  0.3467
   70MOL   C23039008   4.384   1.517   6.983 -0.4400 -0.7133  0.0566
   70MOL   C23139009   4.429   1.368   6.994 -0.3456 -0.4775 -0.3210
   70MOL   C23239010   4.561   1.362   7.080 -0.4643  0.7197  0.3253
   70MOL   O23339011   4.579   1.217   7.088  0.1233 -0.0733 -0.1992
   70MOL   C23439012   4.537   1.418   7.222 -0.5804 -0.9020  0.2096
   70MOL   C23539013   4.673   1.423   7.311 -0.3971  0.5527  0.0644
   70MOL   C23639014   4.469   1.559   7.221 -0.1926 -0.1103  0.0508
   70MOL   C23739015   4.353   1.566   7.129 -0.1996  0.3401  0.1321
   70MOL   H23839016   4.083   1.636   6.817 -0.9389 -1.5366  1.0222
   70MOL   H23939017   4.127   1.627   6.980  0.7375 -0.4865 -0.4245
   70MOL   H24039018   4.209   1.430   6.884  0.8679 -0.3645 -0.4704
   70MOL   H24139019   4.268   1.492   6.682  0.6077 -2.0932  1.0097
   70MOL   H24239020   4.468   1.577   6.947  0.8345 -2.7060 -0.3284
   70MOL   H24339021   4.351   1.304   7.036  0.1230  0.6728  2.4208
   70MOL   H24439022   4.446   1.320   6.897 -1.1193 -0.0405 -0.6788
   70MOL   H24539023   4.646   1.415   7.037 -0.0416 -0.2385 -0.0279
   70MOL   H24639024   4.595   1.191   6.999  0.4646 -1.9884  0.3885
   70MOL   H24739025   4.467   1.351   7.273  0.7600 -3.1437 -0.8071
   70MOL   H24839026   4.724   1.326   7.310  0.5923  1.0540 -1.6357
   70MOL   H24939027   4.741   1.492   7.261  0.7378 -2.6306 -3.0277
   70MOL   H25039028   4.541   1.635   7.192  1.2361 -0.8613  1.5546
   70MOL   H25139029   4.443   1.583   7.324 -2.1339 -2.8234  0.2549
   70MOL   H25239030   4.304   1.663   7.134 -0.5791  0.1293  0.6082
   70MOL   H25339031   4.276   1.506   7.177 -0.6270  0.8480  0.0822
   70MOL   O25439032   4.641   1.468   7.442 -0.4076 -0.3083 -0.3308
   70MOL   C25539033   4.753   1.499   7.524  0.7315 -0.1794 -0.0159
   70MOL   C25639034   4.732   1.632   7.595  0.2197  0.6415 -1.0534
   70MOL   O25739035   4.838   1.652   0.052  0.2598  0.0733 -0.1703
   70MOL   C25839036   4.711   1.755   7.505 -0.3149  0.3948  0.3097
   70MOL   C25939037   4.824   1.791   7.404  0.9879  0.3299 -0.3257
   70MOL   C26039038   4.792   1.924   7.320  0.8528 -0.6888 -0.0048
   70MOL   O26139039   4.895   1.935   7.224  0.0285 -0.3661 -0.2299
   70MOL   C26239040   4.776   2.040   7.420  0.1025  0.0832  0.0155
   70MOL   C26339041   4.780   2.182   7.361 -0.1002 -0.2335  0.0554
   70MOL   C26439042   4.648   2.007   7.497  0.3689  0.1594 -0.0279
   70MOL   C26539043   4.660   1.884   7.582  0.3844 -0.0688 -0.3876
   70MOL   H26639044   4.846   1.511   7.469  0.2951  1.6200 -0.4031
   70MOL   H26739045   4.762   1.421   7.600 -0.1567  0.7452  1.0503
   70MOL   H26839046   4.643   1.614   0.027  0.4947 -3.6622 -1.7972
   70MOL   H26939047   4.805   1.634   0.139 -2.5034 -1.1115 -1.4063
   70MOL   H27039048   4.631   1.719   7.440 -0.1467  2.5337 -1.1509
   70MOL   H27139049   4.908   1.815   7.468  0.7698 -1.0284  0.4669
   70MOL   H27239050   4.862   1.716   7.334 -0.2187 -1.1206  0.5480
   70MOL   H27339051   4.699   1.906   7.266  1.9234  0.7712 -2.4124
   70MOL   H27439052   4.862   1.984   7.150  2.5229  2.1347  0.2361
   70MOL   H27539053   4.860   2.026   7.489 -0.7873 -0.1317  1.0728
   70MOL   H27639054   4.866   2.187   7.294 -0.3497  0.9427 -0.1934
   70MOL   H27739055   4.689   2.198   7.302  0.5862  3.2705 -0.2058
   70MOL   H27839056   4.555   2.003   7.440  1.0388 -3.3280 -1.0325
   70MOL   H27939057   4.626   2.090   7.564 -0.8510  1.2574 -1.7810
   70MOL   H28039058   4.564   1.867   0.001 -0.4896  0.8151 -1.7526
   70MOL   H28139059   4.727   1.910   0.034  1.5235  1.5891 -1.8227
   70MOL   O28239060   4.789   2.275   7.471  0.3863  0.3115  0.2643
   70MOL   C28339061   4.830   2.404   7.431  0.9043  0.0218 -0.0969
   70MOL   C28439062   4.718   2.491   7.367 -0.0198 -0.3963  0.5756
   70MOL   O28539063   4.603   2.494   7.451  0.3111  0.5622  0.3754
   70MOL   C28639064   4.764   2.634   7.331  0.2104 -0.7246  0.6969
   70MOL   C28739065   4.796   2.723   7.452  0.2927 -0.2852  0.1171
   70MOL   C28839066   4.837   2.866   7.418 -0.1872 -0.1822  0.4211
   70MOL   O28939067   4.865   2.938   7.531 -0.4057 -0.3993 -0.5177
   70MOL   C29039068   4.732   2.933   7.326  0.2086  0.6378 -0.0204
   70MOL   C29139069   4.755   3.079   7.295  0.6837 -1.0583 -0.0233
   70MOL   C29239070   4.691   2.846   7.207  0.0371  0.3354 -0.1062
   70MOL   C29339071   4.652   2.701   7.244 -0.3034  0.3391  0.1103
   70MOL   H29439072   4.915   2.402   7.363  1.8428 -1.6302  1.0975
   70MOL   H29539073   4.857   2.459   7.520 -1.7393  0.5402  0.4421
   70MOL   H29639074   4.678   2.443   7.278 -0.7293 -0.6799  1.0427
   70MOL   H29739075   4.632   2.526   7.535  1.5549 -2.8826  1.3632
   70MOL   H29839076   4.849   2.636   7.262  0.6116  0.8196  1.2219
   70MOL   H29939077   4.702   2.724   7.508  0.7468  0.8054  0.8804
   70MOL   H30039078   4.878   2.674   7.505  1.1731 -0.5444 -1.4666
   70MOL   H30139079   4.934   2.865   7.369 -0.0416 -0.9190  0.7236
   70MOL   H30239080   4.925   3.012   7.531 -0.4105 -0.3576 -2.5569
   70MOL   H30339081   4.645   2.924   7.391  1.2712 -2.6075  1.0608
   70MOL   H30439082   4.821   3.125   7.369 -2.0045  0.5084  1.4755
   70MOL   H30539083   4.807   3.090   7.200  1.6445 -0.2290  0.5884
   70MOL   H30639084   4.774   2.847   7.136  0.7907  0.7452  0.7664
   70MOL   H30739085   4.601   2.886   7.159  1.1280  0.6482 -1.9347
   70MOL   H30839086   4.659   2.645   7.151  1.0136  0.0744  0.3622
   70MOL   H30939087   4.559   2.688   7.298 -0.9934 -2.6669 -1.7120
   70MOL   O31039088   4.624   3.136   7.298 -0.2613  0.1308  0.8471
   70MOL   C31139089   4.612   3.257   7.229  0.6994  0.0343  0.4014
   70MOL   C31239090   4.565   3.236   7.087 -0.0517 -0.1464 -0.5288
   70MOL   O31339091   4.443   3.166   7.099 -0.4575 -0.6845  0.3270
   70MOL   C31439092   4.551   3.373   7.020  0.5569 -0.1363 -0.1505
   70MOL   C31539093   4.680   3.461   7.022  0.2747  0.3661  0.3377
   70MOL   C31639094   4.671   3.578   6.920 -0.7011  0.2186  0.0150
   70MOL   O31739095   4.771   3.664   6.950  0.4054 -0.2956 -0.5099
   70MOL   C31839096   4.538   3.665   6.950 -0.0078 -0.4151 -0.1933
   70MOL   C31939097   4.525   3.780   6.846 -0.3284 -0.4244  0.4883
   70MOL   C32039098   4.411   3.571   6.948 -0.2028 -0.0002 -0.1114
   70MOL   C32139099   4.430   3.459   7.051 -0.5735  0.7023 -0.0665
   70MOL   H32239100   4.698   3.323   7.242  0.7181  0.1401 -0.2510
   70MOL   H32339101   4.534   3.317   7.275  1.6447  1.2072  0.4985
   70MOL   H32439102   4.634   3.170   7.034  0.3200  0.0397 -0.2747
   70MOL   H32539103   4.440   3.145   7.191 -1.1152  1.1765  0.7708
   70MOL   H32639104   4.552   3.342   6.915  0.4794  1.7601 -0.7272
   70MOL   H32739105   4.694   3.497   7.124  0.7837  1.0182  0.0461
   70MOL   H32839106   4.767   3.404   6.990  0.2402  0.8576 -0.6599
   70MOL   H32939107   4.670   3.540   6.818 -2.1372  1.5662 -0.4974
   70MOL   H33039108   4.745   3.749   6.919  0.6611  0.1799  0.5462
   70MOL   H33139109   4.548   3.722   7.042 -1.3014  1.5700 -1.2348
   70MOL   H33239110   4.532   3.738   6.746  1.0701  0.4466  0.2191
   70MOL   H33339111   4.425   3.819   6.866 -0.6456 -1.8539  1.8113
   70MOL   H33439112   4.397   3.530   6.848 -0.1553  0.5846 -0.3617
   70MOL   H33539113   4.321   3.633   6.953 -0.2496  0.1169 -1.7882
   70MOL   H33639114   4.340   3.397   7.043  0.4646 -0.7639 -0.5805
   70MOL   H33739115   4.423   3.488   7.155 -1.5109  1.7912 -0.4289
   70MOL   O33839116   4.617   3.884   6.855 -0.7262 -0.2090 -0.5215
   70MOL   C33939117   4.592   3.991   6.765 -0.9762 -0.2416  0.4295
   70MOL   C34039118   4.712   4.084   6.765  0.8979 -0.0635  0.1419
   70MOL   O34139119   4.833   4.017   6.721 -0.0054  0.2443  0.1796
   70MOL   C34239120   4.696   4.213   6.687  0.4312  1.4288  0.1026
   70MOL   C34339121   4.703   4.206   6.533 -0.7907 -0.0403  0.8756
   70MOL   C34439122   4.687   4.342   6.462 -0.0351  0.2835 -0.0078
   70MOL   O34539123   4.732   4.312   6.326  0.3454 -0.2704 -0.2846
   70MOL   C34639124   4.775   4.454   6.526  0.0881  0.7854 -1.2637
   70MOL   C34739125   4.728   4.600   6.488  0.7926  0.0493 -0.0025
   70MOL   C34839126   4.773   4.455   6.681  0.3361  0.4175 -0.1085
   70MOL   C34939127   4.794   4.314   6.733 -0.2988  0.5179 -0.1914
   70MOL   H35039128   4.493   4.033   6.785 -2.2020 -2.1755 -1.3089
   70MOL   H35139129   4.564   3.958   6.665  0.0516  1.1356 -0.3243
   70MOL   H35239130   4.727   4.125   6.865 -0.4551  0.1407  0.2772
   70MOL   H35339131   4.845   3.940   6.774  0.6056  1.7233  2.2235
   70MOL   H35439132   4.604   4.258   6.723  0.6339  2.1736 -0.2856
   70MOL   H35539133   4.799   4.168   6.496 -1.9474 -2.4953  0.3575
   70MOL   H35639134   4.634   4.138   6.484 -0.0608 -0.4450  0.4012
   70MOL   H35739135   4.583   4.374   6.462  0.5014  2.1170  2.5460
   70MOL   H35839136   4.826   4.321   6.328  0.4463 -1.6031  1.4189
   70MOL   H35939137   4.879   4.445   6.497  0.1302 -0.2509 -0.8147
   70MOL   H36039138   4.787   4.675   6.540  1.7386  0.1751 -1.2221
   70MOL   H36139139   4.742   4.619   6.382  0.9344  2.4459  0.4252
   70MOL   H36239140   4.677   4.491   6.719 -0.0915 -0.0632 -0.7220
   70MOL   H36339141   4.845   4.529   6.714  1.1833 -1.2010  1.8118
   70MOL   H36439142   4.780   4.310   6.841 -0.9562  0.3447 -0.2814
   70MOL   H36539143   4.894   4.276   6.709  0.8527  3.5890 -0.4205
   70MOL   O36639144   4.591   4.625   6.516  0.3053 -0.7302  0.8174
   70MOL   C36739145   4.556   4.762   6.538  0.3082 -0.0275  1.0428
   70MOL   C36839146   4.560   4.789   6.687 -0.4232  0.1132 -0.5696
   70MOL   O36939147   4.689   4.800   6.733 -0.2591 -0.1429 -0.1091
   70MOL   C37039148   4.489   4.925   6.728  0.7513 -0.7766  0.6456
   70MOL   C37139149   4.558   5.055   6.671 -0.3389 -0.2168  0.0926
   70MOL   C37239150   4.495   5.191   6.712  0.7063  1.0889 -0.0466
   70MOL   O37339151   4.585   5.289   6.669 -0.2775 -0.4127  0.8971
   70MOL   C37439152   4.470   5.193   6.867  0.7842  0.6116 -0.1139
   70MOL   C37539153   4.386   5.312   6.907  0.0372 -1.0481  0.0367
   70MOL   C37639154   4.401   5.068   6.917 -0.7680  0.3822 -0.5063
   70MOL   C37739155   4.474   4.936   6.882 -0.3577  0.4290 -0.3130
   70MOL   H37839156   4.458   4.774   6.493  0.6370 -0.5556  0.1655
   70MOL   H37939157   4.623   4.823   6.478 -1.3636 -0.3554 -1.2214
   70MOL   H38039158   4.511   4.715   6.749  0.4634  0.5330  0.6540
   70MOL   H38139159   4.736   4.858   6.674  1.5063  0.0747  1.4556
   70MOL   H38239160   4.393   4.916   6.677 -1.4472  1.3384  4.1558
   70MOL   H38339161   4.661   5.044   6.704 -0.4357 -1.6238 -0.0326
   70MOL   H38439162   4.560   5.042   6.563 -0.0695  2.0438 -0.1988
   70MOL   H38539163   4.401   5.187   6.657  1.3560  0.6357 -1.1318
   70MOL   H38639164   4.560   5.378   6.689 -0.4782 -0.0973 -0.7290
   70MOL   H38739165   4.561   5.204   6.926  0.7080 -0.9111  0.3030
   70MOL   H38839166   4.286   5.313   6.865 -0.2624 -0.1586  0.7416
   70MOL   H38939167   4.363   5.310   7.014  0.0977 -0.1222  0.0715
   70MOL   H39039168   4.298   5.072   6.883 -1.1973  1.1720  0.8615
   70MOL   H39139169   4.395   5.079   7.025  0.8808  1.3401 -0.4930
   70MOL   H39239170   4.415   4.854   6.923 -0.0378 -0.0813 -0.8555
   70MOL   H39339171   4.568   4.950   6.935 -0.0773 -0.4542 -0.5590
   70MOL   O39439172   4.460   5.430   6.885 -0.3740  0.2243 -0.0100
   70MOL   C39539173   4.379   5.543   6.929 -0.2298  0.1760  0.2722
   70MOL   C39639174   4.467   5.657   6.988  0.3778 -0.9079 -0.8197
   70MOL   O39739175   4.542   5.730   6.889  0.4723 -0.1535  0.1129
   70MOL   C39839176   4.382   5.756   7.074 -0.5702  0.0981 -0.9533
   70MOL   C39939177   4.290   5.852   7.000  0.6070 -0.1483  0.1021
   70MOL   C40039178   4.230   5.947   7.103  0.3879  0.2348 -0.7395
   70MOL   O40139179   4.134   6.029   7.044 -0.2602  0.1509 -0.4489
   70MOL   C40239180   4.332   6.022   7.187 -0.6701 -0.4360 -0.6761
   70MOL   C40339181   4.269   6.117   7.292  0.7203  0.1783  0.6355
   70MOL   C40439182   4.418   5.914   7.265 -0.5023 -0.1565  0.1742
   70MOL   C40539183   4.490   5.830   7.166  0.0730  0.0143 -0.1503
   70MOL   H40639184   4.301   5.511   6.997 -1.4253  0.6420 -0.8617
   70MOL   H40739185   4.328   5.596   6.849  0.0285  0.5168  0.3325
   70MOL   H40839186   4.538   5.615   7.058  0.8715  0.4918 -0.4619
   70MOL   H40939187   4.612   5.672   6.862  0.5420 -0.7037  1.4679
   70MOL   H41039188   4.323   5.694   7.142 -0.6248 -1.1563 -2.1258
   70MOL   H41139189   4.344   5.900   6.918 -0.6314  2.7343  0.9531
   70MOL   H41239190   4.212   5.793   6.952  1.1491 -1.1348  0.4194
   70MOL   H41339191   4.171   5.885   7.171  1.8203  1.8282  2.0875
   70MOL   H41439192   4.128   6.110   7.091  3.7411  0.0855  0.3179
   70MOL   H41539193   4.391   6.086   7.123 -0.0896  0.3311  0.6141
   70MOL   H41639194   4.207   6.057   7.358  0.2937 -0.7525 -0.6081
   70MOL   H41739195   4.349   6.161   7.352  0.5023 -1.0942  1.8965
   70MOL   H41839196   4.362   5.850   7.334 -1.2874 -1.3819 -1.5625
   70MOL   H41939197   4.490   5.968   7.327 -0.0706  0.0884 -0.5401
   70MOL   H42039198   4.560   5.765   7.218  2.6069 -0.2560 -3.7351
   70MOL   H42139199   4.559   5.882   7.100  1.1520 -2.0505 -0.6801
   70MOL   O42239200   4.216   6.222   7.212 -0.5869 -0.4156  0.2431
   70MOL   C42339201   4.194   6.337   7.279 -0.1270  0.6428  0.1294
   70MOL   C42439202   4.246   6.448   7.181 -0.2677 -0.0191 -0.3987
   70MOL   O42539203   4.202   6.567   7.246 -0.6718 -1.0548 -0.2612
   70MOL   C42639204   4.406   6.432   7.160  0.4979  0.2426 -0.0845
   70MOL   C42739205   4.487   6.445   7.301 -0.5202  0.4724 -0.6179
   70MOL   C42839206   4.644   6.466   7.286 -0.1738  0.8357  0.2862
   70MOL   O42939207   4.690   6.501   7.405  0.3531  0.4411 -0.1353
   70MOL   C43039208   4.681   6.566   7.176  0.1195  0.0745 -0.7260
   70MOL   C43139209   4.835   6.567   7.155 -0.2112  0.3568  0.1072
   70MOL   C43239210   4.612   6.528   7.045 -0.6033 -0.0973 -0.6570
   70MOL   C43339211   4.459   6.538   7.059 -0.9852 -0.4561 -0.0606
   70MOL   H43439212   4.235   6.331   7.380 -1.7935 -1.7027  0.7056
   70MOL   H43539213   4.088   6.358   7.294  0.3175  2.6361  0.5869
   70MOL   H43639214   4.202   6.426   7.084 -0.9811 -0.5453  0.0391
   70MOL   H43739215   4.222   6.554   7.337 -1.2657  3.0819  0.5636
   70MOL   H43839216   4.421   6.331   7.124 -3.0898  0.5514 -2.7170
   70MOL   H43939217   4.458   6.536   7.352 -0.4968  0.2134 -0.1440
   70MOL   H44039218   4.480   6.360   7.369 -1.1060  1.5787  0.7063
   70MOL   H44139219   4.693   6.376   7.251  0.3527  1.8777 -1.7217
   70MOL   H44239220   4.667   6.591   7.419  2.1781  0.8679  0.3334
   70MOL   H44339221   4.653   6.665   7.212  0.0050 -0.3358  0.3241
   70MOL   H44439222   4.857   6.663   7.109  0.0748  1.0659  1.6991
   70MOL   H44539223   4.887   6.577   7.250  0.2601  2.3205 -0.3475
   70MOL   H44639224   4.641   6.431   7.007 -1.3539 -0.5771 -0.0127
   70MOL   H44739225   4.637   6.602   6.969  2.1963  0.6804  0.9127
   70MOL   H44839226   4.417   6.519   6.960 -1.8855 -0.5165  0.3292
   70MOL   H44939227   4.432   6.637   7.097 -0.3280 -0.8734  1.5517
   70MOL   O45039228   4.870   6.451   7.082  0.0916 -0.3534 -0.0140
   70MOL   C45139229   5.007   6.458   7.040 -0.6595  0.5975 -0.0872
   70MOL   C45239230   5.041   6.344   6.946 -0.0363 -0.5017 -0.4916
   70MOL   O45339231   5.071   6.224   7.015 -0.1153  0.2051 -0.3043
   70MOL   C45439232   4.929   6.317   6.840  0.0348 -1.0813 -0.1653
   70MOL   C45539233   4.987   6.229   6.726 -0.2056 -0.5157  0.3611
   70MOL   C45639234   4.879   6.176   6.629  0.4448 -0.0124 -0.5737
   70MOL   O45739235   4.927   6.076   6.544 -0.2934  0.0269 -0.0003
   70MOL   C45839236   4.822   6.297   6.550  0.2923  0.8861 -0.5127
   70MOL   C45939237   4.706   6.263   6.452  0.3345  0.1252  0.4899
   70MOL   C46039238   4.788   6.415   6.649 -0.3467 -0.1904  0.4964
   70MOL   C46139239   4.886   6.449   6.771  0.1411 -0.6123 -0.3109
   70MOL   H46239240   5.074   6.462   7.126 -1.4849 -1.8987  0.7005
   70MOL   H46339241   5.016   6.551   6.984 -2.9197  0.7579 -0.2184
   70MOL   H46439242   5.135   6.364   6.895  0.0872 -1.8830 -0.8378
   70MOL   H46539243   4.994   6.194   7.061  0.6444  0.0177  0.8467
   70MOL   H46639244   4.842   6.272   6.887  0.3915  1.4130  3.0040
   70MOL   H46739245   5.069   6.277   6.672 -0.4154  0.6610  1.0692
   70MOL   H46839246   5.026   6.140   6.774 -2.0619 -1.2648  0.5311
   70MOL   H46939247   4.795   6.134   6.685 -0.3930  1.1868 -0.9041
   70MOL   H47039248   4.882   6.093   6.463 -0.6562 -1.7050 -0.1896
   70MOL   H47139249   4.908   6.323   6.488 -0.8402  1.6625 -1.7716
   70MOL   H47239250   4.641   6.198   6.511  2.0042 -3.1686 -1.1448
   70MOL   H47339251   4.653   6.354   6.425  3.5883  2.1500  0.6968
   70MOL   H47439252   4.689   6.414   6.693 -0.0649  1.4373  1.1973
   70MOL   H47539253   4.776   6.498   6.579  1.3379  0.4253  0.9154
   70MOL   H47639254   4.829   6.510   6.841 -1.8973 -1.5482 -1.1106
   70MOL   H47739255   4.969   6.508   6.733  0.0502  0.5770  1.2985
   70MOL   O47839256   4.771   6.198   6.346  0.5834 -0.7009 -0.8352
   70MOL   C47939257   4.698   6.150   6.244 -0.1578  0.5076 -0.7891
   70MOL   C48039258   4.785   6.164   6.124 -0.4124  0.2534 -0.2743
   70MOL   O48139259   4.889   6.068   6.139 -0.6938 -0.0571  0.2110
   70MOL   C48239260   4.724   6.156   5.984 -0.0301 -0.3892 -0.2001
   70MOL   C48339261   4.675   6.299   5.937  0.6555  0.5069  0.1896
   70MOL   C48439262   4.623   6.284   5.793 -0.6169 -0.1398  0.7068
   70MOL   O48539263   4.570   6.408   5.752 -0.0411  0.2058  0.5364
   70MOL   C48639264   4.524   6.168   5.776 -0.3010 -0.4007 -0.3536
   70MOL   C48739265   4.490   6.165   5.623 -0.2041 -0.5607 -0.0988
   70MOL   C48839266   4.582   6.034   5.818  0.2117 -0.1048 -0.0682
   70MOL   C48939267   4.611   6.046   5.964 -0.2707  0.0052  0.1101
   70MOL   H49039268   4.604   6.203   6.224 -0.3523  0.2570 -0.5421
   70MOL   H49139269   4.669   6.047   6.265  0.5087  0.6785  1.0380
   70MOL   H49239270   4.832   6.261   6.136  0.3342 -0.2115  0.5896
   70MOL   H49339271   4.954   6.113   6.191 -1.3860 -0.0847  1.1117
   70MOL   H49439272   4.811   6.132   5.924 -1.5387 -1.0030 -2.2219
   70MOL   H49539273   4.594   6.341   5.997 -0.9985 -1.9112 -0.2908
   70MOL   H49639274   4.751   6.377   5.932 -0.5544  1.6046 -1.6065
   70MOL   H49739275   4.714   6.260   5.738 -0.5845  0.8900  0.2925
   70MOL   H49839276   4.643   6.457   5.717  1.5023 -1.3426  1.4917
   70MOL   H49939277   4.444   6.198   5.843  0.7584 -2.0612  1.7036
   70MOL   H50039278   4.445   6.256   5.583  2.2575 -0.4035 -2.6839
   70MOL   H50139279   4.580   6.147   5.563  0.7584  0.4454  1.0126
   70MOL   H50239280   4.668   6.028   5.751 -0.2059 -4.0831 -0.3507
   70MOL   H50339281   4.511   5.952   5.810 -0.9594  0.6354  2.2994
   70MOL   H50439282   4.645   5.946   5.991 -0.3822  0.0416  0.3884
   70MOL   H50539283   4.518   6.057   6.021  0.1745  2.2057  0.4466
   70MOL   O50639284   4.386   6.065   5.610  0.1422  0.2398  0.0775
   70MOL   C50739285   4.346   6.032   5.474 -0.5820  0.0317 -0.8734
   70MOL   C50839286   4.276   6.152   5.407  0.4388  0.1559 -0.0829
   70MOL   O50939287   4.372   6.238   5.337 -0.5057  0.0002  0.1034
   70MOL   C51039288   4.151   6.113   5.330 -0.6622  1.2393  0.1266
   70MOL   C51139289   4.195   6.025   5.205 -0.0539  0.1242 -0.1791
   70MOL   C51239290   4.082   5.986   5.107 -0.0276  0.2355  0.9730
   70MOL   O51339291   4.139   5.932   4.993  0.5399  0.0054  0.3513
   70MOL   C51439292   4.007   6.118   5.070 -0.3894  0.8955 -0.1957
   70MOL   C51539293   3.898   6.099   4.955 -0.1956 -0.2646 -0.1265
   70MOL   C51639294   3.943   6.183   5.196 -0.7128  0.0452 -1.2219
   70MOL   C51739295   4.057   6.231   5.295 -0.1353 -0.2666 -0.0489
   70MOL   H51839296   4.284   5.944   5.492  0.2964 -0.2744  0.6978
   70MOL   H51939297   4.437   6.002   5.423 -1.4656 -1.4599 -1.6277
   70MOL   H52039298   4.239   6.219   5.485  0.9792 -0.4118  0.6787
   70MOL   H52139299   4.419   6.200   5.264  0.4403  1.8043 -0.2604
   70MOL   H52239300   4.099   6.041   5.393 -1.0347  1.0402 -0.4012
   70MOL   H52339301   4.272   6.081   5.151  0.6513  0.2113  0.9155
   70MOL   H52439302   4.238   5.931   5.240 -0.2591 -0.1129 -0.5537
   70MOL   H52539303   4.004   5.919   5.142 -1.0044  1.1772  0.6086
   70MOL   H52639304   4.187   5.851   5.005  1.4020  0.4801  0.1468
   70MOL   H52739305   4.090   6.184   5.045 -0.1670 -0.5646 -3.5096
   70MOL   H52839306   3.951   6.099   4.860 -0.9997 -0.7346 -0.5831
   70MOL   H52939307   3.832   6.014   4.970 -0.3555  0.1363  1.4507
   70MOL   H53039308   3.870   6.112   5.236  0.1222  0.5259  1.2138
   70MOL   H53139309   3.891   6.276   5.171  1.6568  1.2225 -1.9024
   70MOL   H53239310   4.012   6.272   5.386  0.2349  2.1457 -0.8951
   70MOL   H53339311   4.117   6.308   5.246  0.5531 -0.9124 -0.2297
   70MOL   O53439312   3.826   6.217   4.951  0.1190 -0.5500  0.0777
   70MOL   C53539313   3.740   6.230   4.837 -0.2934 -0.0458 -0.2557
   70MOL   C53639314   3.653   6.360   4.853 -1.0916 -0.1138 -0.4699
   70MOL   O53739315   3.606   6.384   4.720 -0.0410 -0.2101  0.3485
   70MOL   C53839316   3.531   6.354   4.944 -0.9537 -0.1245  0.3196
   70MOL   C53939317   3.423   6.252   4.895  0.5350  0.6659  0.0857
   70MOL   C54039318   3.315   6.251   5.006  0.4842 -0.0514  0.3143
   70MOL   O54139319   3.205   6.173   4.962 -0.2293 -0.6504  0.3364
   70MOL   C54239320   3.254   6.397   5.042  0.3017  0.2660  0.4258
   70MOL   C54339321   3.163   6.391   5.161  0.1933 -0.0418 -0.5765
   70MOL   C54439322   3.369   6.486   5.075  0.7494 -0.3300 -0.3866
   70MOL   C54539323   3.469   6.493   4.970  0.0970 -0.0741 -0.2382
   70MOL   H54639324   3.678   6.141   4.825  0.8963 -0.9482  0.2708
   70MOL   H54739325   3.808   6.247   4.754  1.9024 -2.0745  1.0796
   70MOL   H54839326   3.725   6.440   4.868 -0.6738 -0.8786  1.8450
   70MOL   H54939327   3.512   6.396   4.717 -0.1035 -0.8782 -0.5055
   70MOL   H55039328   3.568   6.318   5.040 -0.1814 -0.2912 -0.0297
   70MOL   H55139329   3.371   6.288   4.806 -0.2597 -1.8303 -0.4886
   70MOL   H55239330   3.467   6.156   4.869 -0.7904 -0.4162  1.8244
   70MOL   H55339331   3.355   6.205   5.097  0.8530  0.8447  0.6134
   70MOL   H55439332   3.140   6.162   5.030 -0.4013 -0.5555  0.1880
   70MOL   H55539333   3.205   6.434   4.952 -0.2053 -0.7999  0.2559
   70MOL   H55639334   3.068   6.345   5.134  0.0908 -0.3931  0.3615
   70MOL   H55739335   3.200   6.333   5.246  0.4734 -0.1779 -0.7932
   70MOL   H55839336   3.405   6.457   5.174 -2.5582 -1.6088  0.5083
   70MOL   H55939337   3.325   6.585   5.077  1.0206 -0.2372  1.3941
   70MOL   H56039338   3.544   6.565   5.004 -0.3657 -0.9928  2.9276
   70MOL   H56139339   3.437   6.531   4.873  0.7984  1.3051  0.0604
   70MOL   H56239340   3.136   6.490   5.198  0.4980  0.0203 -0.5207
   71MOL     O139341   1.521   2.531   2.034 -0.1209  0.5220  0.5731
   71MOL     C239342   1.606   2.414   2.037 -0.2850 -0.3050 -0.5982
   71MOL     C339343   1.592   2.336   1.903 -0.5207 -1.0043  0.0715
   71MOL     O439344   1.621   2.426   1.795 -0.0537 -0.4743  0.1116
   71MOL     C539345   1.678   2.208   1.907  0.1191  0.5560  0.0875
   71MOL     C639346   1.829   2.234   1.880 -0.3168  0.7800 -0.1219
   71MOL     C739347   1.924   2.119   1.886 -0.2808  0.0632 -0.1321
   71MOL     O839348   2.044   2.160   1.819  0.2364  0.2762 -0.1388
   71MOL     C939349   1.872   1.993   1.799  0.3334  0.1797  0.2964
   71MOL    C1039350   1.955   1.864   1.815  0.4542 -0.4604 -0.7217
   71MOL    C1139351   1.724   1.962   1.845  0.4522 -0.0160  0.6156
   71MOL    C1239352   1.633   2.090   1.820 -0.3908 -0.3341  0.4176
   71MOL    H1339353   1.574   2.348   2.118 -0.7170 -0.0724 -0.5788
   71MOL    H1439354   1.707   2.447   2.059 -0.2358 -1.0035  0.2839
   71MOL    H1539355   1.486   2.311   1.895 -0.7264  0.1894 -1.1208
   71MOL    H1639356   1.594   2.391   1.712 -0.7806 -0.2600  0.2604
   71MOL    H1739357   1.669   2.166   2.007 -0.3497  0.2023 -0.0986
   71MOL    H1839358   1.832   2.276   1.779 -1.1208  1.0521 -0.0383
   71MOL    H1939359   1.861   2.318   1.942 -0.5179  0.4897  0.3761
   71MOL    H2039360   1.945   2.092   1.989 -0.7159 -1.5562 -0.4455
   71MOL    H2139361   2.110   2.100   1.851  0.1959  1.1253  1.6292
   71MOL    H2239362   1.872   2.014   1.691 -1.3418  0.6982  0.3863
   71MOL    H2339363   2.055   1.905   1.805  0.0632  0.7693  0.2105
   71MOL    H2439364   1.941   1.831   1.918  0.2737  2.1412  0.1273
   71MOL    H2539365   1.717   1.926   1.948  1.1266 -0.4446  0.5109
   71MOL    H2639366   1.696   1.871   1.792  1.0041 -1.7643  3.2228
   71MOL    H2739367   1.531   2.064   1.846 -0.0611 -2.0589  0.0536
   71MOL    H2839368   1.632   2.118   1.714 -0.6455 -0.1552  0.4684
   71MOL    H2939369   1.538   2.574   1.951  0.6548  0.8128  0.8735
   71MOL    O3039370   1.917   1.771   1.716 -0.0714 -0.4275  0.9422
   71MOL    C3139371   1.920   1.639   1.764  0.3525  0.6300 -0.2698
   71MOL    C3239372   1.875   1.556   1.640  0.5799 -0.1704  0.8290
   71MOL    O3339373   1.741   1.590   1.608  0.6898  0.8953  0.0846
   71MOL    C3439374   1.964   1.589   1.517  0.5126  1.0779 -0.5254
   71MOL    C3539375   1.959   1.484   1.398 -0.0118 -0.5135 -0.0754
   71MOL    C3639376   2.053   1.519   1.279  0.6643 -0.8832 -0.9169
   71MOL    O3739377   2.036   1.413   1.191 -0.1535  0.7869  0.2194
   71MOL    C3839378   2.201   1.540   1.316  0.3290 -0.8585 -0.3846
   71MOL    C3939379   2.290   1.583   1.194 -0.1320 -0.0068 -0.1326
   71MOL    C4039380   2.203   1.643   1.425  0.2389 -0.4007 -0.3664
   71MOL    C4139381   2.114   1.599   1.549  0.4428  0.6087 -0.3008
   71MOL    H4239382   1.850   1.636   1.847 -0.9630 -0.0047 -1.3739
   71MOL    H4339383   2.019   1.607   1.798 -0.1319 -1.0150 -0.3237
   71MOL    H4439384   1.875   1.449   1.660 -0.5673 -0.7688 -2.1327
   71MOL    H4539385   1.710   1.667   1.654 -0.5492  0.7873 -0.5499
   71MOL    H4639386   1.932   1.686   1.477  2.1676  1.8818  0.0799
   71MOL    H4739387   1.984   1.386   1.439  6.5021  0.7043 -0.5747
   71MOL    H4839388   1.857   1.479   1.360  0.3861  0.4002 -1.3076
   71MOL    H4939389   2.028   1.615   1.233 -1.1761  0.5085  2.7324
   71MOL    H5039390   2.071   1.338   1.237  1.2743  0.5361 -1.2357
   71MOL    H5139391   2.239   1.445   1.352  0.9266 -1.8888 -3.5977
   71MOL    H5239392   2.274   1.532   1.099  0.8055  0.0777 -0.3439
   71MOL    H5339393   2.268   1.687   1.170  1.0582 -0.0473 -1.4518
   71MOL    H5439394   2.162   1.741   1.402 -1.2180 -0.4094  2.0162
   71MOL    H5539395   2.304   1.654   1.463  0.2971  1.2148 -0.9779
   71MOL    H5639396   2.141   1.678   1.619 -1.0457  0.5349  0.3746
   71MOL    H5739397   2.151   1.505   1.592 -0.5108  1.0706  1.5757
   71MOL    O5839398   2.432   1.573   1.219  0.5756  0.0798  0.4617
   71MOL    C5939399   2.517   1.624   1.118  0.2674 -0.2067 -0.2402
   71MOL    C6039400   2.621   1.531   1.076  0.7860  0.3305 -0.1459
   71MOL    O6139401   2.684   1.491   1.193 -0.5269  0.3233 -0.5447
   71MOL    C6239402   2.599   1.411   0.983 -0.7790 -0.2223  0.2294
   71MOL    C6339403   2.507   1.306   1.038  0.1118 -0.4171  0.1813
   71MOL    C6439404   2.499   1.189   0.941  0.5768 -0.4261  0.5559
   71MOL    O6539405   2.412   1.098   0.999  0.0312  0.0025 -0.6019
   71MOL    C6639406   2.642   1.128   0.919 -0.0565  0.0598 -0.0446
   71MOL    C6739407   2.642   0.995   0.853 -0.0863  0.8422 -0.3161
   71MOL    C6839408   2.741   1.233   0.860 -0.1491 -0.5111  0.1906
   71MOL    C6939409   2.744   1.359   0.945 -0.0531  0.1183  0.2343
   71MOL    H7039410   2.557   1.721   1.149 -0.6241  0.7322 -1.9654
   71MOL    H7139411   2.472   1.651   1.022 -0.0249 -2.5843 -0.7896
   71MOL    H7239412   2.697   1.584   1.019 -0.9535  1.1578 -1.7670
   71MOL    H7339413   2.614   1.492   1.256 -0.4532 -1.9589 -0.3670
   71MOL    H7439414   2.554   1.451   0.892 -0.1023  0.8514  0.3552
   71MOL    H7539415   2.544   1.280   1.137  1.3244  1.6457  0.3045
   71MOL    H7639416   2.410   1.354   1.054 -0.1833 -1.0349  0.2698
   71MOL    H7739417   2.469   1.224   0.842 -0.3260  0.9013  1.2872
   71MOL    H7839418   2.326   1.114   0.964 -0.4008 -2.3751 -0.7145
   71MOL    H7939419   2.686   1.100   1.015 -2.2510 -1.1964  0.6310
   71MOL    H8039420   2.584   0.924   0.912 -1.1114  1.0675 -1.0483
   71MOL    H8139421   2.603   0.995   0.751 -1.5231 -1.2488  0.2080
   71MOL    H8239422   2.704   1.263   0.762  0.9762  2.4138  0.5996
   71MOL    H8339423   2.841   1.191   0.847 -0.8952 -1.9712 -1.0312
   71MOL    H8439424   2.811   1.430   0.898  2.1234 -1.4982  0.8204
   71MOL    H8539425   2.798   1.327   1.034  0.9575 -1.7220 -1.0032
   71MOL    O8639426   2.777   0.946   0.848 -0.1676 -0.5757  0.1100
   71MOL    C8739427   2.782   0.808   0.802  0.8949 -0.1304  0.0162
   71MOL    C8839428   2.914   0.794   0.719  0.5967 -0.9112  0.2455
   71MOL    O8939429   3.022   0.830   0.806  0.2704 -0.5466  0.3158
   71MOL    C9039430   2.916   0.653   0.658  0.3518 -0.2471  0.0391
   71MOL    C9139431   2.900   0.546   0.767  0.0171 -1.0870 -0.4708
   71MOL    C9239432   2.932   0.408   0.722  0.5797  0.2884 -0.8931
   71MOL    O9339433   2.941   0.328   0.842 -0.3482  0.1330 -0.3178
   71MOL    C9439434   3.056   0.389   0.628  0.3431 -0.6802 -0.7453
   71MOL    C9539435   3.071   0.255   0.565  0.0406  0.1844  0.3516
   71MOL    C9639436   3.066   0.496   0.520 -0.0740  0.7348 -0.2109
   71MOL    C9739437   3.032   0.641   0.564 -0.2934  0.9617  0.0381
   71MOL    H9839438   2.695   0.790   0.740  0.1277  2.3660  0.3119
   71MOL    H9939439   2.778   0.743   0.889 -0.7751 -0.5397 -0.3596
   71MOL   H10039440   2.910   0.872   0.642 -0.1029 -0.9784  0.2116
   71MOL   H10139441   2.974   0.899   0.849  1.8581  1.3111 -0.8217
   71MOL   H10239442   2.823   0.649   0.602  0.3246 -3.4626  0.2415
   71MOL   H10339443   2.958   0.574   0.854 -0.1779 -0.6440 -0.4834
   71MOL   H10439444   2.795   0.543   0.797 -0.0698 -0.9190 -0.7495
   71MOL   H10539445   2.857   0.369   0.652 -1.6256  0.5999  1.2406
   71MOL   H10639446   2.987   0.379   0.907 -0.5953 -1.4636  1.1510
   71MOL   H10739447   3.144   0.417   0.685 -0.3863  0.5047 -0.1901
   71MOL   H10839448   3.063   0.169   0.632  0.6924  0.1966  0.4532
   71MOL   H10939449   2.997   0.244   0.486 -0.3405  0.5383  0.6506
   71MOL   H11039450   2.987   0.469   0.451 -1.8984  1.8416  1.3925
   71MOL   H11139451   3.166   0.499   0.477  1.7661 -1.3850  3.5745
   71MOL   H11239452   3.024   0.700   0.473  0.4194 -0.1703 -0.7802
   71MOL   H11339453   3.119   0.687   0.610  0.5967  0.2127 -0.8638
   71MOL   O11439454   3.204   0.252   0.512 -0.1039 -0.5757  0.7099
   71MOL   C11539455   3.206   0.199   0.382  0.4376  0.5422  0.0151
   71MOL   C11639456   3.348   0.206   0.318  0.5657 -0.3954 -0.5717
   71MOL   O11739457   3.420   0.087   0.377 -0.1761  0.7714 -0.2412
   71MOL   C11839458   3.349   0.196   0.165 -0.0664  0.4101 -0.4911
   71MOL   C11939459   3.340   0.337   0.093 -0.1448 -0.3694  0.3895
   71MOL   C12039460   3.315   0.322   7.570 -0.0933 -0.2318 -0.2768
   71MOL   O12139461   3.270   0.453   7.524  0.3942 -0.0177 -0.0573
   71MOL   C12239462   3.216   0.219   7.519  0.3785 -0.2878  0.2499
   71MOL   C12339463   3.203   0.213   7.366 -0.4325  0.7374 -0.1036
   71MOL   C12439464   3.251   0.081   7.581 -0.3698  0.0615 -0.0047
   71MOL   C12539465   3.249   0.086   0.106 -0.3850 -0.6749  0.6775
   71MOL   H12639466   3.145   0.253   0.310 -1.0859  1.4406  1.9047
   71MOL   H12739467   3.170   0.096   0.380 -1.4408  1.1427  1.1421
   71MOL   H12839468   3.391   0.302   0.346 -1.9921  0.8298 -0.7124
   71MOL   H12939469   3.382   0.077   0.463  1.4774  1.5343  0.6112
   71MOL   H13039470   3.451   0.169   0.137  0.1547  1.3693 -0.6016
   71MOL   H13139471   3.258   0.397   0.132 -1.8652 -3.7789  2.3396
   71MOL   H13239472   3.436   0.385   0.112 -1.2985  1.9944  0.3865
   71MOL   H13339473   3.414   0.304   7.526 -0.5271  1.3909 -1.9746
   71MOL   H13439474   3.351   0.501   7.514 -0.2818  1.2357  0.4295
   71MOL   H13539475   3.116   0.232   7.561  0.5705 -0.4292  0.7496
   71MOL   H13639476   3.118   0.159   7.324 -0.5196 -0.0128  1.0205
   71MOL   H13739477   3.190   0.311   7.319 -0.3638  0.1209 -1.4406
   71MOL   H13839478   3.345   0.041   7.544  0.2633  1.3893  0.1057
   71MOL   H13939479   3.181   0.004   7.551  1.4521 -1.6473  0.0397
   71MOL   H14039480   3.277   7.619   0.149 -2.2333 -0.7203  1.8416
   71MOL   H14139481   3.141   0.099   0.116 -0.2871 -0.8042  1.9808
   71MOL   O14239482   3.322   0.149   7.329  0.4075 -0.2210 -1.2117
   71MOL   C14339483   3.321   0.107   7.194 -0.1919 -0.3445  0.2450
   71MOL   C14439484   3.434   0.185   7.122 -0.3918  0.2128  0.7710
   71MOL   O14539485   3.388   0.313   7.105 -0.1583  0.2780  0.0409
   71MOL   C14639486   3.573   0.195   7.180  0.1642 -0.2394 -0.5829
   71MOL   C14739487   3.671   0.270   7.085  0.7693  0.6438  0.0950
   71MOL   C14839488   3.817   0.277   7.135 -0.6580 -0.4968 -0.1735
   71MOL   O14939489   3.898   0.335   7.033  0.3898  0.5214  0.3206
   71MOL   C15039490   3.861   0.140   7.193 -1.1502  0.5366  0.0663
   71MOL   C15139491   3.995   0.151   7.266  0.0009  0.4996 -0.5678
   71MOL   C15239492   3.759   0.067   7.285  0.2060 -0.0135 -0.8678
   71MOL   C15339493   3.623   0.055   7.223  0.0580 -0.5688 -0.0672
   71MOL   H15439494   3.225   0.132   7.150 -0.7419 -1.0754  1.0143
   71MOL   H15539495   3.341   7.629   7.188 -0.2133 -0.4410  1.6832
   71MOL   H15639496   3.442   0.138   7.024 -0.2314  0.1913  0.7938
   71MOL   H15739497   3.349   0.333   7.189  0.2715 -1.2614  0.6142
   71MOL   H15839498   3.563   0.254   7.271 -2.0106 -0.2901 -0.7610
   71MOL   H15939499   3.674   0.228   6.984  0.1209  0.2972  0.2140
   71MOL   H16039500   3.627   0.368   7.067  0.0869  0.1158 -1.2476
   71MOL   H16139501   3.827   0.349   7.216  1.0133  2.2589 -2.7309
   71MOL   H16239502   3.884   0.427   7.047  1.0520  0.3797  2.1105
   71MOL   H16339503   3.892   0.083   7.105 -1.0786  1.2262 -0.3609
   71MOL   H16439504   4.029   0.049   7.284  0.8484  1.1116  1.4338
   71MOL   H16539505   4.073   0.193   7.202  0.0941  1.0347 -0.1132
   71MOL   H16639506   3.732   0.107   7.383  0.3952 -0.2757 -0.7085
   71MOL   H16739507   3.804   7.601   7.312 -2.6994 -0.9991  0.6973
   71MOL   H16839508   3.557   7.624   7.285 -0.3889  0.0922  0.0938
   71MOL   H16939509   3.627   7.626   7.131  1.6374  0.8930 -0.9501
   71MOL   O17039510   3.975   0.223   7.393 -0.6856 -0.5354 -0.4802
   71MOL   C17139511   4.107   0.243   7.443 -0.2059  0.8586 -0.2024
   71MOL   C17239512   4.106   0.327   7.572  0.0010 -0.3375  0.0264
   71MOL   O17339513   4.245   0.348   7.609  0.2966  0.4577  0.6154
   71MOL   C17439514   4.024   0.458   7.561 -0.2824  0.0106  0.1761
   71MOL   C17539515   4.076   0.557   7.447 -0.2110  0.1571 -0.2979
   71MOL   C17639516   3.984   0.677   7.431 -0.0112 -0.2318 -0.0235
   71MOL   O17739517   4.001   0.747   7.309 -0.6946  0.8136 -0.3393
   71MOL   C17839518   3.993   0.766   7.557 -0.4656  0.0886  0.0695
   71MOL   C17939519   3.916   0.899   7.538  0.0222 -0.6007 -0.6854
   71MOL   C18039520   3.939   0.680   0.045  0.3403 -0.0335 -1.1993
   71MOL   C18139521   4.013   0.546   0.062  0.3900  0.0362 -0.3283
   71MOL   H18239522   4.175   0.283   7.368  0.3614 -1.4290 -0.9363
   71MOL   H18339523   4.158   0.149   7.461  0.6669  1.6555  1.6706
   71MOL   H18439524   4.066   0.260   0.019  1.8702  0.4312  1.7355
   71MOL   H18539525   4.294   0.315   7.535  0.5291  1.1674  0.4395
   71MOL   H18639526   3.924   0.425   7.536  0.5184 -2.1987 -0.2004
   71MOL   H18739527   4.178   0.583   7.474  0.1679 -1.5843 -0.0209
   71MOL   H18839528   4.069   0.499   7.355  0.5569 -0.0804 -0.2028
   71MOL   H18939529   3.882   0.643   7.414  0.6435 -1.6017 -1.2959
   71MOL   H19039530   4.090   0.774   7.296  0.0954 -1.2332  0.4842
   71MOL   H19139531   4.096   0.801   7.570 -0.7700  0.9876  0.1015
   71MOL   H19239532   3.966   0.979   7.485  1.0905 -1.8475 -1.5926
   71MOL   H19339533   3.821   0.882   7.487 -1.8081  0.2171  2.3212
   71MOL   H19439534   3.832   0.666   0.037  0.0225  1.6499 -0.1497
   71MOL   H19539535   3.959   0.732   0.140 -2.9528  0.8024 -0.9219
   71MOL   H19639536   3.967   0.490   0.143 -0.3645  0.4778 -0.4464
   71MOL   H19739537   4.114   0.560   0.100  0.3916 -0.4541 -0.1516
   71MOL   O19839538   3.879   0.950   0.032 -0.3036  0.1892  0.3856
   71MOL   C19939539   3.780   1.052   0.035 -0.5956 -0.5228 -0.5343
   71MOL   C20039540   3.704   1.032   0.166  0.5752 -0.2454  0.7019
   71MOL   O20139541   3.667   0.896   0.166 -0.5129  0.3297 -0.3167
   71MOL   C20239542   3.786   1.070   0.296 -0.1619  0.0633 -0.0731
   71MOL   C20339543   3.701   1.057   0.422 -0.1944 -0.2209 -0.1819
   71MOL   C20439544   3.788   1.078   0.549  0.4057  0.2994  0.4926
   71MOL   O20539545   3.701   1.059   0.665 -0.7393 -0.1153 -0.2191
   71MOL   C20639546   3.852   1.218   0.547  0.7207 -0.5942 -0.1786
   71MOL   C20739547   3.942   1.234   0.671 -0.1926  0.3565  0.2492
   71MOL   C20839548   3.941   1.228   0.420  0.9618  0.3800  0.0081
   71MOL   C20939549   3.851   1.207   0.298  0.5336 -0.5096  0.2739
   71MOL   H21039550   3.703   1.038   7.588 -0.0124  0.6690 -1.3528
   71MOL   H21139551   3.821   1.152   0.020 -0.5692 -0.1133  2.0671
   71MOL   H21239552   3.617   1.098   0.159 -0.7756 -2.0003  0.5583
   71MOL   H21339553   3.738   0.861   0.115  1.0698  1.9438  0.6848
   71MOL   H21439554   3.867   0.999   0.309  0.2833  0.8212  1.3675
   71MOL   H21539555   3.619   1.126   0.402  1.1233  0.8879 -1.9632
   71MOL   H21639556   3.657   0.958   0.429  1.8537 -1.0138  1.9422
   71MOL   H21739557   3.865   1.001   0.542 -0.0602 -0.2208  1.0566
   71MOL   H21839558   3.649   0.980   0.665 -0.9376  0.0128 -0.7051
   71MOL   H21939559   3.780   1.300   0.547 -0.2884 -1.4423  2.0620
   71MOL   H22039560   3.893   1.227   0.768  1.3742  0.8087  1.0886
   71MOL   H22139561   3.999   1.141   0.672  0.8265  0.9572  2.6467
   71MOL   H22239562   4.015   1.147   0.424  1.5185  0.7593 -1.9508
   71MOL   H22339563   3.998   1.320   0.409 -0.3170  0.8933 -2.7021
   71MOL   H22439564   3.910   1.238   0.212  2.0503 -0.2014  1.3991
   71MOL   H22539565   3.775   1.285   0.301 -0.2149 -1.2353  0.4459
   71MOL   O22639566   4.018   1.354   0.670  0.2828 -0.5294 -0.7616
   71MOL   C22739567   4.115   1.368   0.775 -0.7472 -0.2262 -0.6272
   71MOL   C22839568   4.181   1.502   0.762 -0.1867  0.1936  0.5465
   71MOL   O22939569   4.259   1.505   0.642  0.1425 -0.7946  0.5279
   71MOL   C23039570   4.092   1.629   0.761  0.1578  0.1754  0.0171
   71MOL   C23139571   4.165   1.765   0.770 -0.3567  0.5467  0.6806
   71MOL   C23239572   4.086   1.886   0.724 -0.7184 -0.9876 -0.2775
   71MOL   O23339573   4.166   1.999   0.716  0.1313  1.0748  0.5254
   71MOL   C23439574   3.965   1.900   0.818  0.2029 -0.5982 -0.1495
   71MOL   C23539575   3.861   2.006   0.766 -0.0916 -0.3988  0.4195
   71MOL   C23639576   3.893   1.766   0.842 -0.2904  0.2837 -0.3795
   71MOL   C23739577   3.986   1.646   0.874  0.2597 -1.0374  0.3202
   71MOL   H23839578   4.197   1.296   0.780 -0.9534 -0.3337  1.8974
   71MOL   H23939579   4.060   1.347   0.867  0.0809  1.4197  0.2596
   71MOL   H24039580   4.250   1.508   0.846  1.2404  0.2809 -0.6177
   71MOL   H24139581   4.201   1.529   0.571  1.2691  0.2039 -0.0564
   71MOL   H24239582   4.032   1.623   0.670  0.5499 -1.1832 -0.1650
   71MOL   H24339583   4.206   1.794   0.867  0.7745 -0.6362  0.5780
   71MOL   H24439584   4.252   1.757   0.705 -1.4885 -3.1764 -0.5304
   71MOL   H24539585   4.057   1.868   0.621 -2.0636  0.4976 -0.1779
   71MOL   H24639586   4.251   1.975   0.681 -0.7800 -2.4040  0.5550
   71MOL   H24739587   3.997   1.940   0.914  1.2448  1.7686 -1.4303
   71MOL   H24839588   3.909   2.103   0.760  0.7345 -0.7818  0.7507
   71MOL   H24939589   3.843   1.975   0.663  0.6485 -0.8024  0.4042
   71MOL   H25039590   3.835   1.746   0.752 -2.5087 -3.6796  1.7786
   71MOL   H25139591   3.829   1.784   0.928  0.6436 -1.5462  0.7335
   71MOL   H25239592   3.926   1.556   0.892 -2.4082  0.2506 -1.7352
   71MOL   H25339593   4.036   1.674   0.966  0.5622  2.1943 -0.7598
   71MOL   O25439594   3.742   2.022   0.837  0.5355  0.1188 -0.0730
   71MOL   C25539595   3.681   2.149   0.817 -0.0508 -0.1361  0.0363
   71MOL   C25639596   3.545   2.144   0.880  0.0954  0.1040  0.4178
   71MOL   O25739597   3.554   2.112   1.019 -0.3056  0.3092  0.0974
   71MOL   C25839598   3.460   2.276   0.854 -0.4385  0.3866 -0.0386
   71MOL   C25939599   3.525   2.403   0.914 -0.4420  0.1509 -0.3294
   71MOL   C26039600   3.430   2.531   0.917  0.1220  0.3581 -0.6239
   71MOL   O26139601   3.483   2.623   1.017 -0.0980 -0.3902 -0.1363
   71MOL   C26239602   3.283   2.504   0.962 -0.2476  0.5683 -0.2954
   71MOL   C26339603   3.198   2.634   0.922 -0.2664  0.2641  0.5681
   71MOL   C26439604   3.234   2.385   0.879  0.4105  0.1009 -0.1819
   71MOL   C26539605   3.314   2.258   0.900 -0.5844  0.6430  0.2311
   71MOL   H26639606   3.671   2.181   0.713 -1.2039  1.0159  0.4865
   71MOL   H26739607   3.735   2.226   0.872 -0.2543 -0.6440  0.9467
   71MOL   H26839608   3.496   2.058   0.834 -0.3430  0.2930  0.5288
   71MOL   H26939609   3.616   2.042   1.034  0.1551  1.4071  3.7418
   71MOL   H27039610   3.456   2.300   0.747 -0.1270 -2.4782 -0.7501
   71MOL   H27139611   3.555   2.384   1.017  0.6392  2.2353 -0.2362
   71MOL   H27239612   3.624   2.416   0.870 -0.1454 -0.6506  0.0971
   71MOL   H27339613   3.429   2.576   0.818  0.3655  1.2205 -0.2432
   71MOL   H27439614   3.434   2.703   1.031  1.2476  0.0293  2.3332
   71MOL   H27539615   3.280   2.487   1.069 -4.0139 -3.9722 -0.9756
   71MOL   H27639616   3.235   2.713   0.988  0.5331  1.6578 -1.5074
   71MOL   H27739617   3.216   2.666   0.820 -0.5776 -1.8548 -0.1701
   71MOL   H27839618   3.222   2.394   0.771  2.6437  0.4834 -0.4123
   71MOL   H27939619   3.134   2.354   0.910 -0.9511  1.4208 -3.0384
   71MOL   H28039620   3.262   2.176   0.850  0.2377 -0.2718  0.8611
   71MOL   H28139621   3.310   2.237   1.006 -1.4793  0.0716  0.0881
   71MOL   O28239622   3.065   2.617   0.969  0.0602 -0.1564 -0.0304
   71MOL   C28339623   2.977   2.658   0.871  0.9911  0.0043  0.4339
   71MOL   C28439624   2.832   2.652   0.930 -0.6792  0.2136  0.0911
   71MOL   O28539625   2.743   2.699   0.837  0.2926  0.0446 -0.3318
   71MOL   C28639626   2.780   2.508   0.971 -0.2023 -0.3433  0.4027
   71MOL   C28739627   2.779   2.413   0.855 -0.1588  0.8286  0.6260
   71MOL   C28839628   2.727   2.272   0.911  0.3793 -0.5362 -0.2616
   71MOL   O28939629   2.728   2.186   0.805 -0.9315 -0.2938  0.1012
   71MOL   C29039630   2.581   2.285   0.956 -0.7157 -0.0338 -0.3422
   71MOL   C29139631   2.522   2.152   1.009 -0.0380 -0.5846 -0.3125
   71MOL   C29239632   2.575   2.382   1.077 -0.4011 -0.4247  0.3803
   71MOL   C29339633   2.638   2.521   1.041  0.2637 -0.0471  0.2194
   71MOL   H29439634   2.986   2.592   0.784  0.8165  0.7973 -0.1895
   71MOL   H29539635   3.001   2.757   0.834 -0.9931 -0.1908 -1.4995
   71MOL   H29639636   2.829   2.720   1.015 -0.9401 -0.1539  0.3806
   71MOL   H29739637   2.672   2.741   0.884 -1.0753  1.5558 -3.5210
   71MOL   H29839638   2.855   2.466   1.038 -0.4081 -0.8943  0.2919
   71MOL   H29939639   2.710   2.447   0.779 -0.0984 -0.0989  0.1412
   71MOL   H30039640   2.878   2.397   0.812 -0.4338 -0.1626  0.3475
   71MOL   H30139641   2.786   2.228   0.992  1.1520  1.0228  0.0425
   71MOL   H30239642   2.735   2.098   0.839  1.9371 -0.4142 -0.7139
   71MOL   H30339643   2.520   2.328   0.877  0.0396 -2.7507 -2.4857
   71MOL   H30439644   2.546   2.068   0.944 -0.5097 -1.5317  0.7070
   71MOL   H30539645   2.568   2.123   1.104 -0.2952 -0.0988 -0.0378
   71MOL   H30639646   2.634   2.341   1.159  0.4153 -1.2134 -0.5901
   71MOL   H30739647   2.473   2.398   1.110 -0.7457 -1.8061 -0.0023
   71MOL   H30839648   2.644   2.592   1.123 -0.9073  0.8604 -0.4525
   71MOL   H30939649   2.567   2.573   0.975 -0.5304  0.3655  1.3872
   71MOL   O31039650   2.380   2.169   1.026 -0.3615  0.2027 -0.1585
   71MOL   C31139651   2.299   2.056   0.996 -0.7538 -0.2720  0.3600
   71MOL   C31239652   2.162   2.090   1.063  0.5879  1.1448 -0.0851
   71MOL   O31339653   2.089   2.176   0.983  0.4044 -0.8026 -0.4534
   71MOL   C31439654   2.068   1.969   1.096 -1.3095  0.2173  0.5076
   71MOL   C31539655   2.011   1.883   0.973  0.4352  0.2450 -0.2855
   71MOL   C31639656   1.901   1.781   1.013  0.2705  0.2021 -0.2581
   71MOL   O31739657   1.830   1.731   0.905  0.3254  0.2158 -0.2063
   71MOL   C31839658   1.787   1.828   1.111  0.1357 -0.4182 -0.7231
   71MOL   C31939659   1.686   1.711   1.160 -0.4393  0.2237 -0.5076
   71MOL   C32039660   1.858   1.894   1.233  0.4839 -0.4046  0.1370
   71MOL   C32139661   1.949   2.016   1.189 -0.3411 -0.5068 -0.2965
   71MOL   H32239662   2.345   1.959   1.014  1.4186  0.7995  0.7220
   71MOL   H32339663   2.298   2.055   0.887  0.5156  0.7625  0.3243
   71MOL   H32439664   2.188   2.146   1.153 -1.1101 -1.1113  1.8926
   71MOL   H32539665   2.148   2.247   0.967  1.7322 -1.5306  1.0100
   71MOL   H32639666   2.128   1.897   1.152 -1.5001 -0.8835 -0.7020
   71MOL   H32739667   1.974   1.950   0.896 -1.3035 -0.2124  0.1302
   71MOL   H32839668   2.090   1.825   0.925  0.0609 -1.0875  0.6837
   71MOL   H32939669   1.949   1.693   1.055 -0.6182  0.6651  1.7746
   71MOL   H33039670   1.788   1.650   0.928  1.5306  0.3033  2.4672
   71MOL   H33139671   1.722   1.899   1.061  0.4643 -0.4204 -1.1637
   71MOL   H33239672   1.634   1.661   1.078  1.6615 -0.1471 -1.6562
   71MOL   H33339673   1.745   1.634   1.209  0.4966  1.7232  0.7403
   71MOL   H33439674   1.916   1.820   1.287 -1.0787 -1.0373  0.9764
   71MOL   H33539675   1.778   1.936   1.294  0.8127  1.3115 -0.5746
   71MOL   H33639676   1.979   2.071   1.278  3.5201  0.2493 -1.9512
   71MOL   H33739677   1.882   2.080   1.132 -0.4449  0.2501  0.6535
   71MOL   O33839678   1.590   1.761   1.253  0.2604  0.1831  0.6077
   71MOL   C33939679   1.460   1.815   1.196 -0.6945  0.0657 -1.0523
   71MOL   C34039680   1.402   1.923   1.291  0.2051 -0.6274  0.0384
   71MOL   O34139681   1.387   1.859   1.408 -0.4017 -0.4801  0.7636
   71MOL   C34239682   1.488   2.045   1.306  0.4978 -0.0476 -0.5703
   71MOL   C34339683   1.442   2.157   1.407  0.4996  0.2888 -0.1650
   71MOL   C34439684   1.556   2.250   1.442 -0.1270 -0.2653 -0.1079
   71MOL   O34539685   1.511   2.334   1.547  0.4102  0.0137  0.0529
   71MOL   C34639686   1.597   2.328   1.327  0.5188  0.6086 -0.5899
   71MOL   C34739687   1.710   2.431   1.357 -0.2146  0.3785  0.0193
   71MOL   C34839688   1.635   2.235   1.201  0.8531 -0.3366 -0.9470
   71MOL   C34939689   1.528   2.115   1.174  0.2518 -0.4003  0.7763
   71MOL   H35039690   1.385   1.740   1.168 -1.7770  0.3709  0.9362
   71MOL   H35139691   1.474   1.862   1.098 -1.4060  0.8356 -0.7842
   71MOL   H35239692   1.305   1.960   1.258  0.2764 -1.5168 -1.2150
   71MOL   H35339693   1.470   1.815   1.416  0.0600  0.0328 -0.9807
   71MOL   H35439694   1.580   2.010   1.352  0.6657  1.6600  0.4246
   71MOL   H35539695   1.356   2.210   1.367  1.5662  1.0212 -1.5686
   71MOL   H35639696   1.412   2.106   1.498 -0.8165 -1.6722 -1.6736
   71MOL   H35739697   1.645   2.205   1.485  1.3208 -0.0779 -2.8189
   71MOL   H35839698   1.436   2.384   1.521  1.1161  0.8225 -0.4457
   71MOL   H35939699   1.519   2.395   1.290  0.3770  0.6337 -0.2523
   71MOL   H36039700   1.670   2.526   1.395 -0.2933 -0.0261  0.9665
   71MOL   H36139701   1.781   2.398   1.433  1.5739  1.7583 -0.9897
   71MOL   H36239702   1.719   2.177   1.238 -0.2280 -0.6363  1.1343
   71MOL   H36339703   1.655   2.292   1.110 -0.7310 -1.2594 -1.8956
   71MOL   H36439704   1.581   2.054   1.100  3.0311  1.3995  1.2271
   71MOL   H36539705   1.442   2.141   1.113 -0.1485 -1.0233  1.0738
   71MOL   O36639706   1.782   2.472   1.242 -0.2463 -0.3834  0.2947
   71MOL   C36739707   1.872   2.582   1.265  0.0343  0.0190 -0.2835
   71MOL   C36839708   1.926   2.620   1.127  0.1305 -0.2306 -0.4178
   71MOL   O36939709   1.811   2.693   1.078 -0.3346 -0.2388 -0.1791
   71MOL   C37039710   2.051   2.720   1.137  0.5617 -0.0253  0.1800
   71MOL   C37139711   2.074   2.790   1.004 -0.1022  0.1932 -0.3968
   71MOL   C37239712   2.181   2.899   1.027  0.2053  0.7237  0.4885
   71MOL   O37339713   2.200   2.987   0.918 -0.0535  0.4366  0.5229
   71MOL   C37439714   2.323   2.832   1.080  0.5923 -0.5545  0.6238
   71MOL   C37539715   2.433   2.940   1.110 -0.3367 -0.0890 -0.3964
   71MOL   C37639716   2.299   2.735   1.196 -0.4321 -0.1187  0.2956
   71MOL   C37739717   2.184   2.640   1.167  0.3337  0.3651 -0.3050
   71MOL   H37839718   1.949   2.558   1.338  0.4013  0.8609 -0.3900
   71MOL   H37939719   1.823   2.668   1.311 -2.1486 -1.2579 -0.1641
   71MOL   H38039720   1.937   2.531   1.065 -1.1993  0.3588 -1.5283
   71MOL   H38139721   1.742   2.630   1.092 -1.8095  1.4372  0.2839
   71MOL   H38239722   2.021   2.790   1.215 -1.6209 -0.0294 -0.5983
   71MOL   H38339723   2.119   2.716   0.938  0.7902 -1.5931  2.1496
   71MOL   H38439724   1.982   2.821   0.953  0.4708  1.0053 -0.9640
   71MOL   H38539725   2.135   2.961   1.105 -3.1203  2.0928 -2.4143
   71MOL   H38639726   2.291   3.011   0.917 -0.0481  0.4043  0.2984
   71MOL   H38739727   2.349   2.778   0.989  0.3891 -0.7400  0.6731
   71MOL   H38839728   2.401   3.005   1.191 -0.9664  0.2722 -0.9300
   71MOL   H38939729   2.528   2.895   1.140 -0.8557 -0.2466  1.0524
   71MOL   H39039730   2.291   2.801   1.282  2.4193 -0.0115  0.5296
   71MOL   H39139731   2.386   2.669   1.202 -1.1149 -1.0313  0.2555
   71MOL   H39239732   2.168   2.567   1.247  2.7306  0.1501 -0.0064
   71MOL   H39339733   2.207   2.575   1.083 -0.4812 -2.5217  1.5961
   71MOL   O39439734   2.467   3.014   0.988 -0.4436 -0.9545 -0.0212
   71MOL   C39539735   2.553   3.131   1.005  0.3358  0.1722  0.6794
   71MOL   C39639736   2.483   3.246   1.091 -0.6056 -0.5191  0.3923
   71MOL   O39739737   2.571   3.353   1.083 -0.3101  0.5834  0.4459
   71MOL   C39839738   2.344   3.277   1.039 -0.1076 -0.5755 -0.2710
   71MOL   C39939739   2.340   3.294   0.883 -0.4602 -0.3187 -0.5994
   71MOL   C40039740   2.198   3.326   0.838 -0.4774 -0.5790  0.4139
   71MOL   O40139741   2.200   3.350   0.703 -0.8512 -0.4179 -0.4613
   71MOL   C40239742   2.138   3.452   0.901 -0.0604 -0.3158 -0.2451
   71MOL   C40339743   1.986   3.457   0.874  0.2054  0.5410  0.0189
   71MOL   C40439744   2.154   3.441   1.054 -0.3037  0.2540  0.2068
   71MOL   C40539745   2.297   3.412   1.098 -0.2883 -0.1263 -0.5994
   71MOL   H40639746   2.588   3.154   0.904 -2.0835  1.3231  0.0717
   71MOL   H40739747   2.648   3.099   1.049 -0.3724 -1.3826  1.0864
   71MOL   H40839748   2.470   3.216   1.196 -2.3144 -2.4476 -0.3222
   71MOL   H40939749   2.548   3.396   1.002  2.4758  0.1117 -0.6671
   71MOL   H41039750   2.280   3.197   1.075  0.0561  0.0310  1.4505
   71MOL   H41139751   2.398   3.381   0.855 -0.1956  0.0869  1.1284
   71MOL   H41239752   2.363   3.204   0.827 -0.5667 -0.0208 -1.1186
   71MOL   H41339753   2.130   3.241   0.852  1.0646 -2.0679 -0.9745
   71MOL   H41439754   2.116   3.371   0.667 -1.5812  0.1289  1.4767
   71MOL   H41539755   2.187   3.542   0.864 -1.5026  0.1807 -0.9557
   71MOL   H41639756   1.971   3.447   0.767  1.1106  0.8705 -0.1452
   71MOL   H41739757   1.949   3.366   0.921  0.5354  0.2430 -0.2897
   71MOL   H41839758   2.089   3.365   1.097 -0.5291  1.4897  2.1430
   71MOL   H41939759   2.118   3.531   1.105 -0.4978 -1.0468  2.4357
   71MOL   H42039760   2.303   3.420   1.206 -1.4781  0.5874 -0.5686
   71MOL   H42139761   2.360   3.495   1.064 -2.2063  0.8789 -1.8649
   71MOL   O42239762   1.913   3.584   0.898  0.3633 -0.0789  0.3315
   71MOL   C42339763   1.868   3.606   1.029 -0.3946  0.5787  0.0577
   71MOL   C42439764   1.741   3.691   1.028 -0.2125  0.2889  0.1705
   71MOL   O42539765   1.638   3.602   0.994  0.0989 -0.6603  0.0527
   71MOL   C42639766   1.726   3.760   1.163  0.2498 -0.3898  0.2246
   71MOL   C42739767   1.716   3.669   1.284  0.7858 -0.4906 -0.1606
   71MOL   C42839768   1.726   3.742   1.414 -0.1285 -0.8972  0.0416
   71MOL   O42939769   1.744   3.656   1.519  0.1984 -0.1097 -0.3476
   71MOL   C43039770   1.606   3.836   1.423 -0.1851  0.2979 -0.0195
   71MOL   C43139771   1.607   3.935   1.536  0.4543  0.1466 -0.0915
   71MOL   C43239772   1.594   3.924   1.297  0.1693  0.5309 -0.0367
   71MOL   C43339773   1.607   3.854   1.171 -0.0872  0.3368  0.0566
   71MOL   H43439774   1.945   3.654   1.089  1.2444 -1.4177 -0.3648
   71MOL   H43539775   1.857   3.507   1.075  2.6951  1.1720  2.2567
   71MOL   H43639776   1.733   3.762   0.945 -0.3036  0.0174 -0.0542
   71MOL   H43739777   1.686   3.535   0.948  0.1338 -1.7515  1.6487
   71MOL   H43839778   1.813   3.824   1.180 -1.0427  1.3108  0.6009
   71MOL   H43939779   1.631   3.600   1.286  1.4701 -1.4210 -2.1055
   71MOL   H44039780   1.795   3.593   1.278  0.9233 -0.2062 -2.1383
   71MOL   H44139781   1.814   3.807   1.416 -2.0312  1.7599  0.0708
   71MOL   H44239782   1.666   3.602   1.526  0.2789  0.0739  2.4606
   71MOL   H44339783   1.523   3.765   1.429 -2.2026  2.4472 -1.5903
   71MOL   H44439784   1.602   3.889   1.635  0.1751  1.5999  0.5759
   71MOL   H44539785   1.699   3.991   1.528  0.7064 -0.4434 -1.4830
   71MOL   H44639786   1.658   4.013   1.301  0.7543  0.0180  3.3170
   71MOL   H44739787   1.495   3.970   1.298  0.0777  0.5284 -3.1473
   71MOL   H44839788   1.614   3.931   1.095 -2.1769 -0.0522 -0.5680
   71MOL   H44939789   1.516   3.797   1.152  1.3831 -1.4763 -1.8373
   71MOL   O45039790   1.514   4.044   1.518 -0.2508 -0.2514  0.3902
   71MOL   C45139791   1.508   4.136   1.631  0.5842  0.1681  0.5281
   71MOL   C45239792   1.385   4.225   1.631  0.8578 -0.1915 -0.2620
   71MOL   O45339793   1.279   4.144   1.689  0.8043 -0.9669  0.0538
   71MOL   C45439794   1.403   4.360   1.706  0.1782  0.6240 -0.1611
   71MOL   C45539795   1.435   4.350   1.857  0.0995 -0.8205 -0.0695
   71MOL   C45639796   1.478   4.487   1.922 -0.2020 -0.0848 -0.4199
   71MOL   O45739797   1.508   4.475   2.063  0.4512  0.5322 -0.2790
   71MOL   C45839798   1.369   4.594   1.893 -0.3727  0.3394  0.2283
   71MOL   C45939799   1.412   4.739   1.931 -0.1754 -0.3673  0.0251
   71MOL   C46039800   1.314   4.587   1.749 -0.3435  0.4277 -0.7042
   71MOL   C46139801   1.278   4.451   1.699 -0.1104 -0.1669 -0.0818
   71MOL   H46239802   1.598   4.198   1.632  0.9254 -0.1767 -2.5457
   71MOL   H46339803   1.519   4.081   1.724 -2.1974 -0.6693  0.4049
   71MOL   H46439804   1.360   4.250   1.528 -0.8668  0.4876  0.2943
   71MOL   H46539805   1.307   4.101   1.768  0.5679 -2.1151 -0.4845
   71MOL   H46639806   1.494   4.409   1.670  0.4938 -0.1367 -0.4146
   71MOL   H46739807   1.344   4.313   1.905 -1.2828 -0.0941 -2.0636
   71MOL   H46839808   1.509   4.272   1.872  0.9045  0.3095  2.0514
   71MOL   H46939809   1.570   4.517   1.871  0.4140  0.3537  0.9249
   71MOL   H47039810   1.425   4.465   2.106 -0.1592  2.1258 -1.0463
   71MOL   H47139811   1.287   4.573   1.961 -0.0386  0.5747  0.7119
   71MOL   H47239812   1.322   4.798   1.949 -0.6094 -0.9456 -0.2492
   71MOL   H47339813   1.457   4.745   2.030 -0.6684 -1.0638  0.2939
   71MOL   H47439814   1.397   4.625   1.689  1.2192  1.9144  2.2574
   71MOL   H47539815   1.228   4.654   1.740  0.1578  1.1116 -0.5059
   71MOL   H47639816   1.254   4.450   1.593 -0.7177  0.2745  0.0512
   71MOL   H47739817   1.191   4.421   1.757 -0.6273  1.5497  0.0471
   71MOL   O47839818   1.492   4.785   1.825  0.7859 -0.7560 -0.6203
   71MOL   C47939819   1.595   4.873   1.874  0.8137  0.0742  0.2793
   71MOL   C48039820   1.668   4.930   1.759 -0.1154 -0.3975 -0.0624
   71MOL   O48139821   1.586   5.029   1.691 -0.4012  0.7375 -0.4065
   71MOL   C48239822   1.801   5.007   1.803 -1.0194 -0.6286  0.1357
   71MOL   C48339823   1.792   5.130   1.899  0.5495 -0.2575  0.2266
   71MOL   C48439824   1.927   5.197   1.938  0.2772  0.2061  0.6451
   71MOL   O48539825   1.895   5.320   2.003  0.1150 -0.3762  0.2279
   71MOL   C48639826   2.007   5.218   1.812  0.7511  0.6211  1.1336
   71MOL   C48739827   2.147   5.282   1.831 -0.3296 -0.3098  0.0924
   71MOL   C48839828   2.015   5.099   1.709 -0.2324 -0.2530  0.4247
   71MOL   C48939829   1.878   5.039   1.669  0.3795  0.3867  0.2205
   71MOL   H49039830   1.654   4.811   1.942  1.1132 -1.5006 -1.3530
   71MOL   H49139831   1.549   4.959   1.922  0.0124  0.1120 -0.5381
   71MOL   H49239832   1.693   4.856   1.682 -1.4145  0.1716 -1.0389
   71MOL   H49339833   1.546   5.086   1.755  0.6631  0.2583  0.6976
   71MOL   H49439834   1.864   4.934   1.854  1.2079 -0.2945 -2.0848
   71MOL   H49539835   1.735   5.206   1.845  4.0974  0.9782 -1.9336
   71MOL   H49639836   1.738   5.103   1.990  1.3585  1.1678  1.1598
   71MOL   H49739837   1.981   5.129   2.003 -0.1582  0.9952  1.8485
   71MOL   H49839838   1.830   5.367   1.953  0.3697 -0.5784 -0.3051
   71MOL   H49939839   1.955   5.291   1.751 -1.3632  0.9096  3.2101
   71MOL   H50039840   2.166   5.320   1.931 -2.3751 -0.4309  0.5657
   71MOL   H50139841   2.223   5.205   1.824 -0.0960 -0.2181  1.5733
   71MOL   H50239842   2.072   5.021   1.759 -1.1803 -2.0219 -1.2048
   71MOL   H50339843   2.075   5.126   1.622  1.6572  0.9654  2.0623
   71MOL   H50439844   1.907   4.941   1.630 -0.4763  0.4078 -0.4930
   71MOL   H50539845   1.814   5.094   1.600  0.1826 -0.6184 -0.4096
   71MOL   O50639846   2.159   5.374   1.729 -0.2537 -0.0377 -0.3863
   71MOL   C50739847   2.110   5.502   1.758  0.0310 -0.4250  0.3062
   71MOL   C50839848   2.101   5.584   1.621  0.7128 -0.3543  0.1929
   71MOL   O50939849   1.987   5.531   1.544  0.6069 -0.8867 -0.2068
   71MOL   C51039850   2.081   5.740   1.639  0.6077 -0.0887  0.3143
   71MOL   C51139851   2.100   5.800   1.496 -0.4386  0.1835 -0.5431
   71MOL   C51239852   2.086   5.953   1.502 -0.3788  0.2647 -0.3151
   71MOL   O51339853   2.108   6.002   1.374 -0.1197  0.2399 -0.1085
   71MOL   C51439854   2.194   6.006   1.592  0.3000 -0.6915 -0.0872
   71MOL   C51539855   2.193   6.158   1.592  0.4190 -0.6942 -0.1683
   71MOL   C51639856   2.183   5.947   1.738 -0.5261  0.7082 -0.0367
   71MOL   C51739857   2.185   5.797   1.738 -0.5995  0.1088 -0.4302
   71MOL   H51839858   2.191   5.548   1.814  1.4829 -1.8532 -0.5804
   71MOL   H51939859   2.019   5.511   1.817  0.3948 -0.1172  0.8248
   71MOL   H52039860   2.189   5.577   1.557  1.2318 -0.5512  0.9245
   71MOL   H52139861   2.016   5.454   1.497 -1.6771 -2.9033  1.5787
   71MOL   H52239862   1.979   5.759   1.673  1.1049  0.7809  1.3453
   71MOL   H52339863   2.197   5.774   1.453 -0.2317 -0.1556  0.1168
   71MOL   H52439864   2.028   5.757   1.427  1.1360 -1.7947 -1.0249
   71MOL   H52539865   1.986   5.985   1.533  0.8286  2.1322  1.8740
   71MOL   H52639866   2.182   5.956   1.336 -0.7310 -1.4836  0.7869
   71MOL   H52739867   2.293   5.978   1.557 -0.4513 -2.3986 -0.9221
   71MOL   H52839868   2.190   6.202   1.493  1.5751  1.6435  0.7996
   71MOL   H52939869   2.110   6.192   1.655  0.5126 -1.9544  0.6507
   71MOL   H53039870   2.091   5.989   1.779 -0.4084 -0.1582  1.1410
   71MOL   H53139871   2.257   5.987   1.806 -0.3641 -0.1660  0.3049
   71MOL   H53239872   2.152   5.775   1.839  2.3062 -1.0058  0.3425
   71MOL   H53339873   2.285   5.755   1.725  1.1285  2.9000  2.9660
   71MOL   O53439874   2.317   6.202   1.647  0.0533  0.2693 -0.0873
   71MOL   C53539875   2.321   6.336   1.691  0.0332 -0.1684 -0.6880
   71MOL   C53639876   2.449   6.373   1.776 -0.2235  0.0021 -0.3343
   71MOL   O53739877   2.433   6.498   1.828  0.1403 -0.5320 -0.5560
   71MOL   C53839878   2.464   6.275   1.890  0.3558 -0.2049 -0.4063
   71MOL   C53939879   2.349   6.270   1.993  0.3406  0.7354  0.2245
   71MOL   C54039880   2.385   6.172   2.107  0.2419 -0.2721  0.0354
   71MOL   O54139881   2.296   6.181   2.215 -0.1548 -0.1946  0.1929
   71MOL   C54239882   2.534   6.181   2.162 -0.0068  0.4662  0.1938
   71MOL   C54339883   2.562   6.084   2.275 -0.2975 -0.0151  0.0458
   71MOL   C54439884   2.634   6.179   2.055  0.2820 -0.1949 -0.1170
   71MOL   C54539885   2.604   6.287   1.952  0.7271 -0.1876 -0.0124
   71MOL   H54639886   2.229   6.348   1.749  0.8698 -0.3723  0.7003
   71MOL   H54739887   2.308   6.415   1.618  0.4731  0.4432 -0.1086
   71MOL   H54839888   2.534   6.375   1.707 -0.6121 -1.2450 -0.8675
   71MOL   H54939889   2.385   6.545   1.762 -0.3931 -2.6235 -1.6979
   71MOL   H55039890   2.461   6.174   1.849 -0.3826 -0.7943  1.0732
   71MOL   H55139891   2.330   6.363   2.047  1.3251  0.8498  0.3850
   71MOL   H55239892   2.257   6.253   1.936 -0.5613 -0.4336  1.9725
   71MOL   H55339893   2.379   6.076   2.057 -1.4316 -0.7870  1.1888
   71MOL   H55439894   2.227   6.117   2.211 -1.6767  1.3448  0.7562
   71MOL   H55539895   2.538   6.282   2.203  0.1735  0.5569 -0.0428
   71MOL   H55639896   2.497   6.113   2.358  1.0645  2.6435  0.2190
   71MOL   H55739897   2.525   5.990   2.233 -3.9357  1.5899 -0.6002
   71MOL   H55839898   2.625   6.077   2.015 -0.9481 -0.6167  1.2017
   71MOL   H55939899   2.734   6.188   2.095  0.1905 -2.1758  0.6244
   71MOL   H56039900   2.664   6.283   1.862  0.6344  0.2393 -0.0951
   71MOL   H56139901   2.619   6.386   1.996 -2.2397  0.2117  0.1853
   71MOL   H56239902   2.663   6.068   2.311 -0.3251  0.0350  0.1467
   72MOL     O139903   0.353   0.246   2.022  0.9363 -0.3030 -0.0689
   72MOL     C239904   0.275   0.194   1.917  0.1927 -0.2615  0.4952
   72MOL     C339905   0.310   0.272   1.791  0.0827 -0.0572 -0.4475
   72MOL     O439906   0.450   0.300   1.799 -0.2198  0.5954 -0.6937
   72MOL     C539907   0.275   0.202   1.653  0.4499 -0.4053  0.0256
   72MOL     C639908   0.291   0.296   1.529  0.2257  0.9097  0.3420
   72MOL     C739909   0.263   0.221   1.397  0.4144  0.3273 -0.5306
   72MOL     O839910   0.292   0.302   1.287 -0.4597  0.8545 -0.1494
   72MOL     C939911   0.115   0.174   1.408  0.0719  0.7513 -0.0973
   72MOL    C1039912   0.075   0.097   1.282  0.1866 -0.1085 -0.3764
   72MOL    C1139913   0.091   0.085   1.535 -0.4427 -0.4934 -0.0272
   72MOL    C1239914   0.132   0.154   1.665 -0.0475  0.1358 -0.1014
   72MOL    H1339915   0.170   0.208   1.942  0.7309  2.3128  1.4304
   72MOL    H1439916   0.300   0.090   1.896 -0.4159 -0.2906 -0.1316
   72MOL    H1539917   0.264   0.371   1.793 -0.5124 -0.3526  0.8274
   72MOL    H1639918   0.460   0.303   1.893 -1.9387  0.9232 -0.4934
   72MOL    H1739919   0.340   0.117   1.633 -0.9586 -1.8034  1.2872
   72MOL    H1839920   0.228   0.380   1.557  0.7963  0.9201  1.6341
   72MOL    H1939921   0.392   0.338   1.535 -0.2018  2.3671 -2.0241
   72MOL    H2039922   0.326   0.132   1.396  2.0604  1.3465  2.5262
   72MOL    H2139923   0.233   0.375   1.293 -0.8165  0.5755 -0.2668
   72MOL    H2239924   0.058   0.267   1.414 -2.4123 -0.6996 -0.6006
   72MOL    H2339925   0.097   0.155   1.192 -0.7097 -1.0017 -1.1900
   72MOL    H2439926   0.127   0.001   1.276 -0.7475 -0.6268 -0.3122
   72MOL    H2539927   0.144   7.620   1.520 -0.7130 -0.4008 -1.6797
   72MOL    H2639928   7.613   0.066   1.536 -0.5622  0.1657  0.1807
   72MOL    H2739929   0.121   0.080   1.745 -0.4049  0.2498 -0.0455
   72MOL    H2839930   0.078   0.244   1.693 -0.7136 -0.9200  2.1498
   72MOL    H2939931   0.313   0.330   2.037 -1.3106 -1.7979  2.7397
   72MOL    O3039932   7.565   0.063   1.280  0.3212  0.5133 -0.0001
   72MOL    C3139933   7.521   7.607   1.171  0.2044  0.1953  0.1646
   72MOL    C3239934   7.362   7.587   1.158 -0.1044 -0.1906 -0.3185
   72MOL    O3339935   7.330   7.534   1.027 -0.9024  0.3405  0.3642
   72MOL    C3439936   7.293   7.502   1.266  0.3271 -0.4383  0.3752
   72MOL    C3539937   7.346   7.357   1.293  0.0359 -0.0685  0.3569
   72MOL    C3639938   7.258   7.270   1.391  0.6855  0.3248  0.5327
   72MOL    O3739939   7.305   7.141   1.389  0.4071  0.2444 -0.4578
   72MOL    C3839940   7.104   7.267   1.363  0.1714 -0.7652  0.0025
   72MOL    C3939941   7.035   7.182   1.469  0.5638 -0.1504  0.3121
   72MOL    C4039942   7.060   7.412   1.345  0.4834 -0.4294  0.3585
   72MOL    C4139943   7.138   7.504   1.247 -0.7061 -0.1264 -0.0014
   72MOL    H4239944   7.567   7.509   1.181  2.5009  1.3001  0.7226
   72MOL    H4339945   7.556   0.018   1.076  2.2926  0.1055  0.8809
   72MOL    H4439946   7.316   0.057   1.159 -0.4901 -0.3781  0.3268
   72MOL    H4539947   7.380   7.455   1.020  0.6708  1.5998 -3.8810
   72MOL    H4639948   7.317   7.554   1.360  0.6488  1.9940 -1.0009
   72MOL    H4739949   7.346   7.307   1.196  0.9899 -2.7161  1.6709
   72MOL    H4839950   7.452   7.355   1.318  0.5385 -3.6946 -1.6828
   72MOL    H4939951   7.270   7.309   1.492  1.2058 -1.2247  1.0948
   72MOL    H5039952   7.366   7.140   1.461  1.1694  0.8726 -1.0836
   72MOL    H5139953   7.098   7.207   1.273  1.8921 -0.0346 -0.6233
   72MOL    H5239954   7.072   7.081   1.450 -1.9714 -0.5236 -3.1768
   72MOL    H5339955   7.061   7.231   1.563  1.6361 -0.4229  0.1585
   72MOL    H5439956   7.062   7.468   1.439  0.2317 -0.7872  0.5768
   72MOL    H5539957   6.953   7.410   1.325  0.6026  0.5347 -0.4272
   72MOL    H5639958   7.112   7.609   1.265  0.6011  0.4028 -1.1304
   72MOL    H5739959   7.109   7.488   1.143 -0.1664  0.9033 -0.3195
   72MOL    O5839960   6.897   7.189   1.453 -0.2934 -0.3878 -0.1170
   72MOL    C5939961   6.813   7.187   1.558  0.1461 -0.5497 -0.1314
   72MOL    C6039962   6.670   7.249   1.529  0.1075  0.1388  0.5492
   72MOL    O6139963   6.586   7.222   1.640 -0.6794  0.1324 -0.4097
   72MOL    C6239964   6.680   7.395   1.472 -0.1874  0.3599  0.0710
   72MOL    C6339965   6.747   7.490   1.567 -0.2734 -0.0721 -0.2770
   72MOL    C6439966   6.759   7.628   1.501 -0.0285 -1.2007  0.0911
   72MOL    O6539967   6.820   0.099   1.587  0.4743 -0.7614  0.0351
   72MOL    C6639968   6.619   0.050   1.465 -0.3815  0.6674 -0.2562
   72MOL    C6739969   6.614   0.176   1.396  0.1874 -1.0629  0.3808
   72MOL    C6839970   6.548   7.582   1.376 -0.5851 -0.2586  0.5734
   72MOL    C6939971   6.535   7.445   1.438 -0.9294  0.8446 -0.1293
   72MOL    H7039972   6.850   7.225   1.653 -1.0075 -0.4517  0.2894
   72MOL    H7139973   6.794   7.082   1.579 -1.9182 -0.5671 -1.8341
   72MOL    H7239974   6.616   7.195   1.451  1.4219 -0.5736  0.1051
   72MOL    H7339975   6.557   7.132   1.633  1.3187 -0.5105 -0.9230
   72MOL    H7439976   6.746   7.384   1.385 -1.2217  0.8010 -0.7751
   72MOL    H7539977   6.687   7.507   1.656 -0.8693  0.5029 -0.7807
   72MOL    H7639978   6.843   7.445   1.593 -0.8607 -1.7016 -0.8503
   72MOL    H7739979   6.823   7.615   1.414  1.2413 -1.2432  1.0301
   72MOL    H7839980   6.783   0.185   1.577  0.3423 -0.7737  0.3908
   72MOL    H7939981   6.555   0.060   1.552 -0.6460 -1.6041 -0.1449
   72MOL    H8039982   6.654   0.162   1.295 -0.8439  0.1516 -0.2180
   72MOL    H8139983   6.514   0.213   1.374  0.6496 -0.7015 -1.1776
   72MOL    H8239984   6.606   7.574   1.284 -2.6793  2.1342 -1.0353
   72MOL    H8339985   6.453   7.617   1.336  0.0055 -0.0363 -0.6878
   72MOL    H8439986   6.493   7.364   1.378 -0.8020  0.7349 -0.0700
   72MOL    H8539987   6.472   7.463   1.525 -3.0383  0.1778 -1.4634
   72MOL    O8639988   6.672   0.294   1.455 -0.1405 -0.0188  0.0218
   72MOL    C8739989   6.649   0.415   1.387 -0.0647  0.5446  0.1838
   72MOL    C8839990   6.716   0.524   1.462  0.1161 -0.3666 -0.2881
   72MOL    O8939991   6.853   0.480   1.461 -0.4788  0.2265 -0.1504
   72MOL    C9039992   6.696   0.658   1.383 -0.7366  0.0061 -0.2537
   72MOL    C9139993   6.803   0.756   1.425 -0.4611  0.1297  0.2224
   72MOL    C9239994   6.796   0.889   1.356  0.2167 -0.1540 -0.6515
   72MOL    O9339995   6.894   0.969   1.420  0.1806  0.2399  0.1274
   72MOL    C9439996   6.657   0.959   1.370 -1.4652 -0.4775 -0.1455
   72MOL    C9539997   6.636   1.088   1.292  0.2480 -0.6654  0.3464
   72MOL    C9639998   6.553   0.860   1.316 -0.5733 -0.8646 -0.0012
   72MOL    C9739999   6.560   0.729   1.399 -0.4341 -0.4385  0.0407
   72MOL    H9840000   6.541   0.426   1.384 -0.0290  1.1851  0.9441
   72MOL    H9940001   6.691   0.417   1.287  0.1900 -0.5992  0.2580
   72MOL   H10040002   6.677   0.527   1.564 -1.7840  0.9051 -1.0296
   72MOL   H10140003   6.841   0.387   1.465 -0.9002  0.2260 -1.3048
   72MOL   H10240004   6.704   0.649   1.275 -0.0260 -2.7017  0.0033
   72MOL   H10340005   6.797   0.767   1.534  0.1391 -0.6862  0.3404
   72MOL   H10440006   6.902   0.712   1.410  0.2925  1.8101  0.1077
   72MOL   H10540007   6.831   0.877   1.254 -0.7913 -0.1560 -1.0045
   72MOL   H10640008   6.881   1.053   1.379 -0.9205 -0.0112 -0.0622
   72MOL   H10740009   6.637   0.986   1.473 -1.6436  0.6476 -0.4733
   72MOL   H10840010   6.647   1.085   1.184 -1.9787 -0.0701  0.0769
   72MOL   H10940011   6.536   1.128   1.310  1.0976  1.3322  0.7863
   72MOL   H11040012   6.570   0.844   1.210 -0.1964 -1.0686  0.0887
   72MOL   H11140013   6.455   0.906   1.325  0.7163  1.9250  0.5058
   72MOL   H11240014   6.479   0.667   1.361 -0.2691 -1.1815  0.8997
   72MOL   H11340015   6.537   0.738   1.505  1.4768 -0.5675  0.4879
   72MOL   O11440016   6.728   1.193   1.332  0.2481 -0.2934 -0.7941
   72MOL   C11540017   6.673   1.321   1.298  0.3620  0.6220  0.3176
   72MOL   C11640018   6.776   1.427   1.324  0.1852 -0.4050 -0.3879
   72MOL   O11740019   6.894   1.390   1.267 -0.1766  0.0742  0.1884
   72MOL   C11840020   6.732   1.568   1.296 -0.2969 -0.4204  0.3199
   72MOL   C11940021   6.718   1.601   1.147 -0.0829 -0.3930  0.5375
   72MOL   C12040022   6.674   1.743   1.116  0.8422  0.1772 -0.6553
   72MOL   O12140023   6.677   1.750   0.973 -0.0547 -0.2739  0.4124
   72MOL   C12240024   6.781   1.838   1.174 -0.2767  0.1222 -0.4289
   72MOL   C12340025   6.752   1.986   1.126 -0.0604  0.1162  0.2506
   72MOL   C12440026   6.802   1.821   1.319 -0.1267  0.3825  0.0909
   72MOL   C12540027   6.829   1.675   1.359 -0.1673 -0.7172  0.3617
   72MOL   H12640028   6.588   1.343   1.362 -1.3202 -0.7876 -1.3700
   72MOL   H12740029   6.629   1.315   1.198 -0.6552 -2.6582  0.9065
   72MOL   H12840030   6.800   1.425   1.431 -1.5112  0.3512  0.0176
   72MOL   H12940031   6.884   1.297   1.260  0.7393  0.0028 -0.3123
   72MOL   H13040032   6.635   1.580   1.345 -0.0702 -1.8136  1.1387
   72MOL   H13140033   6.819   1.600   1.105 -0.0455 -1.0993  0.6449
   72MOL   H13240034   6.650   1.535   1.093  1.4202 -0.1164 -1.7572
   72MOL   H13340035   6.574   1.773   1.147  1.7691  2.0412  0.6071
   72MOL   H13440036   6.766   1.742   0.943 -0.3718  0.2806 -0.6934
   72MOL   H13540037   6.877   1.811   1.131  1.2102 -0.1232  2.8556
   72MOL   H13640038   6.705   1.984   1.027  0.7679  2.1154 -0.1984
   72MOL   H13740039   6.692   2.049   1.191 -0.9294 -0.5048  0.0565
   72MOL   H13840040   6.707   1.840   1.369  0.3112 -0.1066  1.1119
   72MOL   H13940041   6.871   1.887   1.371 -1.5798  1.9856  0.0260
   72MOL   H14040042   6.833   1.674   1.468  0.9435 -1.9255  0.3241
   72MOL   H14140043   6.930   1.652   1.324  0.1239  2.2035 -0.8565
   72MOL   O14240044   6.883   2.044   1.096  0.1077 -0.3539 -0.6064
   72MOL   C14340045   6.865   2.174   1.040  0.3907  0.2894  0.3961
   72MOL   C14440046   6.954   2.175   0.903 -0.5199  0.3105 -0.1962
   72MOL   O14540047   7.086   2.157   0.947  0.1559 -0.9803 -0.2896
   72MOL   C14640048   6.924   2.079   0.781 -0.6783 -0.4681  0.3197
   72MOL   C14740049   6.935   1.925   0.822  0.1673  0.8701 -0.4970
   72MOL   C14840050   6.923   1.823   0.703 -0.7669 -0.1647 -0.1495
   72MOL   O14940051   6.956   1.688   0.752  0.1288 -0.2927  0.6063
   72MOL   C15040052   7.019   1.856   0.591  0.0105 -0.2305 -0.4770
   72MOL   C15140053   7.001   1.762   0.469 -0.0114  0.1940 -0.4173
   72MOL   C15240054   6.997   2.000   0.547 -0.0158 -0.1710 -0.7541
   72MOL   C15340055   7.025   2.095   0.664  0.6757 -0.1809 -0.3942
   72MOL   H15440056   6.900   2.253   1.107  0.7640 -0.0179  0.5636
   72MOL   H15540057   6.762   2.203   1.019  1.0981  1.9579 -0.8752
   72MOL   H15640058   6.940   2.274   0.859  1.0316 -0.3974 -2.3432
   72MOL   H15740059   7.086   2.090   1.014  1.0186 -1.2682 -0.5625
   72MOL   H15840060   6.825   2.097   0.737 -0.2263  1.1884 -0.0349
   72MOL   H15940061   7.026   1.893   0.872 -1.1550 -1.1883  0.6615
   72MOL   H16040062   6.848   1.912   0.887 -1.4039  2.6679 -2.1413
   72MOL   H16140063   6.822   1.830   0.663 -1.2476 -2.3023  0.6309
   72MOL   H16240064   7.002   1.698   0.834  1.9778 -0.5143 -0.3515
   72MOL   H16340065   7.119   1.848   0.633 -0.7239 -0.3320  1.3248
   72MOL   H16440066   6.996   1.656   0.495 -2.2008  0.3211 -0.2242
   72MOL   H16540067   6.904   1.778   0.422 -0.4612 -0.9562  0.0868
   72MOL   H16640068   6.894   2.014   0.514  0.8576  0.9048 -3.1232
   72MOL   H16740069   7.068   2.022   0.467 -0.5098  0.4790 -1.0160
   72MOL   H16840070   7.024   2.200   0.636 -2.5863  0.8236  3.0326
   72MOL   H16940071   7.129   2.083   0.694 -0.0248  0.2413  2.3135
   72MOL   O17040072   7.113   1.758   0.375  0.0621 -0.1646  0.3358
   72MOL   C17140073   7.088   1.698   0.249 -0.1744 -0.3168 -0.3214
   72MOL   C17240074   7.091   1.808   0.143  0.2100 -0.0518 -0.0198
   72MOL   O17340075   7.223   1.826   0.093  0.3558  0.7555 -0.0506
   72MOL   C17440076   6.996   1.771   0.020 -0.8239  0.2543  0.3009
   72MOL   C17540077   7.005   1.879   7.541 -0.2675  0.3515  0.6792
   72MOL   C17640078   6.900   1.873   7.429 -0.3844  0.4649  0.2214
   72MOL   O17740079   6.917   1.977   7.337  0.1305 -0.4524  0.1246
   72MOL   C17840080   6.754   1.869   7.477 -0.5271 -0.1572  0.5908
   72MOL   C17940081   6.652   1.840   7.355  0.1388 -0.1266  0.0113
   72MOL   C18040082   6.745   1.753   7.578  0.5776  0.1132  0.4345
   72MOL   C18140083   6.844   1.769   0.063  0.1595  0.9682 -0.9932
   72MOL   H18240084   7.000   1.634   0.241 -0.9391  0.8830 -1.6596
   72MOL   H18340085   7.175   1.637   0.224  1.7317  1.9160  0.6164
   72MOL   H18440086   7.050   1.900   0.185 -1.6327 -1.7811  2.1083
   72MOL   H18540087   7.266   1.861   0.169 -0.3547 -0.7235  1.0555
   72MOL   H18640088   7.024   1.679   7.598  0.0928  0.5801  0.1924
   72MOL   H18740089   6.993   1.975   7.591 -0.4349  0.5391  0.2748
   72MOL   H18840090   7.103   1.882   7.495 -0.5615 -1.3281 -0.0932
   72MOL   H18940091   6.910   1.776   7.380 -0.6583  0.5961 -0.0930
   72MOL   H19040092   7.010   1.979   7.320  0.2160 -2.5293  0.2500
   72MOL   H19140093   6.715   1.963   7.516 -1.7482 -0.2957 -0.2649
   72MOL   H19240094   6.667   1.919   7.281 -0.6843 -0.3421 -0.3872
   72MOL   H19340095   6.680   1.753   7.296 -1.0170 -0.4479 -0.0895
   72MOL   H19440096   6.754   1.655   7.530 -0.0842  1.3785 -2.3725
   72MOL   H19540097   6.646   1.745   7.624  0.7133 -0.4933  0.6245
   72MOL   H19640098   6.821   1.702   0.146  0.7646  0.8095 -0.9524
   72MOL   H19740099   6.814   1.857   0.120 -1.5057  0.0497 -0.4371
   72MOL   O19840100   6.516   1.831   7.392 -0.5303 -0.3616  0.0934
   72MOL   C19940101   6.451   1.946   7.422 -0.1615  0.0476 -0.2124
   72MOL   C20040102   6.338   1.910   7.517 -0.3295 -0.2414  0.7857
   72MOL   O20140103   6.264   1.826   7.439  0.2274 -0.2624  0.1002
   72MOL   C20240104   6.369   1.872   0.033 -0.1151  0.2017  0.1867
   72MOL   C20340105   6.241   1.835   0.112  0.2391  0.2998  0.2311
   72MOL   C20440106   6.285   1.788   0.251  0.0725  0.2145  0.2523
   72MOL   O20540107   6.166   1.742   0.320  0.4183  0.2588 -0.6620
   72MOL   C20640108   6.357   1.901   0.329  0.0620  0.9146  1.1639
   72MOL   C20740109   6.390   1.850   0.477 -0.1988  0.0260 -0.3317
   72MOL   C20840110   6.476   1.953   0.248 -0.0765 -0.3898  0.1119
   72MOL   C20940111   6.437   1.992   0.102 -0.2623  0.4020  0.1350
   72MOL   H21040112   6.424   2.013   7.340 -1.4676  0.3495  0.4499
   72MOL   H21140113   6.521   2.018   7.463  1.3269  0.2485 -2.9981
   72MOL   H21240114   6.274   1.997   7.529 -1.6670 -1.2571  1.1024
   72MOL   H21340115   6.318   1.749   7.429 -1.0968 -1.1326 -0.4854
   72MOL   H21440116   6.435   1.785   0.026  0.5906  0.8204 -1.1304
   72MOL   H21540117   6.162   1.909   0.102  0.5397  0.5195 -0.5406
   72MOL   H21640118   6.203   1.751   0.054 -0.9480  0.8296  0.2226
   72MOL   H21740119   6.345   1.698   0.262 -1.8763 -0.9277  1.8905
   72MOL   H21840120   6.103   1.812   0.323 -0.0808 -0.1566 -1.5608
   72MOL   H21940121   6.285   1.982   0.336  0.4433  1.3472  0.0338
   72MOL   H22040122   6.310   1.787   0.514 -0.7211  0.1371 -1.2570
   72MOL   H22140123   6.474   1.781   0.473  0.4955  0.8832 -0.9417
   72MOL   H22240124   6.559   1.883   0.241 -0.0697 -0.4405  0.6789
   72MOL   H22340125   6.512   2.039   0.304  0.4535  0.0566 -0.9138
   72MOL   H22440126   6.529   2.020   0.051 -0.8464 -0.6188 -1.5127
   72MOL   H22540127   6.372   2.080   0.102  0.2680  0.7997 -0.4679
   72MOL   O22640128   6.417   1.967   0.559  0.3522 -0.6987 -0.0655
   72MOL   C22740129   6.477   1.943   0.682  0.3416  0.1395  0.4198
   72MOL   C22840130   6.394   1.844   0.776 -0.0119 -0.8580 -0.1298
   72MOL   O22940131   6.437   1.859   0.908  0.1789  0.1591 -0.4464
   72MOL   C23040132   6.238   1.868   0.779  0.3627  0.2113  0.1001
   72MOL   C23140133   6.186   1.972   0.878 -0.1460 -0.2624 -0.4367
   72MOL   C23240134   6.036   1.990   0.882 -0.6449  0.3945  0.1503
   72MOL   O23340135   6.013   2.043   1.003 -0.1169  0.2925  0.1165
   72MOL   C23440136   5.959   1.851   0.867 -0.5143 -0.4578 -0.8888
   72MOL   C23540137   5.807   1.882   0.860  0.5318 -0.4475 -0.0970
   72MOL   C23640138   6.026   1.748   0.772  0.0719 -0.8139  0.6835
   72MOL   C23740139   6.170   1.731   0.794  0.1258 -0.3818 -0.0652
   72MOL   H23840140   6.479   2.037   0.738 -1.4612 -0.6247  1.8231
   72MOL   H23940141   6.580   1.914   0.666 -0.4604 -1.7777 -1.4731
   72MOL   H24040142   6.417   1.744   0.739  1.4058 -0.9257  0.8964
   72MOL   H24140143   6.519   1.813   0.919 -0.2246 -0.5456 -0.3612
   72MOL   H24240144   6.212   1.915   0.684  0.4873  0.2441  0.0829
   72MOL   H24340145   6.220   1.935   0.974  0.3957 -2.1917 -1.3488
   72MOL   H24440146   6.233   2.069   0.862 -0.2368 -0.0880  0.3331
   72MOL   H24540147   6.014   2.055   0.797  1.4125 -0.0480 -0.7784
   72MOL   H24640148   5.999   1.974   1.066 -0.9094 -1.3490 -1.8192
   72MOL   H24740149   5.969   1.801   0.963 -0.5429 -2.4515 -1.8828
   72MOL   H24840150   5.781   1.961   0.931  0.3833  0.6174 -1.3188
   72MOL   H24940151   5.772   1.920   0.764 -3.2031 -1.9057  0.6164
   72MOL   H25040152   6.000   1.781   0.671  2.1873 -2.2831 -0.3796
   72MOL   H25140153   5.985   1.647   0.781 -2.2298  0.0603  0.5414
   72MOL   H25240154   6.208   1.659   0.721  2.4349  0.7556 -0.0072
   72MOL   H25340155   6.192   1.699   0.896  3.7534  1.0965 -0.3245
   72MOL   O25440156   5.738   1.766   0.885  0.1450 -0.0064  0.4219
   72MOL   C25540157   5.603   1.790   0.937  0.3821  0.4484  0.1227
   72MOL   C25640158   5.546   1.648   0.967  0.8368  0.0051 -0.2616
   72MOL   O25740159   5.574   1.564   0.857 -0.0278  0.3317  0.0258
   72MOL   C25840160   5.611   1.581   1.097  0.0352 -0.0465  0.4984
   72MOL   C25940161   5.566   1.653   1.221  0.1849 -0.3371 -0.0465
   72MOL   C26040162   5.599   1.567   1.340 -0.4847 -0.0083  0.0902
   72MOL   O26140163   5.553   1.635   1.454  0.1058  0.2255  0.0473
   72MOL   C26240164   5.750   1.543   1.350  0.1060  0.1794 -0.4180
   72MOL   C26340165   5.786   1.450   1.469  0.3020  0.3357  0.6903
   72MOL   C26440166   5.806   1.487   1.219  0.1254 -0.0598  0.0393
   72MOL   C26540167   5.765   1.568   1.100  0.2671  0.7865  0.1026
   72MOL   H26640168   5.549   1.850   0.862 -0.2559 -1.4144 -0.9423
   72MOL   H26740169   5.605   1.849   1.028  0.7527 -1.0136  1.0695
   72MOL   H26840170   5.438   1.645   0.975  0.4338 -0.5949 -4.5780
   72MOL   H26940171   5.650   1.606   0.819 -1.1808 -0.8159 -3.7810
   72MOL   H27040172   5.571   1.480   1.104 -2.3676  0.9009  1.0478
   72MOL   H27140173   5.607   1.754   1.220  0.2789 -0.3705  0.4102
   72MOL   H27240174   5.457   1.662   1.222  0.2442  0.4091 -0.3831
   72MOL   H27340175   5.541   1.474   1.332  0.8025 -0.7670 -0.6157
   72MOL   H27440176   5.592   1.721   1.445  0.6967 -0.1493 -1.0626
   72MOL   H27540177   5.797   1.638   1.374 -0.4298  1.0032 -2.5670
   72MOL   H27640178   5.892   1.451   1.494  0.0282 -0.4616  1.9300
   72MOL   H27740179   5.741   1.489   1.560  1.5391  3.8087 -0.1134
   72MOL   H27840180   5.780   1.382   1.204 -0.7272 -0.1008  1.6220
   72MOL   H27940181   5.915   1.488   1.226  0.0100 -0.3346  2.1442
   72MOL   H28040182   5.797   1.500   1.021 -0.2326 -1.8425  2.0728
   72MOL   H28140183   5.832   1.654   1.098  0.8347  0.3308 -0.3601
   72MOL   O28240184   5.738   1.318   1.462 -0.1149  0.0942 -0.2744
   72MOL   C28340185   5.782   1.229   1.570  0.3787 -0.1965 -0.3786
   72MOL   C28440186   5.692   1.110   1.569 -0.2977 -0.4897  0.2537
   72MOL   O28540187   5.750   1.004   1.638 -0.3110  0.7332  0.0737
   72MOL   C28640188   5.557   1.129   1.632  0.1362 -0.0812  0.7680
   72MOL   C28740189   5.465   1.009   1.605  0.0486  0.2613 -0.5320
   72MOL   C28840190   5.313   1.034   1.646  0.7269 -0.2562 -0.0210
   72MOL   O28940191   5.238   0.917   1.615  0.0030  0.3474  0.0557
   72MOL   C29040192   5.249   1.163   1.592  0.5478 -0.2613  0.4863
   72MOL   C29140193   5.096   1.191   1.625 -0.4492 -0.2438  0.3710
   72MOL   C29240194   5.344   1.271   1.647 -0.0852 -0.2223 -0.0094
   72MOL   C29340195   5.481   1.256   1.580 -0.9405 -0.3104  0.1753
   72MOL   H29440196   5.772   1.278   1.667 -1.9315 -2.9979  0.8421
   72MOL   H29540197   5.886   1.194   1.567  0.3843 -0.1705 -0.5027
   72MOL   H29640198   5.682   1.073   1.466  0.7338 -0.2094  0.0419
   72MOL   H29740199   5.774   1.036   1.723 -2.2433 -1.1160  1.3714
   72MOL   H29840200   5.577   1.143   1.739  2.8850 -0.0179  0.2774
   72MOL   H29940201   5.473   0.990   1.498  0.6625  0.4546 -0.5237
   72MOL   H30040202   5.505   0.933   1.671 -0.3142  0.7446  0.2560
   72MOL   H30140203   5.308   1.040   1.754  1.9036 -0.7839  0.0773
   72MOL   H30240204   5.151   0.929   1.649 -0.2889 -2.0692  0.2589
   72MOL   H30340205   5.260   1.154   1.484 -1.7404  0.1880  0.1873
   72MOL   H30440206   5.089   1.194   1.734 -0.1909  0.0969  0.3760
   72MOL   H30540207   5.078   1.292   1.590 -0.4214 -1.2278 -2.6790
   72MOL   H30640208   5.341   1.268   1.756 -0.3186 -1.0088 -0.0381
   72MOL   H30740209   5.317   1.372   1.617 -0.6479 -0.1605  0.7005
   72MOL   H30840210   5.525   1.353   1.605 -1.6737 -0.3141  1.5155
   72MOL   H30940211   5.457   1.257   1.473 -1.1789 -0.2822  0.2288
   72MOL   O31040212   4.991   1.100   1.584 -0.3551 -0.2641 -0.2597
   72MOL   C31140213   4.984   1.089   1.443 -0.3530 -0.0646  0.2575
   72MOL   C31240214   4.943   0.950   1.416  0.2071  0.3884 -0.3107
   72MOL   O31340215   4.813   0.932   1.468 -0.5278 -0.4496  0.7276
   72MOL   C31440216   4.946   0.903   1.271 -0.5236  0.9126 -0.7094
   72MOL   C31540217   5.083   0.921   1.205 -0.7978 -1.1378 -0.7202
   72MOL   C31640218   5.100   0.860   1.064 -0.6800  0.6058  0.0186
   72MOL   O31740219   5.230   0.886   1.021  0.7824 -0.4014 -0.0735
   72MOL   C31840220   4.993   0.910   0.967  0.3898  0.3097  0.7739
   72MOL   C31940221   5.004   0.823   0.841 -0.2547 -0.2301  0.7250
   72MOL   C32040222   4.852   0.896   1.035  0.1325  0.2776 -0.2402
   72MOL   C32140223   4.845   0.961   1.175  0.5994  0.1396 -0.1360
   72MOL   H32240224   5.082   1.101   1.397  0.3934 -2.6727  1.0846
   72MOL   H32340225   4.929   1.174   1.402  2.1873  0.5002 -2.1619
   72MOL   H32440226   5.010   0.880   1.466  2.0590  0.6968 -2.3212
   72MOL   H32540227   4.816   0.982   1.548 -0.5710  0.9048 -0.0957
   72MOL   H32640228   4.918   0.798   1.265 -0.0213  0.8774 -2.6116
   72MOL   H32740229   5.107   1.026   1.190  1.4086 -1.4172  0.7244
   72MOL   H32840230   5.151   0.885   1.282 -0.3150 -1.9130 -1.5009
   72MOL   H32940231   5.094   0.753   1.080 -2.0009  0.6073 -0.4476
   72MOL   H33040232   5.239   0.974   0.988  0.5779  0.2929  1.6791
   72MOL   H33140233   5.001   1.016   0.943 -2.2131  0.8324  1.9898
   72MOL   H33240234   5.106   0.819   0.801 -0.4119 -2.7814  0.4800
   72MOL   H33340235   4.971   0.723   0.870  1.0345 -1.3089 -1.3965
   72MOL   H33440236   4.824   0.791   1.028  0.6994  0.2014 -1.4726
   72MOL   H33540237   4.771   0.938   0.975 -1.7751 -2.6666  0.1504
   72MOL   H33640238   4.740   0.956   1.203  0.5180 -0.5900 -0.5504
   72MOL   H33740239   4.867   1.067   1.161  1.9909 -0.3502 -1.9786
   72MOL   O33840240   4.917   0.862   0.732 -0.1314 -0.0510  0.0622
   72MOL   C33940241   4.958   0.972   0.655  0.2928  0.2132  0.4638
   72MOL   C34040242   5.077   0.958   0.567 -0.2581  0.5015  0.0831
   72MOL   O34140243   5.202   0.972   0.639 -0.3526  0.1783 -0.0581
   72MOL   C34240244   5.081   0.832   0.485 -0.6419 -0.0349  0.1580
   72MOL   C34340245   5.207   0.826   0.395 -0.2227  0.0055  0.3335
   72MOL   C34440246   5.209   0.694   0.317  0.6145  0.6400 -0.0211
   72MOL   O34540247   5.330   0.687   0.250 -0.4059  0.1585 -0.2210
   72MOL   C34640248   5.085   0.672   0.224  0.1732 -0.0154 -0.3899
   72MOL   C34740249   5.094   0.532   0.149  0.5666 -0.9333  0.0746
   72MOL   C34840250   4.955   0.688   0.309  0.3942  0.5144  0.0093
   72MOL   C34940251   4.946   0.811   0.402 -0.0136  0.6251 -0.0676
   72MOL   H35040252   4.959   1.063   0.715  1.6315  0.7252 -0.3100
   72MOL   H35140253   4.870   0.989   0.593  1.0202  0.3484 -0.5485
   72MOL   H35240254   5.072   1.045   0.501  2.7825 -0.5377 -1.6034
   72MOL   H35340255   5.199   1.054   0.686 -0.0392  0.6669 -0.8650
   72MOL   H35440256   5.088   0.744   0.549  1.2689 -0.3330 -0.4127
   72MOL   H35540257   5.209   0.910   0.325 -2.7962 -1.2972 -1.3955
   72MOL   H35640258   5.300   0.825   0.451 -0.6906  1.5416  1.1584
   72MOL   H35740259   5.203   0.610   0.386  0.1205  0.9298  0.2891
   72MOL   H35840260   5.388   0.624   0.289 -1.0678  0.3879  1.1526
   72MOL   H35940261   5.078   0.750   0.148  0.0110  2.0542  1.7195
   72MOL   H36040262   5.155   0.553   0.061  1.2205  0.6184  0.8775
   72MOL   H36140263   5.145   0.465   0.218  0.2239 -1.3444 -0.0684
   72MOL   H36240264   4.939   0.605   0.377  1.1456  0.5942  0.2948
   72MOL   H36340265   4.872   0.696   0.238  0.2245  1.9618  0.3517
   72MOL   H36440266   4.856   0.817   0.463  1.1044  3.3539  1.3842
   72MOL   H36540267   4.941   0.900   0.339  0.5450  1.4019  0.9716
   72MOL   O36640268   4.966   0.470   0.110  0.6856 -0.1506 -0.1034
   72MOL   C36740269   4.911   0.503   7.618 -0.2347 -0.1586 -0.1090
   72MOL   C36840270   4.774   0.437   7.606 -0.5652  0.2372 -0.7771
   72MOL   O36940271   4.784   0.294   7.626 -0.2458 -1.0298  0.1979
   72MOL   C37040272   4.674   0.504   0.082  0.2790  0.5161  0.0632
   72MOL   C37140273   4.546   0.421   0.105 -0.1875 -0.1997 -0.3373
   72MOL   C37240274   4.454   0.488   0.217  0.4992 -0.0058 -0.5085
   72MOL   O37340275   4.345   0.400   0.216  0.3968  0.2235  0.6743
   72MOL   C37440276   4.406   0.630   0.173 -0.1782 -0.3383  0.0315
   72MOL   C37540277   4.318   0.696   0.279 -0.1858 -0.3353  0.4724
   72MOL   C37640278   4.544   0.711   0.155  0.4844  0.3768  0.1952
   72MOL   C37740279   4.636   0.650   0.047 -0.0568 -0.4082 -0.9224
   72MOL   H37840280   4.981   0.460   7.546 -0.8846  3.5342 -3.1113
   72MOL   H37940281   4.890   0.608   7.597 -2.7783 -0.7044 -0.3738
   72MOL   H38040282   4.733   0.451   7.505 -3.0549  1.4374  0.3593
   72MOL   H38140283   4.839   0.279   0.072 -1.1871 -0.2168  1.0763
   72MOL   H38240284   4.724   0.508   0.179 -0.4661 -1.2797  0.5386
   72MOL   H38340285   4.498   0.406   0.008 -1.1115 -2.0601  0.3784
   72MOL   H38440286   4.565   0.318   0.135  0.8288 -0.3659 -1.5334
   72MOL   H38540287   4.511   0.484   0.310  0.6962 -2.5325 -0.6898
   72MOL   H38640288   4.307   0.401   0.130 -0.8512  0.4880  1.2141
   72MOL   H38740289   4.349   0.623   0.081  0.1100 -0.1649 -0.1607
   72MOL   H38840290   4.232   0.633   0.301 -0.1416 -0.7227 -0.4423
   72MOL   H38940291   4.375   0.718   0.369 -1.9580  0.9021  1.3283
   72MOL   H39040292   4.602   0.712   0.247  0.3049  1.5424  0.2991
   72MOL   H39140293   4.521   0.817   0.147 -2.6105 -0.2047  0.6975
   72MOL   H39240294   4.720   0.718   0.032  1.5863 -2.2027 -0.0906
   72MOL   H39340295   4.590   0.653   7.577  3.5986  0.9517 -2.6343
   72MOL   O39440296   4.261   0.817   0.223  0.4185 -0.2062  0.1978
   72MOL   C39540297   4.198   0.910   0.298  0.3501 -0.3175  0.1232
   72MOL   C39640298   4.252   1.045   0.251  0.1577  0.0137 -0.5710
   72MOL   O39740299   4.147   1.130   0.210  0.2909  0.4822  0.4235
   72MOL   C39840300   4.345   1.108   0.351 -0.1916  0.2225 -0.1453
   72MOL   C39940301   4.391   1.250   0.311 -0.5942  0.4826  0.2632
   72MOL   C40040302   4.484   1.314   0.414 -0.4039 -1.0855 -0.1663
   72MOL   O40140303   4.527   1.447   0.365  0.2208 -0.0138 -0.5082
   72MOL   C40240304   4.618   1.230   0.423 -0.6298  0.3854  0.1842
   72MOL   C40340305   4.707   1.279   0.533  0.1351 -0.2918 -0.4948
   72MOL   C40440306   4.578   1.083   0.453 -0.2864 -0.1360  0.1039
   72MOL   C40540307   4.477   1.020   0.362  0.0555 -0.2350  0.1532
   72MOL   H40640308   4.217   0.889   0.403 -0.5047 -0.1724  0.3039
   72MOL   H40740309   4.092   0.896   0.277  0.6265 -0.8524 -0.9787
   72MOL   H40840310   4.311   1.029   0.161  0.9333 -1.5335  0.2035
   72MOL   H40940311   4.107   1.098   0.131 -1.6936  2.0051  0.7852
   72MOL   H41040312   4.314   1.119   0.455  1.5595  1.7924  0.2342
   72MOL   H41140313   4.450   1.251   0.220  0.7266 -0.1684  1.0930
   72MOL   H41240314   4.309   1.320   0.293 -0.2452  0.7970 -0.1081
   72MOL   H41340315   4.441   1.321   0.514 -2.7310 -1.0605 -1.1454
   72MOL   H41440316   4.459   1.495   0.321 -0.3014 -0.5307 -0.2772
   72MOL   H41540317   4.675   1.239   0.330  4.0746  2.3043  3.0529
   72MOL   H41640318   4.801   1.224   0.537  0.2766  0.0435  1.2058
   72MOL   H41740319   4.745   1.378   0.508  0.9423 -0.8270 -1.4171
   72MOL   H41840320   4.538   1.073   0.554 -1.5694 -1.0919 -0.4869
   72MOL   H41940321   4.669   1.023   0.454  0.7622  1.4058 -1.1784
   72MOL   H42040322   4.456   0.925   0.411 -2.0624  0.5693  0.8657
   72MOL   H42140323   4.515   1.002   0.261 -0.9005  1.7759 -0.5862
   72MOL   O42240324   4.651   1.280   0.660  0.1121  0.0910  0.1013
   72MOL   C42340325   4.629   1.404   0.728 -0.1794 -0.4221 -0.0133
   72MOL   C42440326   4.539   1.386   0.849  0.2284 -0.3661 -0.4122
   72MOL   O42540327   4.591   1.270   0.921  0.2794  0.1029  0.2505
   72MOL   C42640328   4.545   1.509   0.948  0.5074 -0.5891 -0.5218
   72MOL   C42740329   4.467   1.475   1.077  0.4969  0.6960  0.2293
   72MOL   C42840330   4.474   1.592   1.175  0.2143 -0.8218  0.2774
   72MOL   O42940331   4.400   1.556   1.292  0.1655  0.3204  0.4597
   72MOL   C43040332   4.425   1.721   1.110 -0.2968  0.0399 -0.3318
   72MOL   C43140333   4.411   1.840   1.204 -0.4855  0.3097  0.9518
   72MOL   C43240334   4.506   1.760   0.981 -0.3977 -0.0207 -0.8929
   72MOL   C43340335   4.508   1.646   0.884 -0.0218 -0.0299 -0.3236
   72MOL   H43440336   4.582   1.478   0.663 -0.4818 -2.6118 -2.3395
   72MOL   H43540337   4.720   1.455   0.759 -2.1925  1.7440  2.6058
   72MOL   H43640338   4.443   1.360   0.805  0.0584  0.4300 -0.5347
   72MOL   H43740339   4.643   1.229   0.853  0.1720  0.5842 -0.1282
   72MOL   H43840340   4.648   1.516   0.983  0.1737  0.3989  0.2679
   72MOL   H43940341   4.368   1.443   1.044  0.2766  2.7367 -1.2302
   72MOL   H44040342   4.509   1.388   1.127 -0.0668  0.1428 -0.2645
   72MOL   H44140343   4.580   1.609   1.193  0.4069  0.8778 -2.0968
   72MOL   H44240344   4.313   1.529   1.266  1.1546 -0.5417 -2.1592
   72MOL   H44340345   4.327   1.691   1.075  0.7624 -0.9047 -2.6037
   72MOL   H44440346   4.354   1.830   1.296 -0.8345 -2.0565  0.5160
   72MOL   H44540347   4.517   1.855   1.227 -0.4494  2.0129 -0.1881
   72MOL   H44640348   4.608   1.792   1.000  0.4924 -3.0642 -0.3546
   72MOL   H44740349   4.456   1.844   0.931 -1.7038 -1.3613 -1.8944
   72MOL   H44840350   4.598   1.670   0.826  1.2042 -2.7986  0.3432
   72MOL   H44940351   4.418   1.643   0.823 -0.9335 -0.5884  1.0180
   72MOL   O45040352   4.361   1.955   1.135 -0.2685  0.0596 -0.2169
   72MOL   C45140353   4.434   2.069   1.164  0.0041 -0.1627  0.4103
   72MOL   C45240354   4.362   2.191   1.114  0.0518 -0.4092 -0.1540
   72MOL   O45340355   4.358   2.196   0.972  0.1453 -0.1065 -0.1509
   72MOL   C45440356   4.229   2.232   1.184 -0.0710  0.3128  0.5511
   72MOL   C45540357   4.104   2.162   1.127 -0.5931 -0.3640 -0.2439
   72MOL   C45640358   3.971   2.192   1.212 -0.0735  0.5211 -0.0710
   72MOL   O45740359   3.858   2.153   1.143  0.2610  0.4347  0.5235
   72MOL   C45840360   3.961   2.340   1.267 -0.3777  0.6050  0.3887
   72MOL   C45940361   3.863   2.333   1.389 -0.1348 -0.3073 -0.4741
   72MOL   C46040362   4.098   2.409   1.302  0.2018  0.0102  0.4887
   72MOL   C46140363   4.207   2.382   1.200  0.3163  0.2416  0.4135
   72MOL   H46240364   4.537   2.061   1.129 -1.0225  1.6207 -3.3581
   72MOL   H46340365   4.443   2.070   1.272  2.3506  0.1789  0.2442
   72MOL   H46440366   4.432   2.272   1.131 -0.3158 -0.2957  0.8939
   72MOL   H46540367   4.275   2.158   0.945 -0.3179  0.8292 -0.0680
   72MOL   H46640368   4.246   2.188   1.283 -0.5393  0.8140  0.8544
   72MOL   H46740369   4.099   2.195   1.024  0.7441  1.2272  0.1750
   72MOL   H46840370   4.141   2.059   1.121  3.8317  1.0937  0.1522
   72MOL   H46940371   3.977   2.132   1.302 -0.6774  0.0284 -0.3567
   72MOL   H47040372   3.782   2.188   1.187  0.0094 -1.0957  1.3164
   72MOL   H47140373   3.908   2.389   1.185 -0.1673  0.2946  0.0647
   72MOL   H47240374   3.903   2.269   1.468 -1.0541  1.0018  1.0956
   72MOL   H47340375   3.873   2.428   1.442  0.2378 -1.5355  1.7332
   72MOL   H47440376   4.130   2.387   1.404  2.1683  1.0248  0.1130
   72MOL   H47540377   4.077   2.516   1.297 -1.0170 -0.1430  2.0248
   72MOL   H47640378   4.299   2.431   1.231 -0.2857  1.4708  0.2664
   72MOL   H47740379   4.196   2.431   1.103  1.6480  1.2089  0.7410
   72MOL   O47840380   3.729   2.312   1.348  0.2601  0.0209 -1.2829
   72MOL   C47940381   3.655   2.421   1.303 -0.3496  0.0381  0.2286
   72MOL   C48040382   3.619   2.516   1.422 -0.3177 -0.5643 -0.2030
   72MOL   O48140383   3.712   2.626   1.420  0.1693  0.2437 -0.6662
   72MOL   C48240384   3.478   2.581   1.423 -0.0633  0.7726 -0.1848
   72MOL   C48340385   3.466   2.679   1.550 -0.0757  0.7083  0.0612
   72MOL   C48440386   3.328   2.751   1.552  0.3352  0.0356 -0.1764
   72MOL   O48540387   3.328   2.843   1.671  0.7245 -0.1050 -0.0778
   72MOL   C48640388   3.218   2.637   1.558  0.3469  0.8840  0.3456
   72MOL   C48740389   3.073   2.695   1.588 -0.4911 -0.3311 -0.7219
   72MOL   C48840390   3.224   2.547   1.440  0.1177 -0.2228  0.8051
   72MOL   C48940391   3.367   2.478   1.427 -0.1755  0.1360  0.4755
   72MOL   H49040392   3.561   2.386   1.261 -0.4749 -3.7982  3.3966
   72MOL   H49140393   3.701   2.480   1.224 -0.6916 -1.8883 -1.4457
   72MOL   H49240394   3.635   2.457   1.512 -1.7619  1.0462  1.1244
   72MOL   H49340395   3.721   2.658   1.331 -2.8717  0.3011 -0.9972
   72MOL   H49440396   3.461   2.640   1.333  2.0290  0.7080 -0.6547
   72MOL   H49540397   3.498   2.627   1.640 -2.1998 -0.7782  0.0058
   72MOL   H49640398   3.541   2.758   1.544 -0.0750  0.7988  1.2446
   72MOL   H49740399   3.319   2.816   1.465  0.9800  1.9423  1.1361
   72MOL   H49840400   3.260   2.907   1.656  0.3221  0.0366  2.2267
   72MOL   H49940401   3.248   2.581   1.647  1.5879 -0.7814 -1.0784
   72MOL   H50040402   3.007   2.612   1.612 -0.9108  0.2524  0.1944
   72MOL   H50140403   3.075   2.748   1.683  1.7571 -1.8972  0.1406
   72MOL   H50240404   3.198   2.605   1.351 -0.9868  0.3663  1.5098
   72MOL   H50340405   3.145   2.474   1.453  0.4517 -0.7491 -0.0228
   72MOL   H50440406   3.358   2.407   1.344 -0.4085 -1.0576  1.5046
   72MOL   H50540407   3.392   2.412   1.510  1.6734  1.4719  1.0064
   72MOL   O50640408   3.057   2.780   1.474 -0.1403  0.0514  0.0741
   72MOL   C50740409   2.926   2.809   1.437 -0.9390  0.2359  0.3662
   72MOL   C50840410   2.932   2.862   1.296  0.0077  0.0347  0.1066
   72MOL   O50940411   2.811   2.842   1.229  0.0052  0.4171 -0.6363
   72MOL   C51040412   2.968   3.016   1.288  0.2642  0.1777 -0.2019
   72MOL   C51140413   2.850   3.103   1.330 -0.1757 -0.0068  0.2801
   72MOL   C51240414   2.875   3.252   1.302 -0.3739 -0.4214  0.0888
   72MOL   O51340415   2.749   3.326   1.318  0.7142 -0.2076 -0.1513
   72MOL   C51440416   2.925   3.278   1.153  0.6975  0.8589  0.2724
   72MOL   C51540417   2.957   3.431   1.145  0.7486  0.4726 -0.4746
   72MOL   C51640418   3.053   3.192   1.114  0.0204 -0.3345 -1.1201
   72MOL   C51740419   3.035   3.044   1.152  0.0069  0.2334 -0.4221
   72MOL   H51840420   2.883   2.871   1.515  1.0996  0.7935  1.0665
   72MOL   H51940421   2.882   2.710   1.426  0.8006 -0.3361 -1.7371
   72MOL   H52040422   3.016   2.819   1.243 -1.5898 -0.2488 -2.2813
   72MOL   H52140423   2.751   2.902   1.270  0.0094  0.0124 -0.0323
   72MOL   H52240424   3.045   3.025   1.365 -0.5532 -0.4187  0.6931
   72MOL   H52340425   2.762   3.081   1.269 -2.1464  0.2567  2.9427
   72MOL   H52440426   2.831   3.074   1.433 -0.3885 -0.6307  0.0689
   72MOL   H52540427   2.945   3.283   1.380 -1.9956 -1.9892  2.1997
   72MOL   H52640428   2.716   3.326   1.229  2.3677  1.2716 -0.7820
   72MOL   H52740429   2.850   3.258   1.077  1.3393  1.0518 -0.4100
   72MOL   H52840430   2.869   3.494   1.132  2.5395  2.7945 -1.7145
   72MOL   H52940431   3.004   3.459   1.239 -0.8094  0.9241  0.1931
   72MOL   H53040432   3.133   3.242   1.168 -1.6273  1.9624 -0.7523
   72MOL   H53140433   3.079   3.207   1.009 -0.3709 -0.2021 -1.1982
   72MOL   H53240434   3.131   2.994   1.160 -0.2402 -0.3809 -1.1769
   72MOL   H53340435   2.968   2.997   1.079 -1.4601 -1.1767  1.7787
   72MOL   O53440436   3.042   3.454   1.026 -0.0743 -0.3160  0.1719
   72MOL   C53540437   3.084   3.591   1.032 -0.4989 -0.3769  0.6066
   72MOL   C53640438   3.233   3.601   0.995 -1.0672 -0.2301  0.3319
   72MOL   O53740439   3.245   3.588   0.857 -0.1816 -0.5248  0.0686
   72MOL   C53840440   3.295   3.738   1.024 -0.0908  0.3271  0.4739
   72MOL   C53940441   3.241   3.848   0.927 -0.6025  0.1509  0.4588
   72MOL   C54040442   3.311   3.981   0.958 -0.6663 -0.1002  0.0379
   72MOL   O54140443   3.256   4.068   0.864 -0.0602 -0.1328  0.0771
   72MOL   C54240444   3.466   3.976   0.937  0.2283 -0.2454 -0.0324
   72MOL   C54340445   3.540   4.108   0.967  0.2781 -0.2198 -0.0921
   72MOL   C54440446   3.533   3.861   1.017  0.4375  0.7562 -0.0829
   72MOL   C54540447   3.452   3.730   0.999 -0.1628  0.0770 -0.3650
   72MOL   H54640448   3.074   3.633   1.132 -2.0815 -0.1768  0.3797
   72MOL   H54740449   3.010   3.643   0.970  0.2022  0.2241  0.2641
   72MOL   H54840450   3.287   3.522   1.046  0.2891  1.0656  0.9385
   72MOL   H54940451   3.214   3.500   0.842 -0.5519 -0.4441  0.3584
   72MOL   H55040452   3.274   3.762   1.128  0.1602 -2.0366  1.0988
   72MOL   H55140453   3.251   3.832   0.820  1.6789 -0.2092  0.7025
   72MOL   H55240454   3.135   3.870   0.943 -1.2920 -2.7747  0.1796
   72MOL   H55340455   3.275   4.019   1.053 -0.8433  0.2531 -0.1667
   72MOL   H55440456   3.289   4.037   0.781  1.4148 -0.9957  0.9724
   72MOL   H55540457   3.492   3.948   0.835 -0.7013 -0.5532 -0.1804
   72MOL   H55640458   3.513   4.184   0.895  1.0182  1.4166  1.3270
   72MOL   H55740459   3.529   4.146   1.069  0.4184  2.8674 -1.2041
   72MOL   H55840460   3.528   3.892   1.122 -1.3723  1.0621 -0.2336
   72MOL   H55940461   3.637   3.855   0.986  0.7895  0.3357  1.1213
   72MOL   H56040462   3.483   3.660   1.077 -0.9762  0.9314  0.7361
   72MOL   H56140463   3.455   3.688   0.898 -0.8509  2.3149 -1.3390
   72MOL   H56240464   3.645   4.080   0.962  0.4540  0.4339 -0.0036
   73MOL     O140465   2.653   0.687   4.239  0.0448  0.1513 -0.3931
   73MOL     C240466   2.699   0.752   4.118 -0.5889 -0.8492  0.3890
   73MOL     C340467   2.692   0.663   3.997  1.1180 -0.6082  0.5062
   73MOL     O440468   2.748   0.532   4.023  0.0330 -0.5322  0.1091
   73MOL     C540469   2.558   0.651   3.925 -0.8204 -0.5475 -0.3586
   73MOL     C640470   2.517   0.788   3.880 -0.9147 -0.5313 -0.6672
   73MOL     C740471   2.398   0.777   3.776 -0.1465  0.4015  0.1565
   73MOL     O840472   2.362   0.901   3.740 -0.9059  0.1528 -0.3311
   73MOL     C940473   2.279   0.691   3.832 -0.2136 -0.1397 -0.6152
   73MOL    C1040474   2.173   0.659   3.727  0.3642 -1.0142  0.4513
   73MOL    C1140475   2.318   0.564   3.920  0.2002 -0.3142  0.2695
   73MOL    C1240476   2.445   0.582   4.007 -0.0737  0.3659 -0.5099
   73MOL    H1340477   2.806   0.763   4.132 -0.8902  3.3601  0.0682
   73MOL    H1440478   2.650   0.847   4.098  1.4818  0.1377 -0.0711
   73MOL    H1540479   2.765   0.697   3.924  0.5073  0.8120  0.5350
   73MOL    H1640480   2.689   0.469   4.059 -1.4328  0.1997 -0.9754
   73MOL    H1740481   2.581   0.595   3.834 -1.6999  0.2664 -1.0882
   73MOL    H1840482   2.488   0.846   3.968 -0.9866 -1.9943  0.2801
   73MOL    H1940483   2.605   0.844   3.846 -0.0950 -0.4557  1.4860
   73MOL    H2040484   2.426   0.736   3.679 -1.3238 -0.2090  0.0747
   73MOL    H2140485   2.347   0.946   3.822  1.0566 -0.3381  0.3283
   73MOL    H2240486   2.222   0.759   3.896 -1.4367  0.8403 -2.6969
   73MOL    H2340487   2.084   0.625   3.781 -1.2016  2.4807  0.2185
   73MOL    H2440488   2.140   0.752   3.680  0.3499 -0.2985  1.8558
   73MOL    H2540489   2.328   0.471   3.863  0.0955 -0.0147 -0.2424
   73MOL    H2640490   2.228   0.546   3.978 -0.4889  1.2571 -0.2984
   73MOL    H2740491   2.489   0.486   4.033  2.0911  1.5601  0.3218
   73MOL    H2840492   2.419   0.635   4.099  0.8036  1.9029 -1.1397
   73MOL    H2940493   2.688   0.599   4.233 -0.0572  0.2131 -2.1455
   73MOL    O3040494   2.222   0.556   3.642  0.0269 -0.1484  0.1428
   73MOL    C3140495   2.117   0.492   3.571  0.4749 -0.0407 -0.6093
   73MOL    C3240496   2.170   0.362   3.510  0.4136 -0.1274 -0.1251
   73MOL    O3340497   2.246   0.408   3.402  0.4698  0.6167  0.4053
   73MOL    C3440498   2.254   0.276   3.596 -0.5967 -0.0316  1.0266
   73MOL    C3540499   2.338   0.174   3.521  0.3036  0.1544 -0.0217
   73MOL    C3640500   2.422   0.091   3.624 -0.0812  0.2965 -0.0098
   73MOL    O3740501   2.495   7.625   3.548 -0.1483 -0.3591  0.0597
   73MOL    C3840502   2.334   0.018   3.729 -0.2555 -0.4138 -0.1737
   73MOL    C3940503   2.432   7.590   3.831 -0.3384  0.8488 -0.8875
   73MOL    C4040504   2.229   0.105   3.795  0.4768  0.3053  0.5280
   73MOL    C4140505   2.161   0.206   3.700 -0.2579 -0.3010  0.0137
   73MOL    H4240506   2.080   0.565   3.500  3.1568  1.1112 -0.9101
   73MOL    H4340507   2.034   0.478   3.639  0.9509 -2.1249 -0.4198
   73MOL    H4440508   2.082   0.306   3.475  0.1966 -0.2626  0.6204
   73MOL    H4540509   2.318   0.460   3.432 -0.3293  1.9925 -0.0333
   73MOL    H4640510   2.328   0.330   3.655  0.1172 -0.9462  0.9775
   73MOL    H4740511   2.269   0.112   3.464  0.5697 -0.5677  0.4323
   73MOL    H4840512   2.402   0.235   3.457  1.5095 -3.0302 -1.9596
   73MOL    H4940513   2.488   0.154   3.682 -0.5098  0.4580  0.3030
   73MOL    H5040514   2.563   7.585   3.600 -0.8426 -0.1230  1.1854
   73MOL    H5140515   2.279   7.565   3.684 -1.3340 -0.1524  0.6457
   73MOL    H5240516   2.514   7.529   3.792 -0.9466 -0.4634 -0.1367
   73MOL    H5340517   2.468   0.052   3.878  0.1909 -0.4168  1.2431
   73MOL    H5440518   2.279   0.168   3.869  0.8376  0.2891  0.3019
   73MOL    H5540519   2.157   0.042   3.846  1.6125 -1.9562 -0.6104
   73MOL    H5640520   2.100   0.276   3.757 -1.5717 -0.8898 -0.6559
   73MOL    H5740521   2.090   0.146   3.644 -0.4536 -0.1819  0.1344
   73MOL    O5840522   2.371   7.512   3.936 -0.5338 -0.2649 -0.3057
   73MOL    C5940523   2.334   7.378   3.903  0.1098  0.1559 -0.0577
   73MOL    C6040524   2.303   7.297   4.028  0.0354  0.3192  0.4177
   73MOL    O6140525   2.230   7.178   3.986  0.0153  0.6219 -0.0303
   73MOL    C6240526   2.439   7.245   4.094 -0.4229 -0.0794 -0.4895
   73MOL    C6340527   2.414   7.169   4.228  0.2282  0.3333  0.7022
   73MOL    C6440528   2.545   7.115   4.293 -0.1590 -0.3833  0.1801
   73MOL    O6540529   2.527   7.046   4.416 -0.2923  0.7394 -0.2742
   73MOL    C6640530   2.646   7.232   4.309  0.0579  0.1781 -1.3755
   73MOL    C6740531   2.776   7.180   4.375 -0.0441  0.4023 -0.9770
   73MOL    C6840532   2.676   7.295   4.174  0.2981 -0.8639  0.0666
   73MOL    C6940533   2.542   7.355   4.117  0.5507  0.2496  0.3721
   73MOL    H7040534   2.418   7.341   3.844 -0.1953 -0.0661 -0.3590
   73MOL    H7140535   2.246   7.381   3.839  0.3758  0.2357 -0.4197
   73MOL    H7240536   2.244   7.354   4.100  0.5553 -0.3431  1.3899
   73MOL    H7340537   2.155   7.209   3.937  0.6653 -0.4478 -1.7357
   73MOL    H7440538   2.487   7.165   4.038 -0.3631 -2.3313  2.6042
   73MOL    H7540539   2.356   7.232   4.295 -0.2843  1.4751 -0.7934
   73MOL    H7640540   2.350   7.087   4.197 -1.1097  1.0097  1.6361
   73MOL    H7740541   2.600   7.046   4.228  0.0365 -0.0759  0.0198
   73MOL    H7840542   2.610   7.060   4.461 -0.9507  0.5698  1.0199
   73MOL    H7940543   2.610   7.314   4.372 -1.2313  0.0311 -1.9075
   73MOL    H8040544   2.825   7.106   4.312  1.4262  0.6526 -0.1290
   73MOL    H8140545   2.839   7.269   4.377  2.5587 -1.4301  2.6085
   73MOL    H8240546   2.721   7.228   4.101 -0.5042 -2.6909  1.1953
   73MOL    H8340547   2.750   7.370   4.202  0.8605 -1.1242 -0.7390
   73MOL    H8440548   2.570   7.407   4.025  3.1896  1.2302  1.7032
   73MOL    H8540549   2.502   7.432   4.182 -2.3613  0.2804 -1.3381
   73MOL    O8640550   2.758   7.132   4.508 -0.6598 -0.2193  0.4342
   73MOL    C8740551   2.857   7.045   4.563  0.4129 -0.1267 -0.7555
   73MOL    C8840552   2.824   6.891   4.541 -0.5622 -1.2732  0.4418
   73MOL    O8940553   2.890   6.853   4.426  0.2251 -0.2728 -0.0010
   73MOL    C9040554   2.855   6.793   4.655  0.0403 -0.2361  0.3688
   73MOL    C9140555   2.767   6.818   4.779 -1.0556  0.2648  0.3062
   73MOL    C9240556   2.821   6.739   4.903 -0.2240  0.5243 -0.1342
   73MOL    O9340557   2.734   6.781   5.010  0.4525  0.4533  0.5835
   73MOL    C9440558   2.968   6.758   4.932 -0.6089  0.4311 -0.1750
   73MOL    C9540559   3.029   6.693   5.054  0.0613  0.6035 -0.0484
   73MOL    C9640560   3.050   6.718   4.804  0.9989 -0.3950  0.4175
   73MOL    C9740561   3.011   6.797   4.680 -0.3462 -0.0387  0.3365
   73MOL    H9840562   2.843   7.060   4.670 -1.3776  0.0267 -0.9957
   73MOL    H9940563   2.956   7.070   4.525  0.8774  0.4010  0.7914
   73MOL   H10040564   2.717   6.892   4.526 -0.1899  0.5238 -2.3306
   73MOL   H10140565   2.980   6.882   4.435 -0.1538  0.6473  0.9394
   73MOL   H10240566   2.840   6.687   4.632 -0.8683  0.0571 -0.4093
   73MOL   H10340567   2.760   6.923   4.807 -0.0457  0.7661 -1.3006
   73MOL   H10440568   2.666   6.785   4.755 -1.4240  1.6663 -0.0816
   73MOL   H10540569   2.808   6.631   4.894  2.6241 -0.1350  2.4285
   73MOL   H10640570   2.758   6.727   5.084 -0.7768 -2.0441 -0.7611
   73MOL   H10740571   2.987   6.866   4.934 -0.5461  0.4064  1.0496
   73MOL   H10840572   2.961   6.701   5.139  0.9502  1.2576  0.6113
   73MOL   H10940573   3.033   6.586   5.035  0.3977  0.0482  2.8052
   73MOL   H11040574   3.033   6.610   4.799  0.3717 -0.2733 -0.0875
   73MOL   H11140575   3.157   6.728   4.821  0.9139 -0.4747  1.0061
   73MOL   H11240576   3.066   6.750   4.598 -1.5961 -2.7369  0.9850
   73MOL   H11340577   3.056   6.896   4.690 -0.0227 -0.3605  2.3166
   73MOL   O11440578   3.152   6.758   5.085 -0.1053 -0.4791 -0.2579
   73MOL   C11540579   3.151   6.885   5.150  0.0016 -0.6153  0.2090
   73MOL   C11640580   3.199   6.846   5.289 -0.0633 -0.7290 -0.0856
   73MOL   O11740581   3.334   6.808   5.283  0.3312 -0.3206  0.0822
   73MOL   C11840582   3.178   6.962   5.387 -0.0608  0.0835  0.7909
   73MOL   C11940583   3.275   7.083   5.361 -0.7803 -0.1603 -0.3568
   73MOL   C12040584   3.258   7.200   5.466 -0.0053 -0.1774 -0.3787
   73MOL   O12140585   3.326   7.317   5.438 -0.0542  0.2910 -0.2573
   73MOL   C12240586   3.279   7.159   5.610 -0.1627 -0.5210 -0.9322
   73MOL   C12340587   3.261   7.275   5.713  0.3955  0.3532 -0.2734
   73MOL   C12440588   3.200   7.034   5.643  0.3675  0.0885 -0.5100
   73MOL   C12540589   3.193   6.918   5.533  0.4284  0.1050 -0.6587
   73MOL   H12640590   3.067   6.954   5.138  0.0764 -0.8398 -1.6790
   73MOL   H12740591   3.231   6.944   5.104  0.1725 -1.0736 -0.0777
   73MOL   H12840592   3.136   6.767   5.330 -0.9836  0.1970  0.2968
   73MOL   H12940593   3.335   6.719   5.252 -1.1165 -0.7981  1.3531
   73MOL   H13040594   3.072   6.985   5.379 -0.2060 -0.8977 -0.2094
   73MOL   H13140595   3.384   7.077   5.361 -0.8276 -1.1236  0.3737
   73MOL   H13240596   3.257   7.120   5.260  1.5115 -1.8144 -1.3992
   73MOL   H13340597   3.150   7.216   5.471 -0.2659 -2.0336  0.3389
   73MOL   H13440598   3.278   7.380   5.387  0.7752  2.2517  1.3131
   73MOL   H13540599   3.385   7.134   5.619  0.2586  1.6910  0.8959
   73MOL   H13640600   3.335   7.351   5.688  1.2700 -0.5801 -0.5801
   73MOL   H13740601   3.164   7.318   5.687 -1.0632 -3.0461 -0.8650
   73MOL   H13840602   3.096   7.056   5.666  0.6859  0.4621  0.6081
   73MOL   H13940603   3.230   6.993   5.739  1.0172 -2.5279 -1.7972
   73MOL   H14040604   3.114   6.848   5.561  0.3351  0.7182  0.6418
   73MOL   H14140605   3.288   6.868   5.553 -0.2582 -0.6916  0.7181
   73MOL   O14240606   3.256   7.229   5.848  0.3012  0.2170 -0.0699
   73MOL   C14340607   3.333   7.314   5.930  0.0074  0.3136  0.0063
   73MOL   C14440608   3.351   7.222   6.057  0.3932 -0.1412 -0.2508
   73MOL   O14540609   3.429   7.108   6.017 -0.5527 -0.1128 -0.7394
   73MOL   C14640610   3.419   7.291   6.181 -0.5792  0.4397  0.7160
   73MOL   C14740611   3.420   7.186   6.296 -0.3033  0.2045 -0.4689
   73MOL   C14840612   3.467   7.235   6.435 -0.2680  0.1598  0.2127
   73MOL   O14940613   3.433   7.127   6.522  0.6244  0.2776  0.7495
   73MOL   C15040614   3.401   7.363   6.478 -0.2068  0.4729 -0.4552
   73MOL   C15140615   3.452   7.420   6.617 -0.2690  0.1822  0.8848
   73MOL   C15240616   3.393   7.466   6.370  0.0554  0.7976  0.8468
   73MOL   C15340617   3.344   7.418   6.227 -0.8110  0.6221  0.2354
   73MOL   H15440618   3.289   7.412   5.948 -0.1098 -0.0604  1.8546
   73MOL   H15540619   3.426   7.329   5.874  0.2213 -1.6908 -0.1850
   73MOL   H15640620   3.253   7.183   6.084  0.6222 -0.2135  0.5036
   73MOL   H15740621   3.380   7.085   5.939 -0.6696  0.2429 -0.7732
   73MOL   H15840622   3.522   7.323   6.162 -0.4464 -0.1440  0.4656
   73MOL   H15940623   3.316   7.156   6.292  0.4998 -2.5976 -1.0895
   73MOL   H16040624   3.487   7.103   6.274  1.8274  1.6929  0.2174
   73MOL   H16140625   3.574   7.259   6.439  0.7025 -3.1526 -3.2014
   73MOL   H16240626   3.338   7.120   6.519  0.5777  1.3030 -0.6017
   73MOL   H16340627   3.298   7.329   6.484  0.4827 -1.6266  0.0415
   73MOL   H16440628   3.426   7.354   6.700 -0.4894 -1.0479 -0.1548
   73MOL   H16540629   3.560   7.414   6.628 -0.3744 -0.8358  1.4559
   73MOL   H16640630   3.498   7.491   6.360  0.3508 -0.9152 -0.5738
   73MOL   H16740631   3.340   7.560   6.386  0.3066  0.9597  0.7269
   73MOL   H16840632   3.361   7.504   6.164  2.1044 -0.8310 -1.0823
   73MOL   H16940633   3.236   7.402   6.221 -0.7142  0.4345 -1.0989
   73MOL   O17040634   3.413   7.555   6.644 -0.2391 -0.1094 -0.0609
   73MOL   C17140635   3.441   7.595   6.777  0.5981  0.7012 -0.0866
   73MOL   C17240636   3.598   7.625   6.798 -0.0210 -0.4102 -0.2204
   73MOL   O17340637   3.673   7.508   6.818  0.0766  0.2243  0.4552
   73MOL   C17440638   3.668   0.094   6.710 -0.0916 -0.0215 -0.2511
   73MOL   C17540639   3.816   0.118   6.758 -0.3167 -0.1250  0.2030
   73MOL   C17640640   3.890   0.242   6.702 -0.5703 -0.0543  0.2155
   73MOL   O17740641   4.004   0.274   6.788 -0.5410  0.0366  0.8738
   73MOL   C17840642   3.796   0.367   6.705  0.0287  0.0493  0.2128
   73MOL   C17940643   3.866   0.496   6.652 -0.8427 -0.8846  0.0845
   73MOL   C18040644   3.673   0.335   6.621 -0.1269 -0.4820  0.5482
   73MOL   C18140645   3.594   0.228   6.700  0.1984  0.1332 -0.0669
   73MOL   H18240646   3.399   7.526   6.850  0.0885 -1.8597 -2.6759
   73MOL   H18340647   3.376   0.052   6.792  0.5064  0.4730  0.8659
   73MOL   H18440648   3.604   0.043   6.896  0.9323 -1.7697  0.3904
   73MOL   H18540649   3.619   7.464   6.882  0.2838 -0.5827  0.0821
   73MOL   H18640650   3.674   0.046   6.612  0.2215  1.3604 -0.9320
   73MOL   H18740651   3.810   0.119   6.867 -1.1685  0.2396  0.1596
   73MOL   H18840652   3.870   0.030   6.726  0.9399  0.0084  1.8914
   73MOL   H18940653   3.910   0.225   6.596 -0.0336 -1.2139  0.4993
   73MOL   H19040654   3.984   0.295   6.878 -2.1326 -0.8800  0.7655
   73MOL   H19140655   3.765   0.388   6.808  0.1378 -0.5850  0.3755
   73MOL   H19240656   3.956   0.523   6.708 -0.9371  0.4072 -0.3735
   73MOL   H19340657   3.915   0.466   6.560 -0.4673  3.1575 -1.1503
   73MOL   H19440658   3.700   0.290   6.526 -0.9240 -0.5233  0.3388
   73MOL   H19540659   3.613   0.426   6.612  0.0601 -0.4394 -0.2487
   73MOL   H19640660   3.496   0.212   6.654 -0.4393  2.0657  0.5749
   73MOL   H19740661   3.564   0.255   6.801 -2.6981 -2.7011 -0.0742
   73MOL   O19840662   3.776   0.604   6.641  0.0856 -0.2950  0.7728
   73MOL   C19940663   3.842   0.719   6.591 -0.6110  0.0051  0.2518
   73MOL   C20040664   3.736   0.803   6.520  0.2210  0.5021 -0.1897
   73MOL   O20140665   3.814   0.901   6.447  0.2069 -0.2883 -0.1526
   73MOL   C20240666   3.637   0.732   6.427 -0.4937  0.2784 -0.2770
   73MOL   C20340667   3.699   0.644   6.315  0.0176  0.6778 -0.2364
   73MOL   C20440668   3.605   0.567   6.220  0.8480 -0.4541 -0.2542
   73MOL   O20540669   3.675   0.491   6.121  0.1019  0.1224  0.3071
   73MOL   C20640670   3.517   0.674   6.158  0.3405  0.0061  0.1350
   73MOL   C20740671   3.400   0.598   6.076 -0.1823 -0.1025  0.2674
   73MOL   C20840672   3.447   0.763   6.257 -0.0548  0.8689  0.0035
   73MOL   C20940673   3.548   0.831   6.354 -0.1355  0.4950  0.2128
   73MOL   H21040674   3.920   0.698   6.518 -0.9079  2.1609 -0.7545
   73MOL   H21140675   3.886   0.773   6.675 -3.1046  0.5657  1.2659
   73MOL   H21240676   3.678   0.846   6.602  0.4351  2.1718 -0.9019
   73MOL   H21340677   3.870   0.951   6.505 -1.2608  0.4532  0.6491
   73MOL   H21440678   3.574   0.667   6.488 -0.4309 -0.8407 -1.3783
   73MOL   H21540679   3.780   0.696   6.263  0.8031 -1.1386 -0.8572
   73MOL   H21640680   3.760   0.568   6.364 -2.0325 -0.4112  0.6973
   73MOL   H21740681   3.546   0.503   6.285 -1.6328  0.3516 -1.6777
   73MOL   H21840682   3.739   0.546   6.080  1.2513 -0.6151  1.0623
   73MOL   H21940683   3.578   0.747   6.104  0.4215  0.5460  0.9443
   73MOL   H22040684   3.437   0.553   5.983 -0.6936  1.0495 -0.5072
   73MOL   H22140685   3.365   0.513   6.134 -1.0163 -0.9906 -1.4774
   73MOL   H22240686   3.373   0.713   6.319 -2.8336 -0.8723 -4.4703
   73MOL   H22340687   3.399   0.842   6.200  3.1870  3.5117  0.7946
   73MOL   H22440688   3.484   0.890   6.418  0.4417  2.8351 -1.3017
   73MOL   H22540689   3.617   0.901   6.307  0.8769 -1.2057 -0.9384
   73MOL   O22640690   3.298   0.689   6.039 -0.0146 -0.1310 -0.2507
   73MOL   C22740691   3.191   0.619   5.979 -0.3290 -0.3404 -0.3368
   73MOL   C22840692   3.081   0.732   5.963 -0.0900 -0.6680 -0.0026
   73MOL   O22940693   3.128   0.818   5.851 -0.1844 -0.1504  0.1542
   73MOL   C23040694   2.943   0.695   5.898  0.4433  0.0648  0.9051
   73MOL   C23140695   2.855   0.623   5.998  0.2497 -0.1767 -0.3222
   73MOL   C23240696   2.718   0.591   5.941 -0.0110  0.1721  0.2294
   73MOL   O23340697   2.668   0.514   6.050 -0.0040 -0.7421 -0.7414
   73MOL   C23440698   2.731   0.508   5.810  0.4975  0.7107 -0.0632
   73MOL   C23540699   2.596   0.472   5.751 -0.8220 -0.5168 -0.2229
   73MOL   C23640700   2.828   0.565   5.709 -0.4157 -0.2099 -0.3149
   73MOL   C23740701   2.959   0.605   5.774 -0.0530 -0.7078  0.4561
   73MOL   H23840702   3.152   0.542   6.045  0.0438  0.5699  0.9510
   73MOL   H23940703   3.225   0.576   5.884 -0.3211  0.4519 -0.7028
   73MOL   H24040704   3.068   0.779   6.060  1.1126  1.2326 -0.7519
   73MOL   H24140705   3.208   0.855   5.885 -0.5509 -1.4351  2.5337
   73MOL   H24240706   2.888   0.786   5.871  1.7539 -0.0965 -2.6364
   73MOL   H24340707   2.893   0.524   6.024 -3.6840 -1.8426 -0.5536
   73MOL   H24440708   2.838   0.689   6.083  2.0559  1.5557 -1.2759
   73MOL   H24540709   2.670   0.688   5.929 -0.1434 -0.1018 -1.6318
   73MOL   H24640710   2.612   0.450   6.009  1.0208 -1.9478 -0.2990
   73MOL   H24740711   2.766   0.411   5.844 -1.8513  0.0035  0.4571
   73MOL   H24840712   2.522   0.553   5.748  0.7336  0.9923  1.2112
   73MOL   H24940713   2.614   0.424   5.655  0.0707 -3.2977  1.2866
   73MOL   H25040714   2.787   0.650   5.653  2.2549  0.8190 -0.8121
   73MOL   H25140715   2.832   0.492   5.628 -1.1453  1.4398 -1.8764
   73MOL   H25240716   3.033   0.634   5.700  0.0339  1.4971  1.3526
   73MOL   H25340717   3.006   0.516   5.815  1.9276  1.1150  2.2762
   73MOL   O25440718   2.544   0.370   5.842 -0.5262 -0.0635  0.4755
   73MOL   C25540719   2.403   0.344   5.832 -0.3595  0.1710 -0.3548
   73MOL   C25640720   2.350   0.256   5.954  0.6232 -0.4536  0.3689
   73MOL   O25740721   2.433   0.143   5.938 -0.0347  0.3434 -0.3855
   73MOL   C25840722   2.381   0.324   6.092  0.0301  0.2081  0.1340
   73MOL   C25940723   2.479   0.253   6.187  0.2012 -0.0858  0.3717
   73MOL   C26040724   2.491   0.316   6.326 -0.7735  0.5170 -0.4614
   73MOL   O26140725   2.576   0.238   6.414  0.8772 -0.3196 -0.0126
   73MOL   C26240726   2.348   0.335   6.394  0.3706 -0.5157  0.5304
   73MOL   C26340727   2.366   0.400   6.539  0.3012  0.6161  0.4911
   73MOL   C26440728   2.251   0.409   6.306 -0.1417 -0.0812 -0.3666
   73MOL   C26540729   2.242   0.357   6.161  0.4013 -0.0647 -0.0385
   73MOL   H26640730   2.382   0.316   5.729  1.9090  2.5151 -1.5167
   73MOL   H26740731   2.341   0.432   5.850 -0.8421 -0.1671 -0.3514
   73MOL   H26840732   2.245   0.230   5.946  1.0169 -1.6383 -1.2660
   73MOL   H26940733   2.522   0.167   5.960 -0.8711  2.6741  0.7151
   73MOL   H27040734   2.432   0.419   6.075 -0.6563  0.8702  1.6691
   73MOL   H27140735   2.456   0.147   6.184 -0.1477 -0.0097  0.2653
   73MOL   H27240736   2.576   0.280   6.146 -0.8556  2.2033 -0.7543
   73MOL   H27340737   2.535   0.415   6.315 -0.2223  0.0019 -3.1611
   73MOL   H27440738   2.551   0.147   6.411  0.0692 -0.1949  2.4364
   73MOL   H27540739   2.292   0.242   6.407  0.6670 -1.1373 -2.2854
   73MOL   H27640740   2.442   0.349   6.598  1.2770  0.5996 -0.7665
   73MOL   H27740741   2.398   0.504   6.534 -0.1684  0.7850  0.9401
   73MOL   H27840742   2.279   0.514   6.304 -1.6197  0.3755  1.5366
   73MOL   H27940743   2.152   0.404   6.350  0.5586 -1.7491  1.1182
   73MOL   H28040744   2.184   0.423   6.096  0.2421  0.5377  0.7161
   73MOL   H28140745   2.185   0.265   6.171 -0.1614  0.0626 -1.8711
   73MOL   O28240746   2.242   0.390   6.607  0.2543  0.4925 -0.1220
   73MOL   C28340747   2.250   0.456   6.737 -0.3287  0.5755  0.0754
   73MOL   C28440748   2.127   0.407   6.814  0.7821  0.5587  0.4482
   73MOL   O28540749   2.014   0.469   6.754 -0.2050  0.4910  0.1790
   73MOL   C28640750   2.118   0.254   6.826  0.3231  0.2057  0.0227
   73MOL   C28740751   2.039   0.191   6.712 -0.0351 -0.1860  0.1972
   73MOL   C28840752   2.026   0.037   6.707 -0.5606 -0.6146 -0.2568
   73MOL   O28940753   1.923   7.620   6.621 -0.4234 -0.0568  0.2067
   73MOL   C29040754   1.998   7.612   6.858 -0.0436  0.4643  0.2795
   73MOL   C29140755   2.036   7.456   6.869  0.2786  0.5501 -0.2324
   73MOL   C29240756   2.060   0.061   6.971 -0.4250 -0.3579  0.1005
   73MOL   C29340757   2.054   0.215   6.956 -0.4238 -0.2338  0.3800
   73MOL   H29440758   2.250   0.564   6.720  0.0020  0.4848 -0.5125
   73MOL   H29540759   2.345   0.427   6.781  0.3146 -1.0955 -2.3224
   73MOL   H29640760   2.153   0.441   6.914  1.8441 -0.8823  0.6737
   73MOL   H29740761   2.011   0.440   6.664 -0.6460 -1.1194  0.6959
   73MOL   H29840762   2.221   0.220   6.825 -0.1268 -1.3555  2.4761
   73MOL   H29940763   1.939   0.234   6.706 -0.0409 -0.5137 -2.2202
   73MOL   H30040764   2.062   0.222   6.611  2.2648 -1.0072  0.4426
   73MOL   H30140765   2.119   7.618   6.676 -1.7452 -3.7336  0.8017
   73MOL   H30240766   1.837   0.025   6.641 -1.2353 -0.0246 -3.0870
   73MOL   H30340767   1.891   7.618   6.875  0.3126 -0.0617  2.8481
   73MOL   H30440768   1.992   7.410   6.780  1.0309  0.2823 -0.4769
   73MOL   H30540769   2.143   7.440   6.852  0.0641  0.2502 -1.3175
   73MOL   H30640770   2.163   0.028   6.973  0.2068  1.4254 -1.7985
   73MOL   H30740771   2.020   0.032   7.069  0.8287 -2.0985  0.1210
   73MOL   H30840772   2.110   0.260   7.038 -0.7916 -0.3484  0.6967
   73MOL   H30940773   1.947   0.234   6.962 -0.5796 -1.3455  1.3480
   73MOL   O31040774   2.004   7.398   6.999 -0.5378 -0.0521 -0.0362
   73MOL   C31140775   1.872   7.421   7.049 -0.2220 -0.4912  0.0361
   73MOL   C31240776   1.814   7.309   7.136  0.3259  0.0491  1.3156
   73MOL   O31340777   1.766   7.206   7.048  0.5382  0.0071  0.6106
   73MOL   C31440778   1.915   7.256   7.246  0.1460 -0.0247  0.0213
   73MOL   C31540779   1.833   7.147   7.335 -0.6017 -0.8467 -0.1591
   73MOL   C31640780   1.923   7.086   7.446  0.4145  1.1354  0.6381
   73MOL   O31740781   1.837   7.011   7.530 -0.4165  0.3380 -0.0117
   73MOL   C31840782   1.999   7.188   7.535 -0.0181  0.4416  0.2845
   73MOL   C31940783   2.088   7.124   0.013  0.0180 -0.1945 -0.1586
   73MOL   C32040784   2.063   7.302   7.452  0.5710 -0.6476  0.5680
   73MOL   C32140785   1.975   7.365   7.343 -0.2634 -0.0176  0.0970
   73MOL   H32240786   1.798   7.434   6.971 -0.9180 -0.9600  0.6154
   73MOL   H32340787   1.880   7.516   7.103  1.9519 -0.4441 -0.3061
   73MOL   H32440788   1.729   7.347   7.192  0.9411  1.2440  1.4484
   73MOL   H32540789   1.841   7.158   7.017 -0.0731  0.2386 -1.2443
   73MOL   H32640790   1.994   7.193   7.204 -0.3935 -1.3468  0.9645
   73MOL   H32740791   1.742   7.202   7.359  0.9172  0.6645  2.3273
   73MOL   H32840792   1.802   7.061   7.275  3.0668 -1.8278 -0.7780
   73MOL   H32940793   2.002   7.030   7.395 -1.2375 -2.0817  1.5250
   73MOL   H33040794   1.771   7.068   7.567  0.9839  1.2477  1.1926
   73MOL   H33140795   1.918   7.235   7.591  0.7537 -0.3090  2.0647
   73MOL   H33240796   2.094   7.197   0.094  2.8156 -0.1076 -0.3854
   73MOL   H33340797   2.041   7.030   0.041  0.1396 -0.2521 -0.1481
   73MOL   H33440798   2.147   7.259   7.397 -0.3357 -2.6582  0.6953
   73MOL   H33540799   2.086   7.386   7.517 -0.8371  1.1688 -1.2202
   73MOL   H33640800   2.033   7.439   7.288  1.3443 -1.8686 -0.7851
   73MOL   H33740801   1.896   7.426   7.385  1.4558  0.8802  2.1755
   73MOL   O33840802   2.219   7.094   7.597 -0.0542  0.2989 -0.0053
   73MOL   C33940803   2.223   6.992   7.500  0.9551 -0.0972 -0.0476
   73MOL   C34040804   2.348   6.897   7.517  0.1391  0.1700  0.5358
   73MOL   O34140805   2.455   6.958   7.450  0.2213  0.0951 -0.3718
   73MOL   C34240806   2.369   6.846   0.032  0.4210 -0.7701  0.8568
   73MOL   C34340807   2.475   6.741   0.038  0.5974 -0.3076  0.4763
   73MOL   C34440808   2.518   6.704   0.181 -0.3016 -0.6502  0.2099
   73MOL   O34540809   2.617   6.602   0.185 -0.1789 -0.1833  0.0712
   73MOL   C34640810   2.392   6.662   0.265  0.9085 -0.2542 -0.0559
   73MOL   C34740811   2.434   6.645   0.419 -0.6856 -0.0026  0.3390
   73MOL   C34840812   2.271   6.765   0.251 -0.1695  0.3525 -0.0969
   73MOL   C34940813   2.237   6.798   0.108 -0.9860 -0.1901  0.6187
   73MOL   H35040814   2.218   7.043   7.403 -1.5515  1.4637  0.8473
   73MOL   H35140815   2.135   6.927   7.502 -2.1700  3.9672  1.2894
   73MOL   H35240816   2.320   6.806   7.464 -1.7624  1.7000 -1.1813
   73MOL   H35340817   2.474   7.033   7.504 -0.0789 -0.8477  1.0899
   73MOL   H35440818   2.411   6.928   0.091 -3.3995  0.5993  1.8261
   73MOL   H35540819   2.441   6.656   7.607 -1.0755  1.9983 -1.9020
   73MOL   H35640820   2.561   6.774   7.610 -0.5838  0.0729 -1.0942
   73MOL   H35740821   2.562   6.795   0.221 -0.3665 -1.6308  2.6218
   73MOL   H35840822   2.694   6.634   0.141  1.4362 -3.5919  0.2443
   73MOL   H35940823   2.363   6.564   0.229 -1.5228 -0.3533  1.9899
   73MOL   H36040824   2.516   6.574   0.433  0.0213  0.9411  1.1124
   73MOL   H36140825   2.470   6.745   0.444 -0.8949  0.2868 -0.4980
   73MOL   H36240826   2.293   6.858   0.303 -1.4358  0.5940  0.0340
   73MOL   H36340827   2.177   6.723   0.287 -0.0249  1.0941  1.1541
   73MOL   H36440828   2.155   6.869   0.118 -2.7075 -2.2159  1.3108
   73MOL   H36540829   2.193   6.708   0.066  0.7698 -1.9773  2.4942
   73MOL   O36640830   2.314   6.616   0.490  0.4299 -0.6122  0.2517
   73MOL   C36740831   2.336   6.575   0.625 -0.3299  0.0724 -0.0958
   73MOL   C36840832   2.217   6.598   0.706 -0.3271 -0.4337  0.8314
   73MOL   O36940833   2.214   6.489   0.802 -0.0072  0.0309 -0.3506
   73MOL   C37040834   2.212   6.740   0.770 -0.8948 -0.6119  0.0737
   73MOL   C37140835   2.123   6.741   0.894  0.0565  0.5766  0.1902
   73MOL   C37240836   2.103   6.881   0.951 -0.5746  0.0911  0.1811
   73MOL   O37340837   2.021   6.869   1.068 -0.0100  0.3641 -0.2959
   73MOL   C37440838   2.034   6.967   0.846  0.4074  0.2187 -0.5694
   73MOL   C37540839   2.013   7.119   0.892  0.7065  0.5036 -0.0990
   73MOL   C37640840   2.116   6.979   0.713 -0.0718 -0.4528  0.4458
   73MOL   C37740841   2.159   6.842   0.662 -0.8172  0.0378  0.0887
   73MOL   H37840842   2.420   6.627   0.671 -0.3208  1.2489 -1.4309
   73MOL   H37940843   2.375   6.474   0.611 -0.6319  0.3309 -3.1903
   73MOL   H38040844   2.135   6.579   0.637  0.8941 -3.0160  0.0240
   73MOL   H38140845   2.135   6.441   0.784 -0.4468  0.6232  0.0378
   73MOL   H38240846   2.308   6.778   0.805 -1.6744 -0.0634  1.6508
   73MOL   H38340847   2.034   6.683   0.872  1.3051 -1.4623  0.3374
   73MOL   H38440848   2.179   6.681   0.966  0.9236 -0.2263 -1.1289
   73MOL   H38540849   2.204   6.922   0.960  0.0606 -1.0534 -1.3963
   73MOL   H38640850   2.070   6.808   1.120  0.2921  0.9335  0.0889
   73MOL   H38740851   1.932   6.936   0.827  0.2155  0.9097 -0.6421
   73MOL   H38840852   1.953   7.121   0.983  1.0459  1.3239  0.1104
   73MOL   H38940853   2.105   7.168   0.924  0.7515  0.5771 -0.3427
   73MOL   H39040854   2.198   7.049   0.729 -1.4077  1.1124  0.6750
   73MOL   H39140855   2.063   7.032   0.634  0.5220  0.6581  0.7855
   73MOL   H39240856   2.232   6.846   0.581 -1.3355 -0.5421 -0.4137
   73MOL   H39340857   2.067   6.800   0.621 -0.8335  0.4435 -0.2886
   73MOL   O39440858   1.941   7.198   0.792  0.0390 -0.2671 -0.4060
   73MOL   C39540859   1.874   7.312   0.838 -0.0599  0.1125  0.2391
   73MOL   C39640860   1.820   7.409   0.725  0.4351  0.7382 -0.4657
   73MOL   O39740861   1.739   7.498   0.792 -0.5510 -0.3985  0.4491
   73MOL   C39840862   1.937   7.482   0.654 -1.0543  0.5958 -0.1056
   73MOL   C39940863   1.888   7.582   0.545  0.3013 -0.6346  0.5272
   73MOL   C40040864   2.001   0.033   0.478 -0.2377  0.5176 -0.4186
   73MOL   O40140865   1.942   0.109   0.374 -0.3858 -0.0370 -0.1626
   73MOL   C40240866   2.101   7.570   0.415  0.1166  0.0159  0.3063
   73MOL   C40340867   2.216   0.010   0.335 -0.2121  0.0502  0.2062
   73MOL   C40440868   2.159   7.480   0.519  0.6008  0.3988  0.3382
   73MOL   C40540869   2.055   7.393   0.593 -0.1872  0.4235  0.1462
   73MOL   H40640870   1.928   7.372   0.912 -0.3139 -0.6762  1.0724
   73MOL   H40740871   1.791   7.282   0.902  1.1098 -1.4249  1.0643
   73MOL   H40840872   1.766   7.357   0.646  1.0145 -0.5051 -0.0616
   73MOL   H40940873   1.661   7.455   0.825 -1.8490  0.8856 -0.9022
   73MOL   H41040874   1.998   7.536   0.727 -0.9453  2.5252 -1.5794
   73MOL   H41140875   1.846   7.525   0.462 -1.8186  1.8690 -0.2183
   73MOL   H41240876   1.818   0.016   0.600  1.0967  0.8652 -0.1463
   73MOL   H41340877   2.052   0.102   0.546  0.4931 -1.2416  0.8591
   73MOL   H41440878   1.880   0.157   0.426  1.1298  1.5085  0.2465
   73MOL   H41540879   2.045   7.497   0.356  1.8999 -0.2106 -1.1630
   73MOL   H41640880   2.188   0.066   0.247 -0.0364 -0.4933 -0.1966
   73MOL   H41740881   2.268   0.078   0.403  1.6974 -0.7528 -0.4016
   73MOL   H41840882   2.213   7.532   0.598  2.4285 -1.2830  0.2464
   73MOL   H41940883   2.246   7.427   0.480 -0.6332 -0.1286 -1.7494
   73MOL   H42040884   2.098   7.329   0.670 -0.8181  1.0116  0.9944
   73MOL   H42140885   2.002   7.324   0.527  0.0796 -1.0815  1.4698
   73MOL   O42240886   2.316   7.550   0.280 -0.0114 -0.5821  0.2618
   73MOL   C42340887   2.273   7.466   0.174 -0.2158 -0.0544 -0.8849
   73MOL   C42440888   2.384   7.375   0.141 -0.0749  0.0072  0.5418
   73MOL   O42540889   2.491   7.457   0.094 -0.4955 -0.1368  0.4220
   73MOL   C42640890   2.441   7.290   0.259  0.0242  0.0168 -0.7145
   73MOL   C42740891   2.546   7.187   0.213  0.2793  0.2662 -0.0967
   73MOL   C42840892   2.610   7.121   0.335  0.2675  0.3985 -0.6016
   73MOL   O42940893   2.712   7.032   0.291  0.6005 -0.1457  0.4922
   73MOL   C43040894   2.503   7.046   0.423  0.0507 -0.1972 -0.3769
   73MOL   C43140895   2.550   6.985   0.557  0.0584  0.5846 -0.1479
   73MOL   C43240896   2.386   7.146   0.451  0.8229 -0.7482  0.0373
   73MOL   C43340897   2.325   7.203   0.315 -0.4657  0.1369 -1.1090
   73MOL   H43440898   2.255   7.521   0.082  0.1617 -1.0178 -1.5351
   73MOL   H43540899   2.184   7.414   0.209  0.0491  0.9640  1.3990
   73MOL   H43640900   2.357   7.305   0.062  0.2847  0.6098 -0.1203
   73MOL   H43740901   2.490   7.451   7.629 -1.4030 -0.6618  0.4619
   73MOL   H43840902   2.481   7.359   0.334  1.3411 -0.2167 -1.1910
   73MOL   H43940903   2.499   7.116   0.145 -1.0681 -0.8015  1.9043
   73MOL   H44040904   2.628   7.226   0.154  0.4787 -1.4674 -1.0118
   73MOL   H44140905   2.657   7.187   0.408 -0.0731  3.4026 -2.9955
   73MOL   H44240906   2.707   6.958   0.349  0.1673 -1.6455 -1.4145
   73MOL   H44340907   2.455   6.965   0.368 -1.5164 -0.2770  1.0704
   73MOL   H44440908   2.588   7.059   0.628 -0.1946 -0.0632  0.6665
   73MOL   H44540909   2.470   6.928   0.605  0.3105  0.7093  0.4311
   73MOL   H44640910   2.429   7.219   0.519  0.7281 -1.7901  1.2569
   73MOL   H44740911   2.308   7.089   0.502  2.1326 -2.3020  0.3841
   73MOL   H44840912   2.231   7.253   0.338 -1.5252 -1.1857 -2.4833
   73MOL   H44940913   2.294   7.122   0.249 -0.2002 -1.4905  0.7366
   73MOL   O45040914   2.645   6.885   0.525 -0.1981 -0.4533  0.5079
   73MOL   C45140915   2.707   6.833   0.644 -0.4421  0.1623 -0.1924
   73MOL   C45240916   2.802   6.920   0.721 -0.2018 -0.3363 -0.6154
   73MOL   O45340917   2.867   6.832   0.812 -0.4980 -0.6318 -0.1850
   73MOL   C45440918   2.909   6.995   0.635  0.0137  0.0978  0.0600
   73MOL   C45540919   2.962   6.912   0.518 -0.5269  0.4387 -0.6479
   73MOL   C45640920   3.060   6.985   0.428  0.2396 -0.2653 -0.4887
   73MOL   O45740921   3.099   6.899   0.326 -0.1567  0.0132  0.3522
   73MOL   C45840922   3.180   7.050   0.514  0.0742 -0.8141  0.6136
   73MOL   C45940923   3.276   7.135   0.426  0.1628 -0.2792  0.6578
   73MOL   C46040924   3.139   7.122   0.638 -0.0034  0.4236 -0.7181
   73MOL   C46140925   3.028   7.047   0.714  0.1624  0.1035  0.0731
   73MOL   H46240926   2.765   6.747   0.611  0.6265  0.9330 -0.3322
   73MOL   H46340927   2.631   6.786   0.707  0.4343 -1.6186 -0.4250
   73MOL   H46440928   2.742   6.985   0.784 -0.2785 -0.7021 -0.3119
   73MOL   H46540929   2.895   6.866   0.896  1.5553 -3.6448  0.4241
   73MOL   H46640930   2.862   7.083   0.591  1.4283  0.9553  0.2234
   73MOL   H46740931   3.008   6.831   0.575 -0.6070  0.4002 -0.6394
   73MOL   H46840932   2.875   6.873   0.465  2.0364 -0.8809 -4.0658
   73MOL   H46940933   2.999   7.061   0.379  1.4256  1.7783  1.1231
   73MOL   H47040934   3.140   6.820   0.358 -0.3450 -0.3351 -0.2577
   73MOL   H47140935   3.238   6.964   0.545  0.1838 -1.3774 -1.0933
   73MOL   H47240936   3.306   7.087   0.333 -0.0961  1.1613 -0.1804
   73MOL   H47340937   3.241   7.232   0.391  0.4362 -0.3348  0.2304
   73MOL   H47440938   3.118   7.226   0.612 -0.5503  1.0502  2.0812
   73MOL   H47540939   3.227   7.118   0.702 -1.2744  1.4489  1.1300
   73MOL   H47640940   2.988   7.113   0.791  1.5398  0.0510  0.8520
   73MOL   H47740941   3.081   6.967   0.766  0.2349  1.7731  2.6471
   73MOL   O47840942   3.395   7.164   0.497  0.2224  0.3493 -0.3212
   73MOL   C47940943   3.514   7.191   0.419 -0.1284  0.5317 -0.3721
   73MOL   C48040944   3.611   7.076   0.458 -0.3678  0.0760  0.3219
   73MOL   O48140945   3.552   6.956   0.419 -0.0235  0.3574  0.1776
   73MOL   C48240946   3.743   7.089   0.394 -0.7566 -0.3935 -0.4726
   73MOL   C48340947   3.744   7.085   0.240 -0.0642  0.6572  0.5173
   73MOL   C48440948   3.890   7.105   0.184  0.3261 -0.2759 -0.6244
   73MOL   O48540949   3.887   7.098   0.044 -0.2490  0.4298  0.0923
   73MOL   C48640950   3.993   7.008   0.244  0.1483 -0.1078  1.2699
   73MOL   C48740951   4.134   7.043   0.188  0.0726 -0.0212 -0.4239
   73MOL   C48840952   3.986   6.997   0.395  0.0875 -0.0265  0.1867
   73MOL   C48940953   3.837   6.980   0.445 -0.5570  0.2010  0.2588
   73MOL   H49040954   3.564   7.286   0.435  2.8675 -0.8838 -0.9088
   73MOL   H49140955   3.497   7.185   0.311  1.3794  0.1302 -0.5969
   73MOL   H49240956   3.628   7.080   0.565  0.9402  1.8510  0.0653
   73MOL   H49340957   3.493   6.981   0.350 -1.6237  0.6728  1.6145
   73MOL   H49440958   3.785   7.184   0.426 -1.0564 -1.0188  1.8621
   73MOL   H49540959   3.712   6.999   0.182 -1.5431  3.1271 -2.4810
   73MOL   H49640960   3.679   7.168   0.211 -1.3784 -0.6472 -0.3022
   73MOL   H49740961   3.924   7.203   0.217  1.7008 -1.0179  0.1970
   73MOL   H49840962   3.854   7.183   0.017 -1.9722 -0.3590 -0.3169
   73MOL   H49940963   3.964   6.914   0.199  0.7327  0.0897  0.4810
   73MOL   H50040964   4.141   7.052   0.080 -0.9547  0.0452 -0.4890
   73MOL   H50140965   4.167   7.140   0.226  1.2821  0.2501 -2.1028
   73MOL   H50240966   4.026   7.084   0.446 -1.3536  0.7067  0.1090
   73MOL   H50340967   4.044   6.912   0.431 -0.9849  0.0554  2.1921
   73MOL   H50440968   3.835   6.983   0.554  1.2462  1.8804  0.2752
   73MOL   H50540969   3.803   6.880   0.418  1.0320 -0.0309 -0.9434
   73MOL   O50640970   4.227   6.943   0.231  0.1916  0.0431  0.6987
   73MOL   C50740971   4.356   6.983   0.265  0.0440  0.3403 -0.3385
   73MOL   C50840972   4.441   6.856   0.302  0.2036 -0.2955  0.2003
   73MOL   O50940973   4.552   6.861   0.211 -0.1116  0.3708  0.8895
   73MOL   C51040974   4.496   6.857   0.446 -0.0906  0.2827 -0.1028
   73MOL   C51140975   4.571   6.725   0.469 -0.0385  0.5292 -0.0311
   73MOL   C51240976   4.616   6.707   0.616  0.1661  1.1841 -0.6808
   73MOL   O51340977   4.659   6.575   0.640 -0.1002  0.0776  0.9529
   73MOL   C51440978   4.496   6.725   0.715 -0.2428  0.1897 -0.1372
   73MOL   C51540979   4.538   6.712   0.864 -0.0186  0.0972  0.6836
   73MOL   C51640980   4.428   6.859   0.682  0.7469 -0.2147 -0.4856
   73MOL   C51740981   4.377   6.856   0.545 -0.1708 -0.8508  0.1166
   73MOL   H51840982   4.355   7.052   0.349 -1.5117  0.4718 -0.4374
   73MOL   H51940983   4.394   7.034   0.176  0.3258 -0.7759 -0.8740
   73MOL   H52040984   4.390   6.764   0.273  0.6731 -0.5294  0.1222
   73MOL   H52140985   4.608   6.786   0.228 -0.6867 -0.2612  0.0457
   73MOL   H52240986   4.554   6.947   0.468 -0.7154  0.6629  0.0149
   73MOL   H52340987   4.507   6.641   0.442 -1.0407  1.4893 -0.6746
   73MOL   H52440988   4.668   6.723   0.419 -0.2159 -1.0625 -0.3361
   73MOL   H52540989   4.703   6.768   0.641  0.0408  1.7832 -1.7007
   73MOL   H52640990   4.726   6.550   0.579 -0.1453  1.4418  0.3286
   73MOL   H52740991   4.427   6.642   0.702 -0.3275  0.1958  0.2689
   73MOL   H52840992   4.450   6.702   0.927  0.4278  0.9088  1.4512
   73MOL   H52940993   4.599   6.626   0.891 -0.4214 -1.3034 -2.6181
   73MOL   H53040994   4.494   6.945   0.695 -0.0770  0.7782 -2.5698
   73MOL   H53140995   4.346   6.872   0.752  1.6702  0.0154  0.5747
   73MOL   H53240996   4.315   6.945   0.540 -0.5790 -1.1393  0.0101
   73MOL   H53340997   4.311   6.773   0.521 -2.0078  0.3768  0.8613
   73MOL   O53440998   4.614   6.827   0.890 -0.1278  0.1665  0.0878
   73MOL   C53540999   4.604   6.860   1.027 -0.0932  0.2413 -0.0052
   73MOL   C53641000   4.696   6.991   1.044 -0.0216  0.0762  0.6678
   73MOL   O53741001   4.639   7.078   0.951 -0.3078 -0.0782 -0.2384
   73MOL   C53841002   4.697   7.051   1.187  0.5078  0.0588 -0.8380
   73MOL   C53941003   4.559   7.098   1.241  0.1866  0.1437 -0.4806
   73MOL   C54041004   4.569   7.132   1.391 -0.2769 -0.3773  0.7088
   73MOL   O54141005   4.449   7.200   1.432 -0.5717  0.1028  0.2010
   73MOL   C54241006   4.684   7.229   1.417  0.3253  0.3721 -0.1519
   73MOL   C54341007   4.683   7.272   1.566 -0.2267  0.8024  0.4992
   73MOL   C54441008   4.825   7.186   1.366  0.1445  0.0659 -0.1450
   73MOL   C54541009   4.815   7.156   1.218  1.0823 -0.1529  0.2207
   73MOL   H54641010   4.640   6.782   1.095  0.3339 -0.0057 -0.5063
   73MOL   H54741011   4.499   6.878   1.046 -0.0604 -1.5076  2.1290
   73MOL   H54841012   4.798   6.966   1.015  0.4065  0.1545  2.0736
   73MOL   H54941013   4.610   7.015   0.887  0.2257 -0.6542  0.0755
   73MOL   H55041014   4.734   6.968   1.246  1.0480 -0.6542 -2.1408
   73MOL   H55141015   4.527   7.187   1.187 -0.1270  0.0975 -0.3707
   73MOL   H55241016   4.482   7.022   1.233  0.0951 -0.0054  1.4706
   73MOL   H55341017   4.570   7.035   1.440 -0.4766 -1.6195 -1.6649
   73MOL   H55441018   4.457   7.291   1.408  1.5567  0.8032  3.2654
   73MOL   H55541019   4.662   7.318   1.359  1.2890  1.3989  1.0253
   73MOL   H55641020   4.722   7.370   1.593 -0.8723  1.3171 -0.4241
   73MOL   H55741021   4.590   7.258   1.622  0.7768 -1.6864  1.6117
   73MOL   H55841022   4.846   7.090   1.414  1.7319 -0.0771 -1.0858
   73MOL   H55941023   4.908   7.257   1.378  0.6181 -0.2085 -1.6642
   73MOL   H56041024   4.910   7.113   1.186 -0.6833 -2.5409 -2.0319
   73MOL   H56141025   4.794   7.251   1.169  1.8696 -1.0920 -1.9835
   73MOL   H56241026   4.734   7.194   1.622 -0.8635  1.2673  1.7470
   74MOL     O141027   6.476   7.347   4.648 -0.2481  0.1806  0.1402
   74MOL     C241028   6.595   7.382   4.586  0.1467  0.0259 -0.0744
   74MOL     C341029   6.703   7.277   4.590 -0.3530 -0.7906 -0.2545
   74MOL     O441030   6.633   7.153   4.594 -0.3407 -0.4342  0.3971
   74MOL     C541031   6.809   7.294   4.482  0.5137 -0.0039  0.2912
   74MOL     C641032   6.896   7.167   4.473  0.1162  0.2251  0.3975
   74MOL     C741033   7.018   7.179   4.368 -0.4133 -0.0304  1.2642
   74MOL     O841034   7.102   7.064   4.384 -0.7882 -0.1424 -0.6478
   74MOL     C941035   7.099   7.308   4.389  0.7021 -0.2935  0.3728
   74MOL    C1041036   7.205   7.322   4.276  0.4358  0.4190  0.3406
   74MOL    C1141037   7.009   7.428   4.399  0.0492  0.0265 -0.1562
   74MOL    C1241038   6.902   7.409   4.507 -0.2971 -0.1947  0.1431
   74MOL    H1341039   6.639   7.476   4.622  0.8500  0.3364 -1.7139
   74MOL    H1441040   6.562   7.405   4.485  1.0608  0.0551 -0.3785
   74MOL    H1541041   6.750   7.279   4.689  0.5874 -2.5231 -0.6484
   74MOL    H1641042   6.546   7.170   4.626  0.0531  0.7951  0.8106
   74MOL    H1741043   6.761   7.313   4.386 -1.1703  1.4553  1.3865
   74MOL    H1841044   6.941   7.156   4.572  1.9375  2.6600 -0.1296
   74MOL    H1941045   6.837   7.075   4.471 -1.9554  1.5393 -0.6602
   74MOL    H2041046   6.981   7.173   4.266  0.7410  0.4069  0.8116
   74MOL    H2141047   7.099   7.032   4.472 -0.0843  0.6727 -0.3155
   74MOL    H2241048   7.154   7.308   4.483  0.6655  0.3673  0.3940
   74MOL    H2341049   7.269   7.234   4.278 -1.6967 -1.1987 -0.1811
   74MOL    H2441050   7.156   7.316   4.178  1.4526 -1.8147 -0.0721
   74MOL    H2541051   6.953   7.455   4.309  0.5372 -0.3250 -0.5719
   74MOL    H2641052   7.072   7.515   4.419  1.1219 -0.9410  0.7551
   74MOL    H2741053   6.837   7.496   4.504 -2.8104 -2.0228 -0.7028
   74MOL    H2841054   6.964   7.409   4.597 -1.4813  0.4385  0.9688
   74MOL    H2941055   6.427   7.428   4.638 -1.0880 -0.4660 -1.1356
   74MOL    O3041056   7.291   7.441   4.296 -0.3049  0.3624 -0.8646
   74MOL    C3141057   7.383   7.464   4.190 -0.1759 -0.1879 -0.9140
   74MOL    C3241058   7.472   7.583   4.228  0.1932  0.7447  0.2636
   74MOL    O3341059   7.603   7.556   4.176 -0.3904 -0.1255  0.2458
   74MOL    C3441060   7.427   0.100   4.179 -0.4741 -0.2806  0.7263
   74MOL    C3541061   7.474   0.130   4.031  0.1637  0.4313 -0.3800
   74MOL    C3641062   7.424   0.263   3.978  0.0244  0.0394 -0.2427
   74MOL    O3741063   7.472   0.290   3.849  0.9991  0.4274 -0.2629
   74MOL    C3841064   7.473   0.380   4.072  0.9198  0.0506 -0.6201
   74MOL    C3941065   7.442   0.526   4.033 -0.0588  0.4674 -0.1708
   74MOL    C4041066   7.436   0.355   4.219 -0.1983  0.4145 -0.1519
   74MOL    C4141067   7.481   0.217   4.271  0.0970 -0.2282 -0.3494
   74MOL    H4241068   7.313   7.486   4.109  0.6327 -3.3212 -2.5432
   74MOL    H4341069   7.431   7.367   4.177 -1.3917 -0.7576 -1.1798
   74MOL    H4441070   7.481   7.583   4.337  0.2210  1.2735  0.2659
   74MOL    H4541071   0.042   7.594   4.228  0.0094 -0.6180  0.0873
   74MOL    H4641072   7.320   0.114   4.188 -0.5062 -0.2935  0.3636
   74MOL    H4741073   7.583   0.140   4.039  0.3798 -1.2317 -1.0776
   74MOL    H4841074   7.458   0.044   3.966  0.9215  0.8324 -1.1164
   74MOL    H4941075   7.316   0.258   3.970  0.0757  0.9330 -1.7034
   74MOL    H5041076   7.494   0.381   3.844 -0.2035  0.5984 -2.9064
   74MOL    H5141077   7.578   0.355   4.060  0.4559 -0.8238 -3.4609
   74MOL    H5241078   7.346   0.546   3.985 -0.9059  1.1145  1.7386
   74MOL    H5341079   7.443   0.589   4.122 -0.2232 -1.0997  0.9762
   74MOL    H5441080   7.327   0.363   4.228 -0.2643  0.2608 -0.7750
   74MOL    H5541081   7.475   0.436   4.281 -1.3854  1.6837 -1.0196
   74MOL    H5641082   7.459   0.201   4.377  1.1984  0.1126 -0.0664
   74MOL    H5741083   7.589   0.203   4.274  0.2858  1.3513  1.0710
   74MOL    O5841084   7.551   0.572   3.956  0.3402 -0.4385  0.6448
   74MOL    C5941085   7.529   0.704   3.906  0.0977 -0.6763  0.3890
   74MOL    C6041086   7.472   0.706   3.759  0.2007  0.5578  0.3908
   74MOL    O6141087   7.356   0.790   3.758 -0.2126  0.1992 -0.3451
   74MOL    C6241088   7.569   0.732   3.645  0.1894  0.7419 -0.1230
   74MOL    C6341089   7.507   0.729   3.512  0.3002 -0.2398 -0.4717
   74MOL    C6441090   7.599   0.744   3.393 -0.1607 -0.6361 -0.3458
   74MOL    O6541091   7.531   0.734   3.269  0.5951  0.1031  0.5613
   74MOL    C6641092   0.093   0.648   3.395  0.8617 -0.3988 -0.3059
   74MOL    C6741093   0.191   0.693   3.282  0.6387 -0.2275 -0.3201
   74MOL    C6841094   0.156   0.654   3.534  0.4890 -0.3214  0.1650
   74MOL    C6941095   0.049   0.630   3.641 -0.8382 -0.6668 -0.4031
   74MOL    H7041096   7.628   0.748   3.912 -0.2768  0.5400 -1.8059
   74MOL    H7141097   7.465   0.761   3.975  1.0034 -0.7060  1.2670
   74MOL    H7241098   7.430   0.609   3.736  0.6643  0.4873 -0.1880
   74MOL    H7341099   7.314   0.776   3.841  2.0832 -0.6525  0.7194
   74MOL    H7441100   7.610   0.832   3.658  1.3099  0.6156 -2.3991
   74MOL    H7541101   7.451   0.636   3.511 -2.4103  1.2712  1.3219
   74MOL    H7641102   7.439   0.812   3.493 -0.0536  0.1221  2.1402
   74MOL    H7741103   0.008   0.846   3.393 -1.7867 -0.0032  0.7284
   74MOL    H7841104   7.441   0.756   3.287  0.2449 -2.3469  1.9500
   74MOL    H7941105   0.050   0.551   3.372 -0.0798  0.5512 -2.6426
   74MOL    H8041106   0.138   0.720   3.191 -0.8035  1.7197  1.0663
   74MOL    H8141107   0.250   0.773   3.327 -0.1193  0.1677 -0.0312
   74MOL    H8241108   0.186   0.756   3.557  1.3793 -0.5109 -0.1254
   74MOL    H8341109   0.249   0.597   3.529 -0.6250 -2.4859  2.5898
   74MOL    H8441110   0.108   0.627   3.732 -3.3060 -0.8379  1.2260
   74MOL    H8541111   0.012   0.528   3.627 -0.4269 -0.7770 -0.7158
   74MOL    O8641112   0.273   0.580   3.251 -0.1766  0.1814  0.0823
   74MOL    C8741113   0.369   0.619   3.158 -1.1978  0.3261 -0.1717
   74MOL    C8841114   0.504   0.628   3.232 -0.3032  0.5443 -0.1142
   74MOL    O8941115   0.561   0.507   3.210 -0.1059  0.5691  1.3529
   74MOL    C9041116   0.588   0.742   3.170  0.2028  0.0662  0.0300
   74MOL    C9141117   0.746   0.734   3.193  1.1457  0.1778  0.1965
   74MOL    C9241118   0.806   0.839   3.099  0.3562  0.3951 -0.0508
   74MOL    O9341119   0.945   0.832   3.093 -0.2265 -0.3903 -0.5053
   74MOL    C9441120   0.762   0.981   3.138  0.5378  0.6120 -0.2083
   74MOL    C9541121   0.819   1.095   3.051  0.7970 -0.6716 -0.2614
   74MOL    C9641122   0.612   0.987   3.123  0.1425 -0.2821  0.0722
   74MOL    C9741123   0.532   0.881   3.207  0.2142 -0.7232  0.1474
   74MOL    H9841124   0.345   0.702   3.092 -1.8795 -1.0665 -1.6960
   74MOL    H9941125   0.377   0.545   3.079 -0.0531 -0.0845  0.3191
   74MOL   H10041126   0.493   0.641   3.339  3.2094 -0.4325  0.4397
   74MOL   H10141127   0.498   0.437   3.215  3.4344 -3.1294 -1.7103
   74MOL   H10241128   0.569   0.725   3.064  1.0948  0.5344 -0.2052
   74MOL   H10341129   0.764   0.756   3.298  1.0274  1.8669 -0.1289
   74MOL   H10441130   0.776   0.634   3.160 -0.6134  0.0326 -1.0534
   74MOL   H10541131   0.766   0.828   2.998 -2.7387  2.6905  0.8217
   74MOL   H10641132   0.980   0.833   3.181  1.2988 -2.3910 -1.0527
   74MOL   H10741133   0.799   1.008   3.237  3.1991  2.1106 -1.5742
   74MOL   H10841134   0.928   1.084   3.055  0.8127 -0.3698  0.1927
   74MOL   H10941135   0.784   1.067   2.951 -0.1355  1.2866 -0.4974
   74MOL   H11041136   0.583   0.970   3.019  0.1410  1.4053 -0.2142
   74MOL   H11141137   0.575   1.084   3.156  1.2042 -0.0081  0.4885
   74MOL   H11241138   0.424   0.881   3.192  0.3630  0.0854 -0.9258
   74MOL   H11341139   0.542   0.895   3.315  0.5775 -2.6277  0.3884
   74MOL   O11441140   0.785   1.223   3.088 -0.5867  0.2403  0.1713
   74MOL   C11541141   0.757   1.314   2.980  0.3693 -0.5250  0.3686
   74MOL   C11641142   0.725   1.446   3.049  0.7185 -0.4052  0.0433
   74MOL   O11741143   0.596   1.443   3.119  0.2614  0.5434 -0.0584
   74MOL   C11841144   0.829   1.496   3.154 -0.9803 -0.1803  0.3887
   74MOL   C11941145   0.798   1.637   3.198  0.2655  0.2191  0.3221
   74MOL   C12041146   0.914   1.707   3.279  0.3760 -0.3920 -0.3709
   74MOL   O12141147   0.876   1.837   3.314 -0.2848 -0.1663  0.6924
   74MOL   C12241148   1.047   1.703   3.196  0.5262  0.1744  0.1105
   74MOL   C12341149   1.168   1.774   3.251 -0.4751  0.4530 -0.3936
   74MOL   C12441150   1.079   1.559   3.186 -0.0256 -0.0102  0.0975
   74MOL   C12541151   0.974   1.492   3.094 -0.4348 -0.4775  0.2507
   74MOL   H12641152   0.671   1.272   2.929  0.8259 -0.5570 -0.3871
   74MOL   H12741153   0.843   1.321   2.912  0.8215 -0.9514  0.8876
   74MOL   H12841154   0.722   1.523   2.972 -2.7752 -0.8924 -0.3683
   74MOL   H12941155   0.611   1.394   3.198  0.8758 -0.7223 -0.9347
   74MOL   H13041156   0.824   1.429   3.241 -0.6832  1.9393  2.0921
   74MOL   H13141157   0.784   1.693   3.105  1.4634 -0.0836 -0.0522
   74MOL   H13241158   0.704   1.651   3.251  0.0140 -0.8327  0.1559
   74MOL   H13341159   0.930   1.637   3.361  1.1536 -1.3315 -1.2934
   74MOL   H13441160   0.783   1.843   3.330 -0.2416 -0.2615  0.9733
   74MOL   H13541161   1.019   1.748   3.101  0.6772 -1.3613 -0.6899
   74MOL   H13641162   1.140   1.878   3.265 -1.0968 -0.0419  2.2305
   74MOL   H13741163   1.184   1.721   3.344  0.2162  1.0612 -0.1588
   74MOL   H13841164   1.078   1.515   3.286  2.3953  0.7412  0.4972
   74MOL   H13941165   1.177   1.528   3.148 -0.7334 -1.9767 -0.1672
   74MOL   H14041166   1.006   1.389   3.081 -2.6756 -1.4110  1.7994
   74MOL   H14141167   0.982   1.538   2.996  0.0635  0.8590  0.9066
   74MOL   O14241168   1.288   1.763   3.177  0.5888 -0.2971  0.1757
   74MOL   C14341169   1.384   1.849   3.230 -0.2685  0.4264  0.2342
   74MOL   C14441170   1.517   1.840   3.150  0.7719  0.1992  0.0837
   74MOL   O14541171   1.590   1.726   3.186  0.0141  0.6843 -0.2649
   74MOL   C14641172   1.514   1.851   2.993  0.0525  0.3379  0.1848
   74MOL   C14741173   1.500   1.717   2.921 -0.7575 -0.0231  0.1656
   74MOL   C14841174   1.469   1.745   2.775 -0.1350  0.0905 -0.4511
   74MOL   O14941175   1.428   1.626   2.708  0.4290  0.3472  0.5110
   74MOL   C15041176   1.594   1.818   2.713 -0.3239  1.0702  0.4229
   74MOL   C15141177   1.567   1.836   2.562 -0.1992 -0.5559  0.3346
   74MOL   C15241178   1.616   1.951   2.785  0.0584 -0.1172 -0.4971
   74MOL   C15341179   1.633   1.922   2.938 -0.1110  0.7358  0.7228
   74MOL   H15441180   1.409   1.836   3.335 -1.5900  0.2583  0.5462
   74MOL   H15541181   1.346   1.951   3.219 -1.0853  0.3333  2.0538
   74MOL   H15641182   1.570   1.930   3.183 -1.0165  0.7616  1.5271
   74MOL   H15741183   1.527   1.657   3.171 -1.8600  1.6002  2.7820
   74MOL   H15841184   1.421   1.905   2.974 -0.6743 -0.8302  0.4114
   74MOL   H15941185   1.593   1.662   2.931 -0.5199 -0.0380 -1.8438
   74MOL   H16041186   1.422   1.654   2.964  0.0493 -1.0999  0.0528
   74MOL   H16141187   1.383   1.811   2.761 -1.2754 -1.1464  0.5398
   74MOL   H16241188   1.500   1.596   2.655 -0.8814 -0.5588 -0.7863
   74MOL   H16341189   1.686   1.760   2.721 -0.1896  1.1040 -0.7133
   74MOL   H16441190   1.531   1.749   2.507  0.3403 -0.7742  0.3333
   74MOL   H16541191   1.503   1.921   2.537 -2.1888 -2.1293 -0.0593
   74MOL   H16641192   1.517   1.998   2.786  0.2395  0.2834 -1.1391
   74MOL   H16741193   1.690   2.018   2.741  0.1992 -1.3335 -2.1232
   74MOL   H16841194   1.659   2.014   2.991  2.4255  0.3073  0.2727
   74MOL   H16941195   1.728   1.868   2.941 -0.6332 -0.3511 -1.5309
   74MOL   O17041196   1.685   1.865   2.496 -0.0990 -0.1565  0.3699
   74MOL   C17141197   1.672   1.899   2.360 -0.1506  0.2159 -0.8197
   74MOL   C17241198   1.820   1.907   2.308 -0.1133 -0.5138 -0.4779
   74MOL   O17341199   1.888   1.994   2.396 -0.0270  0.2922  0.0902
   74MOL   C17441200   1.905   1.784   2.278 -0.0767 -0.0466 -0.2083
   74MOL   C17541201   1.852   1.676   2.183 -0.3702  0.1573  0.0490
   74MOL   C17641202   1.963   1.574   2.153 -0.1193  0.5790 -0.0815
   74MOL   O17741203   1.910   1.483   2.058  0.1239  0.0879  0.1887
   74MOL   C17841204   2.012   1.506   2.276  0.4864 -0.4227  0.4907
   74MOL   C17941205   2.134   1.413   2.254  1.5642 -0.0389  0.2620
   74MOL   C18041206   2.049   1.609   2.379 -0.0149  0.0586 -1.2078
   74MOL   C18141207   1.945   1.723   2.411 -0.1067  0.0908  0.1121
   74MOL   H18241208   1.610   1.986   2.339 -2.4699 -1.4589 -1.0492
   74MOL   H18341209   1.616   1.818   2.314 -0.2491 -1.6183  2.3985
   74MOL   H18441210   1.811   1.962   2.214  0.0713  0.3572  0.0173
   74MOL   H18541211   1.882   1.963   2.485 -0.5140  2.9648  1.0411
   74MOL   H18641212   1.993   1.825   2.228  0.2897 -2.6380 -1.8274
   74MOL   H18741213   1.776   1.614   2.231 -0.2656 -0.8885 -1.1100
   74MOL   H18841214   1.804   1.723   2.097 -5.2945 -0.4966  2.2457
   74MOL   H18941215   2.045   1.625   2.103  0.6995 -1.7793 -1.1858
   74MOL   H19041216   1.816   1.470   2.064  0.1163 -0.1431 -0.3561
   74MOL   H19141217   1.929   1.447   2.315  0.4293  0.1060  1.1719
   74MOL   H19241218   2.109   1.340   2.178  0.6790  2.5337 -2.0001
   74MOL   H19341219   2.224   1.459   2.212  1.0533 -0.8362 -1.7194
   74MOL   H19441220   2.143   1.662   2.361  0.7393 -0.8783 -0.1246
   74MOL   H19541221   2.068   1.548   2.468  0.2263 -1.2521 -2.1376
   74MOL   H19641222   1.988   1.784   2.491  0.7897 -1.4281  0.8165
   74MOL   H19741223   1.865   1.672   2.465 -0.2516 -1.2124 -1.3088
   74MOL   O19841224   2.160   1.341   2.370 -0.0349  0.3128 -0.0924
   74MOL   C19941225   2.292   1.295   2.385  0.2720  0.6219  0.1450
   74MOL   C20041226   2.381   1.410   2.434 -0.0074  0.3493  0.3270
   74MOL   O20141227   2.317   1.464   2.540 -0.7766 -0.2980  0.1626
   74MOL   C20241228   2.523   1.362   2.479  0.6028  0.6615 -0.3019
   74MOL   C20341229   2.586   1.474   2.561 -0.1007 -0.7401  0.2021
   74MOL   C20441230   2.734   1.442   2.597  0.8191 -0.5672 -0.2826
   74MOL   O20541231   2.781   1.561   2.663  0.3213  0.6578  0.1919
   74MOL   C20641232   2.817   1.422   2.465 -0.1297  0.0761 -0.5309
   74MOL   C20741233   2.970   1.417   2.494  0.1703 -0.3622 -0.7213
   74MOL   C20841234   2.759   1.300   2.384 -0.4431  0.5774  0.1178
   74MOL   C20941235   2.605   1.310   2.354 -0.2695 -0.2510 -0.2886
   74MOL   H21041236   2.320   1.247   2.291 -0.7803 -1.4006  0.8292
   74MOL   H21141237   2.297   1.208   2.449 -0.3284 -0.2761 -1.0031
   74MOL   H21241238   2.392   1.481   2.352  0.0700 -1.5547 -1.3459
   74MOL   H21341239   2.230   1.428   2.545 -0.4952 -0.8494  1.3039
   74MOL   H21441240   2.510   1.280   2.549  0.3200  3.1204  2.6300
   74MOL   H21541241   2.585   1.565   2.500 -1.8919  0.2204  1.6155
   74MOL   H21641242   2.537   1.500   2.655 -1.0271  2.3651 -1.0598
   74MOL   H21741243   2.742   1.359   2.667 -2.1804 -0.4662  0.2240
   74MOL   H21841244   2.873   1.567   2.646 -0.0220  1.6561 -1.3553
   74MOL   H21941245   2.797   1.506   2.399  0.1646 -0.2596 -1.0435
   74MOL   H22041246   2.990   1.348   2.575  0.8817  1.5040  0.7115
   74MOL   H22141247   3.014   1.384   2.399 -0.2928  0.8676 -1.3743
   74MOL   H22241248   2.765   1.203   2.433  0.5311 -0.1434 -1.3864
   74MOL   H22341249   2.810   1.296   2.288  1.7286  0.6380  1.2392
   74MOL   H22441250   2.573   1.212   2.318  0.0758 -0.1937 -0.7521
   74MOL   H22541251   2.586   1.378   2.271  0.4358 -1.9082 -1.8177
   74MOL   O22641252   3.033   1.542   2.532  0.6260  0.1556 -0.5980
   74MOL   C22741253   3.171   1.532   2.540  0.4559  0.3233  0.3045
   74MOL   C22841254   3.221   1.623   2.656  0.4039 -0.2130 -0.0736
   74MOL   O22941255   3.175   1.563   2.777 -0.2741  0.6583 -0.5727
   74MOL   C23041256   3.374   1.659   2.650  0.5260 -0.3646  0.8357
   74MOL   C23141257   3.453   1.537   2.695  0.7763  0.3330  0.0028
   74MOL   C23241258   3.604   1.565   2.699  0.0268 -0.2902 -0.2968
   74MOL   O23341259   3.664   1.444   2.739 -0.3374 -0.0180 -0.0573
   74MOL   C23441260   3.640   1.681   2.789 -0.2303 -0.2160 -0.2340
   74MOL   C23541261   3.790   1.712   2.803 -0.1703 -0.0251  0.1966
   74MOL   C23641262   3.551   1.812   2.752 -0.3500  0.3669  0.3584
   74MOL   C23741263   3.402   1.785   2.740 -0.0550 -0.5981 -0.6005
   74MOL   H23841264   3.209   1.551   2.440 -0.9470  3.8215  0.3697
   74MOL   H23941265   3.200   1.428   2.558  0.1059  0.3236  0.8752
   74MOL   H24041266   3.175   1.720   2.634  0.8744  0.4815  1.8882
   74MOL   H24141267   3.215   1.478   2.784 -1.9184 -0.0207  0.8995
   74MOL   H24241268   3.399   1.689   2.549  0.0294  1.0713  1.1306
   74MOL   H24341269   3.410   1.496   2.786 -2.4440  0.2283 -1.5203
   74MOL   H24441270   3.457   1.456   2.623  2.4121  0.5295 -0.1601
   74MOL   H24541271   3.639   1.585   2.598  2.3757  1.8201  0.8655
   74MOL   H24641272   3.757   1.455   2.732 -0.2620  0.3701  1.3432
   74MOL   H24741273   3.591   1.644   2.880  0.2571 -1.7690 -0.5799
   74MOL   H24841274   3.837   1.720   2.705  1.7210 -0.3491  1.0577
   74MOL   H24941275   3.802   1.809   2.852  0.2934 -1.1859  2.4385
   74MOL   H25041276   3.587   1.849   2.656 -0.8468 -0.4186 -0.1301
   74MOL   H25141277   3.569   1.894   2.822  2.1821 -1.4996  2.0140
   74MOL   H25241278   3.352   1.871   2.696 -0.3136  0.0184  0.8800
   74MOL   H25341279   3.351   1.766   2.834 -0.7348 -1.9474 -1.2355
   74MOL   O25441280   3.863   1.615   2.873  0.8041  0.4750 -0.5213
   74MOL   C25541281   3.954   1.657   2.974  0.8806 -0.1315 -0.3244
   74MOL   C25641282   3.962   1.564   3.097 -0.3321  0.5698  0.7281
   74MOL   O25741283   3.865   1.615   3.192  0.3633 -0.5939  0.5887
   74MOL   C25841284   3.938   1.415   3.067  0.4680 -0.7178 -0.2311
   74MOL   C25941285   3.788   1.383   3.053  0.2796  0.8579 -0.4556
   74MOL   C26041286   3.757   1.236   3.024  0.4231 -0.5484 -0.5011
   74MOL   O26141287   3.613   1.218   3.024 -0.0651  1.0883  0.3531
   74MOL   C26241288   3.824   1.135   3.129  0.3439 -0.0237 -0.2484
   74MOL   C26341289   3.802   0.996   3.104 -0.0717  0.2527  0.6676
   74MOL   C26441290   3.967   1.171   3.130 -0.0724  0.1289 -0.1956
   74MOL   C26541291   3.992   1.318   3.173  0.0696  0.3399  0.7364
   74MOL   H26641292   3.937   1.758   3.010 -1.6816 -0.8623  0.6194
   74MOL   H26741293   4.053   1.653   2.929  1.0109 -3.4685  0.0801
   74MOL   H26841294   4.064   1.577   3.133  0.2054  0.6067 -0.7901
   74MOL   H26941295   3.785   1.573   3.163  1.3511 -2.2311  0.1918
   74MOL   H27041296   3.976   1.399   2.967  0.6708  1.9105 -0.6074
   74MOL   H27141297   3.746   1.414   3.149  1.3261 -0.6224  0.4909
   74MOL   H27241298   3.737   1.447   2.981 -1.4649 -1.2269 -1.1325
   74MOL   H27341299   3.803   1.213   2.928  1.0452  2.1325 -0.8966
   74MOL   H27441300   3.587   1.244   2.937 -0.4693  0.1690  0.1981
   74MOL   H27541301   3.778   1.157   3.225 -0.0220 -1.0972 -0.1739
   74MOL   H27641302   3.697   0.976   3.086 -0.0544  1.1077 -0.4020
   74MOL   H27741303   3.853   0.954   3.018 -0.3992  0.0169  0.5883
   74MOL   H27841304   4.016   1.155   3.034 -0.1459 -1.1000 -0.0415
   74MOL   H27941305   4.009   1.100   3.201  0.7005  0.9098  0.1449
   74MOL   H28041306   4.101   1.326   3.177  0.0597  1.8498 -1.0805
   74MOL   H28141307   3.958   1.334   3.275  1.2501 -2.2694  1.5583
   74MOL   O28241308   3.844   0.910   3.210  0.0560 -0.3351  0.3997
   74MOL   C28341309   3.775   0.783   3.219  0.1430 -0.4508 -0.1439
   74MOL   C28441310   3.821   0.697   3.339 -0.0548  0.2972  0.1166
   74MOL   O28541311   3.721   0.605   3.374  0.1917 -0.6060  0.0013
   74MOL   C28641312   3.953   0.628   3.311  0.6594  0.0023  0.1999
   74MOL   C28741313   3.928   0.503   3.222 -0.3587  0.6582  0.2271
   74MOL   C28841314   4.063   0.434   3.198  0.5627  0.5721 -0.1943
   74MOL   O28941315   4.028   0.318   3.125  0.3003 -0.3952  0.1760
   74MOL   C29041316   4.127   0.383   3.335  0.4022 -0.0271  0.6088
   74MOL   C29141317   4.254   0.296   3.316  0.0544 -0.2427 -0.4942
   74MOL   C29241318   4.153   0.511   3.426  0.2629 -0.1358 -0.6851
   74MOL   C29341319   4.017   0.594   3.442 -0.2752  0.3461 -0.4769
   74MOL   H29441320   3.769   0.728   3.125 -0.6471  1.3124 -1.1362
   74MOL   H29541321   3.674   0.818   3.240  0.4092 -0.2614  0.8567
   74MOL   H29641322   3.841   0.770   3.417  0.8924  0.8879 -0.6724
   74MOL   H29741323   3.752   0.566   3.454  0.6873  1.3597  0.8030
   74MOL   H29841324   4.021   0.687   3.250 -0.0976  0.3309 -0.3366
   74MOL   H29941325   3.853   0.430   3.253 -1.9976  1.6385 -1.3491
   74MOL   H30041326   3.883   0.521   3.124 -3.6463 -0.4645  1.4929
   74MOL   H30141327   4.143   0.484   3.144  1.2879 -1.1327 -0.7395
   74MOL   H30241328   4.023   0.342   3.034  0.5257 -0.0715  0.2489
   74MOL   H30341329   4.051   0.318   3.378 -0.7044  1.5564  1.0872
   74MOL   H30441330   4.232   0.220   3.241 -1.2826 -0.1074 -0.2677
   74MOL   H30541331   4.340   0.351   3.278  1.7189 -1.5857  1.2679
   74MOL   H30641332   4.220   0.578   3.372  0.4094  1.1990  1.0829
   74MOL   H30741333   4.199   0.470   3.516 -0.2960 -2.8430 -1.6131
   74MOL   H30841334   4.043   0.670   3.516  0.3167 -1.8205  1.6084
   74MOL   H30941335   3.949   0.531   3.501  1.4616 -0.6882  0.4741
   74MOL   O31041336   4.270   0.243   3.443  0.0778  0.2110  0.1081
   74MOL   C31141337   4.397   0.192   3.472  0.0703  0.0897 -0.1686
   74MOL   C31241338   4.430   0.040   3.465  0.6771 -0.2783 -0.0785
   74MOL   O31341339   4.456   7.626   3.327  0.0573  0.1127  0.1156
   74MOL   C31441340   4.554   7.611   3.552 -0.2256 -0.5837 -0.1798
   74MOL   C31541341   4.692   0.035   3.507  0.0089 -0.3950  0.2798
   74MOL   C31641342   4.807   7.612   3.596 -0.4193 -0.3779 -0.3564
   74MOL   O31741343   4.926   0.023   3.532 -0.0432 -0.0593  0.2890
   74MOL   C31841344   4.809   7.463   3.629  0.6300 -0.2873  0.5518
   74MOL   C31941345   4.903   7.421   3.742 -0.9856  0.4866 -0.1134
   74MOL   C32041346   4.661   7.421   3.665 -0.3307 -0.1645  0.2547
   74MOL   C32141347   4.563   7.464   3.556  0.4288 -0.0715  0.4058
   74MOL   H32241348   4.423   0.219   3.575 -0.8821 -1.3080  0.4503
   74MOL   H32341349   4.469   0.249   3.414  0.0908  0.7304  0.4832
   74MOL   H32441350   4.339   7.626   3.506 -0.8819  3.8103  0.9729
   74MOL   H32541351   4.377   0.010   3.277  0.5541 -2.3969 -1.4817
   74MOL   H32641352   4.533   0.020   3.652  1.1313  0.5135 -0.2971
   74MOL   H32741353   4.701   0.004   3.403 -2.9528  1.1715 -0.4890
   74MOL   H32841354   4.678   0.143   3.502 -0.5525 -0.4907 -0.4123
   74MOL   H32941355   4.806   0.032   3.693  0.7132 -0.8649 -0.0928
   74MOL   H33041356   5.002   0.018   3.589 -0.7117 -0.7101  1.1394
   74MOL   H33141357   4.826   7.412   3.535  0.7593  2.5889 -1.0399
   74MOL   H33241358   4.893   7.482   3.832 -4.5330  0.0420 -0.1241
   74MOL   H33341359   4.880   7.320   3.776 -1.2862 -0.2483 -2.4053
   74MOL   H33441360   4.633   7.470   3.758  1.4312 -1.1094  1.2869
   74MOL   H33541361   4.654   7.312   3.673 -3.3623 -0.0308  0.2427
   74MOL   H33641362   4.468   7.413   3.571  0.9471 -0.5605  2.0848
   74MOL   H33741363   4.592   7.425   3.459 -0.8321 -1.6057  0.6287
   74MOL   O33841364   5.039   7.431   3.700  0.4599  0.1759  0.0795
   74MOL   C33941365   5.131   7.424   3.799 -0.0511  0.4991 -0.8041
   74MOL   C34041366   5.263   7.416   3.725  0.2257 -0.5785 -0.6053
   74MOL   O34141367   5.260   7.299   3.650  0.1548 -0.4064 -0.1117
   74MOL   C34241368   5.296   7.532   3.625 -0.1085  0.2934 -0.0275
   74MOL   C34341369   5.443   7.530   3.572 -0.0544  0.3439  0.3260
   74MOL   C34441370   5.455   7.613   3.446 -0.4892 -0.8066 -0.6228
   74MOL   O34541371   5.579   7.614   3.375  0.4090  0.6896  0.0163
   74MOL   C34641372   5.405   0.132   3.483 -0.2982 -0.0871  0.3275
   74MOL   C34741373   5.415   0.231   3.363  1.0192 -1.1588  0.0721
   74MOL   C34841374   5.261   0.142   3.548 -0.0032 -0.2281 -0.6397
   74MOL   C34941375   5.257   0.046   3.673  0.0789  0.8021  0.4093
   74MOL   H35041376   5.112   7.346   3.873  1.6595  2.4965  1.7946
   74MOL   H35141377   5.128   7.518   3.853  0.3773 -0.0293  0.1451
   74MOL   H35241378   5.338   7.403   3.804 -0.0901 -1.4543 -0.4436
   74MOL   H35341379   5.170   7.287   3.626 -0.7085  0.9695  2.2343
   74MOL   H35441380   5.236   7.525   3.534  1.8369 -4.1961 -1.1128
   74MOL   H35541381   5.508   7.562   3.654 -1.5186  1.0251  1.2415
   74MOL   H35641382   5.483   7.430   3.556 -1.9316 -0.1774 -1.3083
   74MOL   H35741383   5.383   7.571   3.375 -0.3726  1.0073 -1.8433
   74MOL   H35841384   5.589   7.533   3.328 -0.2760  1.4874 -1.5322
   74MOL   H35941385   5.472   0.169   3.560 -0.8934  1.7967 -0.0213
   74MOL   H36041386   5.378   0.331   3.384  0.0315 -1.9130  2.0517
   74MOL   H36141387   5.520   0.242   3.333  0.6989  0.2402 -0.5583
   74MOL   H36241388   5.189   0.096   3.479  1.0113 -2.7437 -0.0598
   74MOL   H36341389   5.218   0.240   3.568  0.5453 -0.0835 -0.1633
   74MOL   H36441390   5.161   0.048   3.725 -0.3676  1.0978 -0.4094
   74MOL   H36541391   5.336   0.072   3.743 -0.4189 -2.6059  2.3432
   74MOL   O36641392   5.338   0.174   3.256 -0.2311  0.0805  0.1928
   74MOL   C36741393   5.405   0.162   3.135 -0.4865 -0.1701 -0.5533
   74MOL   C36841394   5.459   0.293   3.070  0.0669 -0.7033  0.0186
   74MOL   O36941395   5.556   0.258   2.969 -0.2669 -0.4096 -0.5340
   74MOL   C37041396   5.341   0.377   3.009  0.3078  0.0347  0.2154
   74MOL   C37141397   5.383   0.512   2.948  0.3133 -0.1762  0.4454
   74MOL   C37241398   5.262   0.572   2.870  0.3395  1.1018 -0.4091
   74MOL   O37341399   5.297   0.697   2.818 -0.4803 -0.0698  0.0809
   74MOL   C37441400   5.144   0.603   2.962  0.7211 -0.1433  0.1052
   74MOL   C37541401   5.015   0.664   2.894 -0.2877  0.1834  0.2327
   74MOL   C37641402   5.099   0.480   3.043 -0.3626 -0.3071 -0.4576
   74MOL   C37741403   5.222   0.412   3.110 -0.8408 -0.1039  0.4417
   74MOL   H37841404   5.324   0.132   3.068 -1.6490  0.1492  0.6767
   74MOL   H37941405   5.478   0.081   3.131  1.1387  1.2916 -0.6987
   74MOL   H38041406   5.513   0.358   3.139 -0.9512 -0.9942  1.1027
   74MOL   H38141407   5.626   0.200   2.995  1.4019  1.1221 -1.4512
   74MOL   H38241408   5.298   0.320   2.927  0.4880  0.5844 -0.2694
   74MOL   H38341409   5.402   0.579   3.032  0.4086  0.4289 -0.0548
   74MOL   H38441410   5.474   0.514   2.888 -0.2068  1.4690 -0.3186
   74MOL   H38541411   5.233   0.499   2.795  0.1267  2.4351 -1.6532
   74MOL   H38641412   5.243   0.710   2.741  1.9162 -0.4663 -1.7006
   74MOL   H38741413   5.176   0.671   3.040 -0.0829  1.8813 -1.3031
   74MOL   H38841414   5.045   0.749   2.834 -2.1236  0.6899  0.0002
   74MOL   H38941415   4.970   0.590   2.828  1.3901 -1.2730  0.6977
   74MOL   H39041416   5.045   0.413   2.975  3.2586 -1.4727 -2.2870
   74MOL   H39141417   5.028   0.509   3.120 -0.6555  0.4831 -1.0194
   74MOL   H39241418   5.186   0.319   3.154 -0.2100  0.1138  1.4435
   74MOL   H39341419   5.244   0.481   3.191 -1.0765  0.9737 -0.4052
   74MOL   O39441420   4.910   0.709   2.980  0.0444 -0.4089  0.3740
   74MOL   C39541421   4.781   0.731   2.921 -0.5624 -0.3866 -0.0852
   74MOL   C39641422   4.687   0.813   3.013  1.0979  0.1877 -0.3701
   74MOL   O39741423   4.732   0.942   2.979 -0.0442  0.2702  0.3205
   74MOL   C39841424   4.536   0.821   2.972  0.4430 -0.3207  0.3932
   74MOL   C39941425   4.447   0.838   3.095 -0.1123 -0.1254  0.5452
   74MOL   C40041426   4.296   0.856   3.059  0.5108  0.1551 -0.1685
   74MOL   O40141427   4.221   0.859   3.173 -0.2197 -0.5820 -0.3353
   74MOL   C40241428   4.239   0.746   2.970  0.3022 -0.0802 -0.0187
   74MOL   C40341429   4.096   0.781   2.922  0.3292  0.7313  0.0558
   74MOL   C40441430   4.333   0.718   2.853  0.5968  0.1692  0.4348
   74MOL   C40541431   4.478   0.693   2.894  0.8829  0.1037  0.3161
   74MOL   H40641432   4.737   0.632   2.909  0.2117 -0.7018 -0.2969
   74MOL   H40741433   4.789   0.781   2.824  0.0244  1.3164  0.8161
   74MOL   H40841434   4.713   0.778   3.113  0.2530 -3.1903 -1.2824
   74MOL   H40941435   4.742   0.993   3.058 -0.4153  1.5912 -0.4602
   74MOL   H41041436   4.514   0.902   2.902  0.8644 -0.0272  0.5999
   74MOL   H41141437   4.450   0.746   3.155  0.8230 -0.4293  0.0283
   74MOL   H41241438   4.476   0.920   3.161 -1.2134  0.0618  0.8104
   74MOL   H41341439   4.287   0.955   3.013 -0.7912 -0.3359 -0.9759
   74MOL   H41441440   4.144   0.911   3.155  0.2188 -0.4522 -1.9487
   74MOL   H41541441   4.232   0.649   3.019 -0.6033 -1.1566 -2.2621
   74MOL   H41641442   4.030   0.806   3.005  2.6896  0.1213  2.1600
   74MOL   H41741443   4.100   0.860   2.847  0.2026  1.5790  0.9445
   74MOL   H41841444   4.342   0.807   2.791  3.2877 -1.1619 -1.2022
   74MOL   H41941445   4.309   0.640   2.780  1.6204  0.4275 -0.1971
   74MOL   H42041446   4.522   0.680   2.795 -0.7468 -1.7305 -0.1766
   74MOL   H42141447   4.503   0.608   2.957 -0.2267 -1.3531 -1.1851
   74MOL   O42241448   4.042   0.665   2.854  0.0755 -0.4800 -0.1899
   74MOL   C42341449   3.903   0.672   2.836  0.3092 -0.8384 -0.6189
   74MOL   C42441450   3.874   0.773   2.723 -0.2362  0.1922 -0.1745
   74MOL   O42541451   3.943   0.725   2.611 -0.3850 -0.2853 -0.3109
   74MOL   C42641452   3.727   0.792   2.695  0.1035  0.5397 -0.4862
   74MOL   C42741453   3.699   0.849   2.556  1.1092 -0.1819  0.4353
   74MOL   C42841454   3.545   0.855   2.530 -0.3842  0.1340 -0.3886
   74MOL   O42941455   3.538   0.892   2.393 -0.3960 -0.5661 -0.4122
   74MOL   C43041456   3.473   0.948   2.626 -0.0773  0.0614  0.7223
   74MOL   C43141457   3.318   0.942   2.613  0.2005  0.1990  0.0909
   74MOL   C43241458   3.511   0.924   2.770  0.0597 -0.4641  0.6346
   74MOL   C43341459   3.663   0.895   2.798  0.2817 -0.3549  0.3263
   74MOL   H43441460   3.841   0.695   2.923  0.4843 -1.4224 -0.3394
   74MOL   H43541461   3.858   0.574   2.814  1.5554 -2.1198  2.3441
   74MOL   H43641462   3.914   0.872   2.748 -1.0185  0.2448  0.9199
   74MOL   H43741463   4.030   0.696   2.635 -0.5283 -1.1587 -0.8179
   74MOL   H43841464   3.666   0.703   2.710  0.7969  0.2162  0.4278
   74MOL   H43941465   3.734   0.950   2.537 -1.3267  0.3907 -1.2858
   74MOL   H44041466   3.737   0.785   2.476 -1.1137 -1.1815  0.1212
   74MOL   H44141467   3.497   0.758   2.543  0.5027 -0.2421  0.1632
   74MOL   H44241468   3.593   0.967   2.378 -1.1937 -0.2612 -1.8137
   74MOL   H44341469   3.511   1.047   2.602 -0.5507  0.4813  1.7125
   74MOL   H44441470   3.281   0.843   2.642 -0.4848  0.1295 -0.9900
   74MOL   H44541471   3.268   1.006   2.685  0.9421 -2.2182  2.8731
   74MOL   H44641472   3.460   0.831   2.794 -0.6279  0.1715  1.6357
   74MOL   H44741473   3.469   0.995   2.841  0.0188  1.0042 -0.8169
   74MOL   H44841474   3.664   0.853   2.898  0.8761 -2.1030 -0.3967
   74MOL   H44941475   3.709   0.993   2.801 -2.0255  0.8293 -1.0571
   74MOL   O45041476   3.279   0.988   2.484 -0.5111 -0.0433 -0.0587
   74MOL   C45141477   3.156   0.927   2.447  0.5318 -0.2234  0.3011
   74MOL   C45241478   3.164   0.909   2.299 -0.6510 -0.3874  0.4039
   74MOL   O45341479   3.259   0.807   2.269 -0.5579  0.5047  0.1589
   74MOL   C45441480   3.038   0.878   2.230  0.6403 -0.1033  0.2526
   74MOL   C45541481   3.059   0.838   2.080 -0.3986 -0.6322  0.1713
   74MOL   C45641482   2.923   0.831   2.003  0.3138 -0.3292  0.1603
   74MOL   O45741483   2.955   0.800   1.866  0.5336 -0.0550  0.3938
   74MOL   C45841484   2.844   0.961   2.008  0.2104 -0.4411  0.4375
   74MOL   C45941485   2.702   0.947   1.948 -0.2874 -0.3835 -1.0498
   74MOL   C46041486   2.828   1.000   2.157  0.5538 -0.0711 -0.3240
   74MOL   C46141487   2.956   1.009   2.234 -0.2790 -0.4071 -0.6366
   74MOL   H46241488   3.071   0.986   2.481  1.3342  1.4703 -0.5695
   74MOL   H46341489   3.133   0.828   2.485  0.5883 -0.5379 -0.4908
   74MOL   H46441490   3.212   0.998   2.259  0.7596 -2.1981 -2.0746
   74MOL   H46541491   3.340   0.837   2.307 -0.7863 -0.0763  1.1275
   74MOL   H46641492   2.985   0.793   2.272 -0.7653  0.5722 -0.1179
   74MOL   H46741493   3.130   0.900   2.026 -1.2677 -0.0209 -0.2837
   74MOL   H46841494   3.092   0.734   2.078 -1.0842 -0.8853  1.4224
   74MOL   H46941495   2.874   0.743   2.044  1.9346 -2.1504 -1.6929
   74MOL   H47041496   3.004   0.871   1.827  0.0518  0.2024  0.2600
   74MOL   H47141497   2.896   1.037   1.950  0.8536 -0.3875  1.0811
   74MOL   H47241498   2.710   0.914   1.845 -0.9643  0.4583 -1.3688
   74MOL   H47341499   2.650   0.872   2.008 -0.5596  0.7039  0.1020
   74MOL   H47441500   2.770   0.919   2.202  0.1590 -0.7410 -1.9635
   74MOL   H47541501   2.775   1.094   2.173 -0.8386 -1.3310  2.9661
   74MOL   H47641502   2.915   1.032   2.332 -0.3336 -0.1407 -0.7217
   74MOL   H47741503   3.014   1.090   2.190 -0.0255  0.6244  1.5140
   74MOL   O47841504   2.628   1.074   1.954  0.6054  0.3491  0.2556
   74MOL   C47941505   2.639   1.148   1.834  0.0756  0.8845  0.2781
   74MOL   C48041506   2.576   1.287   1.860 -0.3448 -0.4682  0.1624
   74MOL   O48141507   2.637   1.347   1.966  0.1707 -0.1673 -0.6367
   74MOL   C48241508   2.577   1.385   1.736  0.3237  0.3037 -0.9356
   74MOL   C48341509   2.718   1.441   1.705  0.2124  0.2107 -0.0879
   74MOL   C48441510   2.726   1.548   1.592  0.2142 -0.1855  0.1514
   74MOL   O48541511   2.861   1.601   1.579  0.1280 -0.6633  0.1547
   74MOL   C48641512   2.621   1.661   1.617  0.1440 -0.9329 -0.1217
   74MOL   C48741513   2.616   1.745   1.489 -0.1267 -0.3071 -0.3749
   74MOL   C48841514   2.488   1.603   1.649  0.0694 -0.7309 -0.4839
   74MOL   C48941515   2.489   1.511   1.771 -0.1095 -0.0275 -0.0724
   74MOL   H49041516   2.597   1.093   1.749  2.8229 -1.6417  0.5037
   74MOL   H49141517   2.745   1.168   1.824  0.2063  0.2867  0.5063
   74MOL   H49241518   2.472   1.266   1.886  0.4970 -1.4353  2.9433
   74MOL   H49341519   2.673   1.273   2.012  1.7017  1.3437  0.6413
   74MOL   H49441520   2.541   1.335   1.646  0.0865 -1.1450 -0.0543
   74MOL   H49541521   2.770   1.482   1.791 -0.9098  1.3225  0.0753
   74MOL   H49641522   2.780   1.355   1.679  2.6566  2.3907 -1.6534
   74MOL   H49741523   2.699   1.493   1.502  0.9749 -0.1345 -0.1174
   74MOL   H49841524   2.923   1.536   1.552 -0.7028 -1.5853  0.4318
   74MOL   H49941525   2.667   1.724   1.693  1.3721  0.1866 -1.7729
   74MOL   H50041526   2.715   1.772   1.454 -0.7663  0.0300 -1.9941
   74MOL   H50141527   2.589   1.678   1.407  0.1017 -1.2573  0.3092
   74MOL   H50241528   2.460   1.546   1.560 -0.8529 -1.5539  0.3140
   74MOL   H50341529   2.403   1.671   1.655  0.4475 -0.2390 -0.6647
   74MOL   H50441530   2.385   1.490   1.795  0.2841  0.2263  1.9291
   74MOL   H50541531   2.537   1.563   1.854  0.5548 -2.7899  1.3432
   74MOL   O50641532   2.535   1.866   1.495 -0.2820  0.1872  0.1540
   74MOL   C50741533   2.472   1.897   1.370  0.1321  0.1532  0.0882
   74MOL   C50841534   2.389   2.032   1.373 -0.4337 -0.7769  1.5400
   74MOL   O50941535   2.260   2.013   1.411 -0.2789 -0.0967 -0.4626
   74MOL   C51041536   2.443   2.148   1.457  0.5616  0.5291  0.1257
   74MOL   C51141537   2.405   2.141   1.609  0.7188 -0.7414 -0.2228
   74MOL   C51241538   2.471   2.243   1.702  0.0163 -0.1756  0.0181
   74MOL   O51341539   2.417   2.240   1.839  1.1960 -0.3338 -0.0127
   74MOL   C51441540   2.445   2.389   1.653 -0.0827 -0.0037 -0.0859
   74MOL   C51541541   2.541   2.489   1.717 -0.0145  0.1697  0.8217
   74MOL   C51641542   2.478   2.397   1.493 -0.8606  0.3116  0.2433
   74MOL   C51741543   2.407   2.287   1.406  0.7807  0.3308 -0.5712
   74MOL   H51841544   2.399   1.822   1.338  0.1564 -0.3903  1.3066
   74MOL   H51941545   2.553   1.904   1.296  0.9256 -2.8376  0.5888
   74MOL   H52041546   2.382   2.072   1.272 -2.4493  0.1533  2.0179
   74MOL   H52141547   2.269   2.004   1.504 -2.5356  1.3293 -0.0739
   74MOL   H52241548   2.551   2.144   1.447  0.6425 -0.2388  1.2124
   74MOL   H52341549   2.297   2.135   1.617  0.7184 -0.7349 -0.2254
   74MOL   H52441550   2.438   2.046   1.653 -2.0076 -2.5035 -1.8804
   74MOL   H52541551   2.577   2.218   1.696 -0.5095 -2.3084 -0.6623
   74MOL   H52641552   2.482   2.227   1.906  2.0269  0.1005 -0.7253
   74MOL   H52741553   2.342   2.418   1.671 -0.1997 -0.7514  0.5122
   74MOL   H52841554   2.531   2.496   1.825  2.1730  1.5917  0.9541
   74MOL   H52941555   2.645   2.464   1.699  0.0825 -0.1204  1.7480
   74MOL   H53041556   2.586   2.386   1.481 -1.1943 -0.3405 -2.5594
   74MOL   H53141557   2.447   2.490   1.446 -0.4334 -0.3430 -1.3895
   74MOL   H53241558   2.436   2.290   1.301  0.4969  0.3047 -0.6503
   74MOL   H53341559   2.299   2.281   1.408  0.8416 -1.0970  2.5612
   74MOL   O53441560   2.505   2.613   1.657 -0.2879  0.1210  0.3999
   74MOL   C53541561   2.609   2.708   1.677 -0.1703 -0.5002 -1.2840
   74MOL   C53641562   2.571   2.827   1.593 -0.0144 -0.3125  0.1190
   74MOL   O53741563   2.575   2.777   1.460 -0.3053  0.0626  0.6729
   74MOL   C53841564   2.435   2.897   1.619 -0.2275 -0.0470 -0.7110
   74MOL   C53941565   2.399   3.011   1.516  0.7462 -0.1943  0.1359
   74MOL   C54041566   2.268   3.075   1.543 -0.2284 -0.4019 -1.0614
   74MOL   O54141567   2.248   3.175   1.443 -0.3454 -0.0491  0.3937
   74MOL   C54241568   2.270   3.142   1.682  0.6253 -0.7869 -0.3589
   74MOL   C54341569   2.131   3.206   1.713  0.5787  0.2639 -0.5673
   74MOL   C54441570   2.307   3.038   1.784  0.0539 -0.3893 -0.6228
   74MOL   C54541571   2.438   2.963   1.759  0.2111 -0.5205  0.9413
   74MOL   H54641572   2.706   2.670   1.646  0.3873 -1.3569  1.3692
   74MOL   H54741573   2.618   2.744   1.779  2.9179  0.9230 -2.0306
   74MOL   H54841574   2.652   2.899   1.602 -1.1181  1.1728 -1.6102
   74MOL   H54941575   2.586   2.683   1.456 -0.8959 -0.0500  1.4697
   74MOL   H55041576   2.356   2.822   1.620  0.9924 -1.3501  1.0254
   74MOL   H55141577   2.481   3.082   1.511  0.1496  0.4406 -0.9660
   74MOL   H55241578   2.395   2.966   1.417 -1.0952 -0.6299  0.3946
   74MOL   H55341579   2.187   3.002   1.544 -1.1946  0.6616 -0.8528
   74MOL   H55441580   2.156   3.184   1.426  0.0419 -2.1629 -3.3398
   74MOL   H55541581   2.349   3.216   1.695 -0.7143  0.6499 -0.2558
   74MOL   H55641582   2.134   3.306   1.669 -0.6807  0.2039 -0.8117
   74MOL   H55741583   2.046   3.153   1.669 -0.2367  1.2374 -0.1839
   74MOL   H55841584   2.226   2.966   1.788 -1.7249  1.6611  1.1967
   74MOL   H55941585   2.332   3.091   1.876 -1.6243 -0.7833  0.0768
   74MOL   H56041586   2.460   2.887   1.834  0.3021 -0.3669  1.0707
   74MOL   H56141587   2.517   3.038   1.756 -1.6374  1.4745  0.6503
   74MOL   H56241588   2.111   3.229   1.818 -1.6765 -0.5256 -0.7830
   75MOL     O141589   3.588   5.478   0.414  0.1809 -0.2051 -0.5225
   75MOL     C241590   3.508   5.558   0.500 -0.0487  0.1610  0.0681
   75MOL     C341591   3.484   5.488   0.633  0.4271  0.1951  0.1702
   75MOL     O441592   3.617   5.456   0.670  0.1855  0.2458  0.1355
   75MOL     C541593   3.401   5.558   0.742  0.1978  0.2949 -0.5285
   75MOL     C641594   3.485   5.667   0.822 -0.0006  0.0489  0.4877
   75MOL     C741595   3.394   5.738   0.927 -0.7761  0.1896  0.7026
   75MOL     O841596   3.474   5.835   0.992  0.4766  0.0694  0.2073
   75MOL     C941597   3.341   5.634   1.028 -0.7637  0.3054 -0.6317
   75MOL    C1041598   3.279   5.696   1.163  0.4664  0.2166  0.0825
   75MOL    C1141599   3.250   5.530   0.951  0.3309 -0.5938  0.3037
   75MOL    C1241600   3.334   5.456   0.840  0.4277 -0.2655  0.3970
   75MOL    H1341601   3.414   5.574   0.447 -0.8940 -0.5145  1.3232
   75MOL    H1441602   3.551   5.658   0.499 -0.0986  0.2353  2.2807
   75MOL    H1541603   3.432   5.393   0.620  0.8845 -0.5899  3.6877
   75MOL    H1641604   3.612   5.382   0.728 -0.2722 -0.2263 -0.5021
   75MOL    H1741605   3.319   5.610   0.693  0.8811  0.1839 -1.8112
   75MOL    H1841606   3.563   5.616   0.879 -0.5097  0.5589  1.6644
   75MOL    H1941607   3.534   5.744   0.762  0.5355 -0.0156  0.8327
   75MOL    H2041608   3.312   5.799   0.889 -0.5205 -1.8325 -3.4043
   75MOL    H2141609   3.537   5.787   1.045  0.3404 -1.3481 -0.8828
   75MOL    H2241610   3.414   5.570   1.077 -3.6284 -1.9883  0.7745
   75MOL    H2341611   3.351   5.744   1.229  1.7219 -0.8897 -0.4590
   75MOL    H2441612   3.197   5.761   1.132 -0.3534 -1.6157 -1.6331
   75MOL    H2541613   3.162   5.576   0.908  1.4304  1.4164  0.1416
   75MOL    H2641614   3.215   5.459   1.027  0.1189 -2.6112 -1.6334
   75MOL    H2741615   3.264   5.396   0.781 -1.0183  0.8730  0.9272
   75MOL    H2841616   3.409   5.398   0.893 -1.0469 -1.6215  1.0552
   75MOL    H2941617   3.634   5.432   0.482 -0.5893 -2.1237 -1.2699
   75MOL    O3041618   3.227   5.585   1.235 -0.5363  0.2231 -0.3420
   75MOL    C3141619   3.157   5.638   1.352 -0.0582  0.5881 -0.9279
   75MOL    C3241620   3.041   5.541   1.379  0.4379  0.3712 -0.1827
   75MOL    O3341621   3.021   5.554   1.521  0.4026 -0.7784 -0.3808
   75MOL    C3441622   2.908   5.580   1.304 -1.2197  0.3402 -0.9068
   75MOL    C3541623   2.791   5.489   1.337 -0.1133  0.4143 -0.1886
   75MOL    C3641624   2.659   5.512   1.257 -0.1404  0.4723  0.0175
   75MOL    O3741625   2.562   5.412   1.284  0.1462 -0.7317  0.0321
   75MOL    C3841626   2.679   5.532   1.102 -0.6452  0.0215 -0.4822
   75MOL    C3941627   2.546   5.582   1.029 -0.0795 -0.5755 -0.1137
   75MOL    C4041628   2.808   5.624   1.077 -0.2414 -0.0499 -0.2714
   75MOL    C4141629   2.929   5.581   1.154 -0.3866 -0.1636 -0.6385
   75MOL    H4241630   3.122   5.739   1.333  0.1795  0.7778 -0.3792
   75MOL    H4341631   3.221   5.627   1.441 -0.9965 -0.2713 -0.3453
   75MOL    H4441632   3.074   5.440   1.357  1.5865  0.4668  1.0712
   75MOL    H4541633   2.985   5.639   1.542  2.7338 -0.4982  2.9692
   75MOL    H4641634   2.885   5.680   1.341  1.7773  0.2550  1.3958
   75MOL    H4741635   2.823   5.385   1.322  0.6589  0.0664  3.3289
   75MOL    H4841636   2.764   5.503   1.442 -2.3315 -1.4773 -0.4524
   75MOL    H4941637   2.621   5.610   1.286  0.0344  1.0099 -1.5069
   75MOL    H5041638   2.562   5.402   1.378  0.5222 -0.0047  0.1143
   75MOL    H5141639   2.705   5.438   1.055 -1.2250  0.0422 -0.8468
   75MOL    H5241640   2.556   5.573   0.921 -1.9595 -2.3865 -0.1819
   75MOL    H5341641   2.470   5.516   1.071 -0.9173  0.4255 -0.0710
   75MOL    H5441642   2.781   5.724   1.110 -0.1350  1.0364 -3.2814
   75MOL    H5541643   2.835   5.635   0.971  1.5171 -0.6339  0.0990
   75MOL    H5641644   3.005   5.652   1.125 -0.2679  0.2088  0.5915
   75MOL    H5741645   2.966   5.481   1.129 -0.3405 -0.5606  0.9425
   75MOL    O5841646   2.512   5.713   1.082 -0.0114  0.3624  0.4807
   75MOL    C5941647   2.369   5.737   1.080 -0.4666  0.3953 -0.5972
   75MOL    C6041648   2.343   5.877   1.143  0.5388  0.5400  1.0970
   75MOL    O6141649   2.368   5.858   1.278 -0.3844 -0.0799  0.0385
   75MOL    C6241650   2.426   5.999   1.109 -0.0248 -0.3779  0.3607
   75MOL    C6341651   2.380   6.131   1.173  0.5825 -0.0772 -0.3756
   75MOL    C6441652   2.462   6.253   1.118  0.1831  0.4870  0.3251
   75MOL    O6541653   2.391   6.367   1.168  0.1430  0.0772  0.5918
   75MOL    C6641654   2.460   6.264   0.964 -0.1320 -0.3545  0.0928
   75MOL    C6741655   2.524   6.393   0.907 -0.6736  0.2511 -0.0567
   75MOL    C6841656   2.503   6.128   0.906 -0.4346 -0.1184 -0.0839
   75MOL    C6941657   2.419   6.013   0.954  0.1080 -0.1879  0.2895
   75MOL    H7041658   2.301   5.666   1.127  0.2666 -1.4372 -2.2461
   75MOL    H7141659   2.330   5.748   0.979 -1.4110  1.2209 -0.1657
   75MOL    H7241660   2.238   5.898   1.121  0.1231 -2.5941 -0.1885
   75MOL    H7341661   2.462   5.866   1.282 -0.5201  1.6331  0.4077
   75MOL    H7441662   2.528   5.979   1.140  1.1779  0.7865 -2.6128
   75MOL    H7541663   2.276   6.147   1.145  0.9847  0.7445 -1.4052
   75MOL    H7641664   2.389   6.126   1.282 -1.5575 -0.3960 -0.1991
   75MOL    H7741665   2.564   6.257   1.155  0.3852  0.4240 -0.2272
   75MOL    H7841666   2.328   6.373   1.098  1.2905  0.9029 -0.3854
   75MOL    H7941667   2.354   6.269   0.938  0.1289 -1.6209 -1.3087
   75MOL    H8041668   2.478   6.405   0.809  1.2384  0.6276 -0.9450
   75MOL    H8141669   2.497   6.470   0.979 -0.4062  1.0213 -0.7709
   75MOL    H8241670   2.604   6.103   0.937  0.4637  0.4460 -2.4232
   75MOL    H8341671   2.502   6.133   0.797 -2.5541  1.5157 -0.0224
   75MOL    H8441672   2.440   5.916   0.909  2.2777 -0.9956  2.9024
   75MOL    H8541673   2.319   6.045   0.926  0.3098  2.2876  2.2169
   75MOL    O8641674   2.661   6.359   0.887 -0.6244  0.1763  0.1294
   75MOL    C8741675   2.721   6.429   0.780 -0.7261  0.5372 -0.2372
   75MOL    C8841676   2.758   6.336   0.665  0.3146 -0.8873 -0.3648
   75MOL    O8941677   2.634   6.284   0.621 -0.1577 -0.1200 -0.2913
   75MOL    C9041678   2.835   6.406   0.546  0.3426 -0.3608  0.4902
   75MOL    C9141679   2.872   6.309   0.435  0.4146  0.2428  0.3253
   75MOL    C9241680   2.928   6.392   0.312  0.6432  0.4830 -0.2315
   75MOL    O9341681   2.946   6.310   0.207  0.0770  0.8360  0.2587
   75MOL    C9441682   3.041   6.489   0.347  0.0903 -0.2847  0.6210
   75MOL    C9541683   3.092   6.559   0.222  0.3500 -0.7175 -0.2661
   75MOL    C9641684   3.007   6.579   0.462  0.6164  0.6871  0.0540
   75MOL    C9741685   2.958   6.493   0.583 -0.1370  0.0012 -0.1564
   75MOL    H9841686   2.816   6.470   0.813 -1.6578  1.1000  1.8426
   75MOL    H9941687   2.655   6.512   0.755 -0.3618  1.5909  2.1326
   75MOL   H10041688   2.818   6.251   0.697  2.1361  1.4706  2.7177
   75MOL   H10141689   2.620   6.207   0.674 -1.3043 -0.4363 -1.0427
   75MOL   H10241690   2.767   6.485   0.513  0.0745 -1.1682 -0.9155
   75MOL   H10341691   2.939   6.232   0.474 -1.8985 -1.6746  0.6036
   75MOL   H10441692   2.783   6.262   0.395 -0.4615  1.1659  1.1829
   75MOL   H10541693   2.844   6.449   0.273 -0.0126 -0.3378 -0.0342
   75MOL   H10641694   2.948   6.225   0.250  3.3916  0.5007 -0.3745
   75MOL   H10741695   3.126   6.434   0.388  0.7147  0.6588  0.6256
   75MOL   H10841696   3.118   6.489   0.143 -1.6044 -1.2176 -0.5097
   75MOL   H10941697   3.017   6.629   0.184  0.1657 -0.9740 -0.3750
   75MOL   H11041698   2.940   6.661   0.436 -0.9118 -1.0661 -1.6278
   75MOL   H11141699   3.088   6.644   0.496  0.3261  0.9704  0.2106
   75MOL   H11241700   2.946   6.558   0.670  0.3487 -0.7684  0.4870
   75MOL   H11341701   3.037   6.426   0.616 -2.5104 -2.0732  1.5149
   75MOL   O11441702   3.196   6.655   0.258  0.0955  0.0481  0.2233
   75MOL   C11541703   3.299   6.671   0.167  0.4911  0.3687 -0.0261
   75MOL   C11641704   3.259   6.743   0.037  0.0137 -0.1143 -0.0958
   75MOL   O11741705   3.238   6.871   0.087  0.3992 -0.1746 -0.4972
   75MOL   C11841706   3.351   6.751   7.552 -0.4151  0.3507  0.1596
   75MOL   C11941707   3.278   6.823   7.436 -0.2450  0.3444  0.0202
   75MOL   C12041708   3.366   6.827   7.310 -0.4034  0.2244 -0.1970
   75MOL   O12141709   3.285   6.894   7.217  0.2592  0.5875 -0.0984
   75MOL   C12241710   3.407   6.685   7.257  1.0144 -0.6076  0.0104
   75MOL   C12341711   3.508   6.690   7.141 -0.0257 -0.3603 -0.7817
   75MOL   C12441712   3.466   6.610   7.365  0.4544  0.3485 -0.3619
   75MOL   C12541713   3.389   6.614   7.500 -0.2103  0.2154  0.5254
   75MOL   H12641714   3.348   6.575   0.152  0.0517 -0.0687  1.2809
   75MOL   H12741715   3.376   6.718   0.228  0.8467  0.3475 -0.4603
   75MOL   H12841716   3.168   6.693   0.004  0.6538 -0.6898 -0.9995
   75MOL   H12941717   3.185   6.861   0.165 -0.3819  0.7917 -0.8944
   75MOL   H13041718   3.443   6.805   7.576 -0.7413  1.6018 -1.3363
   75MOL   H13141719   3.190   6.764   7.410 -0.2953 -0.5077  2.0064
   75MOL   H13241720   3.244   6.924   7.458 -1.2092 -0.3215  1.6764
   75MOL   H13341721   3.456   6.884   7.333  0.0801  0.9088 -3.5001
   75MOL   H13441722   3.210   6.841   7.195 -1.8179  2.9618  0.9605
   75MOL   H13541723   3.318   6.636   7.217  0.6318 -1.6946  2.1429
   75MOL   H13641724   3.483   6.777   7.080  1.8176  0.9217  0.2429
   75MOL   H13741725   3.611   6.710   7.171  0.0312 -0.4275 -0.9303
   75MOL   H13841726   3.566   6.650   7.381 -1.1254  4.4306 -0.1326
   75MOL   H13941727   3.471   6.506   7.333  1.2626  0.2646  0.0098
   75MOL   H14041728   3.443   6.555   7.574  0.7129  0.6717  0.2243
   75MOL   H14141729   3.295   6.561   7.487  0.5605 -1.2148  0.6913
   75MOL   O14241730   3.510   6.575   7.061 -0.1067  0.1424  0.5542
   75MOL   C14341731   3.416   6.582   6.954 -0.1220  0.2022  0.1473
   75MOL   C14441732   3.365   6.439   6.940 -0.6518 -0.2899 -0.3599
   75MOL   O14541733   3.290   6.403   7.055 -0.0174 -0.2967  0.2287
   75MOL   C14641734   3.301   6.415   6.800  0.0065  0.3329  0.0551
   75MOL   C14741735   3.166   6.486   6.793 -0.3332 -0.0025  0.0013
   75MOL   C14841736   3.100   6.459   6.649  0.3852 -0.0070  0.4985
   75MOL   O14941737   2.972   6.517   6.649  0.0015  0.5636 -0.4343
   75MOL   C15041738   3.102   6.303   6.617 -0.0990 -0.4321 -0.5443
   75MOL   C15141739   3.032   6.279   6.483 -0.3784 -0.9390 -0.2239
   75MOL   C15241740   3.241   6.238   6.626  0.4824 -0.1668 -0.6324
   75MOL   C15341741   3.290   6.267   6.765 -0.0144  0.1043 -0.5354
   75MOL   H15441742   3.466   6.611   6.861 -0.4848  1.1468  0.2417
   75MOL   H15541743   3.333   6.647   6.981  0.4897  0.9411  0.2855
   75MOL   H15641744   3.451   6.373   6.953 -1.3277 -0.7594  1.8616
   75MOL   H15741745   3.346   6.374   7.125  0.5204  0.7169  0.2301
   75MOL   H15841746   3.371   6.451   6.725  0.2558 -0.0525  0.1012
   75MOL   H15941747   3.099   6.439   6.865 -0.1252  0.4789  0.5118
   75MOL   H16041748   3.176   6.594   6.809  1.2949 -0.1801  0.3000
   75MOL   H16141749   3.159   6.511   6.573 -0.9656 -1.6123 -1.7278
   75MOL   H16241750   2.912   6.463   6.599 -1.5311  2.4387 -0.6777
   75MOL   H16341751   3.043   6.257   6.697 -0.3585  0.3016 -0.3042
   75MOL   H16441752   3.082   6.330   6.400 -0.6010  0.5754  0.5482
   75MOL   H16541753   3.024   6.172   6.466 -0.9789 -1.0243  0.5766
   75MOL   H16641754   3.302   6.282   6.547  1.0296 -0.8251 -0.5817
   75MOL   H16741755   3.236   6.130   6.611  2.2564 -0.2737 -0.6385
   75MOL   H16841756   3.387   6.219   6.775  0.3812  1.0759  0.4045
   75MOL   H16941757   3.227   6.222   6.841 -3.0145 -0.8136 -3.4636
   75MOL   O17041758   2.894   6.312   6.482 -0.1544  0.3655  0.3531
   75MOL   C17141759   2.819   6.257   6.369  0.1030 -0.6330  0.2821
   75MOL   C17241760   2.674   6.302   6.378 -0.4829 -0.3790  0.9420
   75MOL   O17341761   2.624   6.232   6.485  0.4380  0.1932  0.2290
   75MOL   C17441762   2.636   6.453   6.374  0.0874  0.4235  0.1010
   75MOL   C17541763   2.492   6.471   6.333 -0.6547  0.0296  1.1087
   75MOL   C17641764   2.443   6.616   6.317  0.0660  0.1875  0.7965
   75MOL   O17741765   2.321   6.606   6.262  0.1305  0.5466 -0.7262
   75MOL   C17841766   2.533   6.701   6.224  0.1068 -0.4216 -0.6142
   75MOL   C17941767   2.477   6.848   6.230  0.1176  0.2125 -0.0600
   75MOL   C18041768   2.682   6.684   6.263 -0.2629 -0.0701  0.8841
   75MOL   C18141769   2.733   6.534   6.272  0.0710  0.3686 -0.0339
   75MOL   H18241770   2.831   6.150   6.383  1.6686 -0.5046  0.0746
   75MOL   H18341771   2.871   6.296   6.282 -0.1824 -1.8365 -0.4336
   75MOL   H18441772   2.631   6.259   6.287 -1.2195  0.1770  1.0252
   75MOL   H18541773   2.665   6.246   6.569 -0.1175 -1.8979  0.8798
   75MOL   H18641774   2.659   6.500   6.470 -0.3370  0.8289  0.0023
   75MOL   H18741775   2.478   6.427   6.234  1.3924 -0.6567  1.1101
   75MOL   H18841776   2.419   6.418   6.395 -1.0663  0.2725  0.8363
   75MOL   H18941777   2.428   6.662   6.415  0.5738  0.8498  0.5677
   75MOL   H19041778   2.334   6.573   6.174 -1.8833 -1.6970 -0.2385
   75MOL   H19141779   2.532   6.643   6.131  0.6100 -0.9154 -0.3119
   75MOL   H19241780   2.538   6.906   6.160  1.8620 -1.1968  0.2529
   75MOL   H19341781   2.370   6.865   6.223  0.2676  1.4517  0.5984
   75MOL   H19441782   2.701   6.723   6.363  0.5416  0.7391  0.4302
   75MOL   H19541783   2.750   6.745   6.204  1.4357 -0.4545  2.3889
   75MOL   H19641784   2.834   6.533   6.314 -0.7011 -0.3324  1.8340
   75MOL   H19741785   2.744   6.480   6.178 -2.1455 -3.5910  1.8844
   75MOL   O19841786   2.498   6.903   6.362 -0.6277  0.2377 -0.2454
   75MOL   C19941787   2.495   7.042   6.344 -0.4499 -0.7234  0.0993
   75MOL   C20041788   2.554   7.102   6.475 -0.0764 -0.3260  0.9249
   75MOL   O20141789   2.697   7.102   6.475  0.2248 -0.5246 -0.1773
   75MOL   C20241790   2.512   7.249   6.510 -0.5521 -0.6342 -0.1533
   75MOL   C20341791   2.566   7.356   6.421  0.3941 -0.4037 -0.3515
   75MOL   C20441792   2.489   7.488   6.460 -0.3951  0.1885 -0.5438
   75MOL   O20541793   2.527   7.592   6.362 -0.4886  0.0482  0.0695
   75MOL   C20641794   2.519   7.530   6.605 -0.4213 -0.2249 -0.1337
   75MOL   C20741795   2.449   0.029   6.653 -0.2290  0.4380 -0.5571
   75MOL   C20841796   2.477   7.411   6.693  0.8991 -0.3100 -0.1537
   75MOL   C20941797   2.531   7.273   6.658  0.4684  0.0090 -0.0901
   75MOL   H21041798   2.394   7.078   6.326  0.2877  1.3553  0.0646
   75MOL   H21141799   2.560   7.074   6.263  1.6743 -0.8526  1.7139
   75MOL   H21241800   2.533   7.032   6.555  0.6288 -1.0643  0.4634
   75MOL   H21341801   2.715   7.167   6.408  1.6196  1.1579  1.7878
   75MOL   H21441802   2.404   7.255   6.494 -0.4158  0.9371 -0.4967
   75MOL   H21541803   2.672   7.369   6.443  0.5872 -1.0523 -0.8648
   75MOL   H21641804   2.562   7.328   6.316  1.2753  2.5170 -1.2134
   75MOL   H21741805   2.387   7.460   6.435 -0.5740  0.8266 -0.5422
   75MOL   H21841806   2.526   7.555   6.275 -0.8692  0.7665 -0.2362
   75MOL   H21941807   2.624   7.560   6.613 -0.3693 -0.7659  1.5713
   75MOL   H22041808   2.490   0.117   6.603 -0.9573  1.4035  0.5052
   75MOL   H22141809   2.345   0.024   6.621  0.2393 -1.0029 -1.9065
   75MOL   H22241810   2.369   7.407   6.707  0.9109 -1.1357 -0.2655
   75MOL   H22341811   2.515   7.416   6.795  4.1493  1.1535 -1.3781
   75MOL   H22441812   2.504   7.193   6.726  1.8495  0.4725  1.0281
   75MOL   H22541813   2.639   7.269   6.671  0.5504  2.3410  0.1617
   75MOL   O22641814   2.453   0.047   6.793  0.1446  0.2822 -0.0639
   75MOL   C22741815   2.539   0.150   6.834  0.0319  0.2684 -0.5187
   75MOL   C22841816   2.587   0.118   6.975  0.1248  0.3236 -0.0389
   75MOL   O22941817   2.628   7.610   6.969 -0.2227  0.2347  0.8319
   75MOL   C23041818   2.701   0.202   7.030  0.6689  0.0638 -0.1348
   75MOL   C23141819   2.656   0.349   7.055 -0.1403 -0.0735  0.3399
   75MOL   C23241820   2.766   0.424   7.117  0.5026 -0.5749 -0.1827
   75MOL   O23341821   2.719   0.549   7.154 -0.1862  0.0009  0.2022
   75MOL   C23441822   2.890   0.428   7.030 -0.0229 -0.4338 -0.3425
   75MOL   C23541823   3.006   0.513   7.095  0.0065  0.2646  0.8464
   75MOL   C23641824   2.942   0.281   7.013 -0.7318  0.2703 -0.8616
   75MOL   C23741825   2.831   0.196   6.951 -0.0017  0.2896 -0.4462
   75MOL   H23841826   2.486   0.245   6.833 -0.5754 -0.0623  0.0271
   75MOL   H23941827   2.626   0.154   6.768  0.0822  0.0293 -0.4667
   75MOL   H24041828   2.507   0.132   7.048 -0.5661  2.5003 -1.1691
   75MOL   H24141829   2.567   7.557   6.921  0.8179 -0.6732  0.4969
   75MOL   H24241830   2.717   0.161   7.129  0.9775  2.5803  0.8943
   75MOL   H24341831   2.635   0.403   6.962 -0.7765 -0.6607  0.1365
   75MOL   H24441832   2.574   0.354   7.127 -1.2241  3.0061 -0.9995
   75MOL   H24541833   2.796   0.370   7.207  0.1119  0.9192  0.8838
   75MOL   H24641834   2.704   0.599   7.074  0.3047  0.7923  0.6007
   75MOL   H24741835   2.870   0.477   6.935  0.1120 -0.5903 -0.4506
   75MOL   H24841836   2.970   0.610   7.127  0.5183  0.5103  0.6875
   75MOL   H24941837   3.044   0.466   7.186 -0.9880  0.1692  1.2136
   75MOL   H25041838   2.974   0.238   7.108  1.4870  2.1766 -0.7155
   75MOL   H25141839   3.032   0.280   6.952 -0.8486  0.9681 -1.0525
   75MOL   H25241840   2.864   0.096   6.926 -2.2382 -0.7674  0.7228
   75MOL   H25341841   2.812   0.240   6.853 -1.0874 -0.1272 -0.4294
   75MOL   O25441842   3.109   0.517   6.992 -0.2597 -0.0326  0.3551
   75MOL   C25541843   3.217   0.605   7.014  0.7532  0.0014 -0.2870
   75MOL   C25641844   3.324   0.603   6.904  1.1140 -0.5604 -0.3585
   75MOL   O25741845   3.429   0.517   6.925  0.5127 -0.8287  0.0411
   75MOL   C25841846   3.278   0.582   6.759  1.0126  0.2695 -0.0775
   75MOL   C25941847   3.186   0.690   6.712  0.2355 -0.3006 -0.4401
   75MOL   C26041848   3.140   0.687   6.566 -0.1672  0.2375 -0.2826
   75MOL   O26141849   3.013   0.748   6.550  0.2039 -0.3033  0.0473
   75MOL   C26241850   3.117   0.544   6.511  0.2982  0.4809 -0.4681
   75MOL   C26341851   3.096   0.539   6.356 -0.4660 -0.0567 -0.5995
   75MOL   C26441852   3.227   0.441   6.557  0.3278 -0.5117  0.0079
   75MOL   C26541853   3.233   0.443   6.712 -0.0105 -0.2469 -0.5350
   75MOL   H26641854   3.263   0.576   7.108  0.7342  0.8255 -0.0194
   75MOL   H26741855   3.172   0.702   7.035  3.1627  0.3097  3.9054
   75MOL   H26841856   3.378   0.697   6.914  1.3235 -0.7938  0.7878
   75MOL   H26941857   3.398   0.450   6.985  0.3913 -1.0430 -0.2602
   75MOL   H27041858   3.367   0.610   6.703  1.6344 -0.9634  0.2910
   75MOL   H27141859   3.105   0.675   6.783  0.0341 -0.9756 -0.8033
   75MOL   H27241860   3.228   0.789   6.729  0.7407 -0.9856  2.5306
   75MOL   H27341861   3.218   0.727   6.501  3.1422  0.5076  3.6643
   75MOL   H27441862   3.032   0.840   6.565  0.0591  0.0492 -1.8394
   75MOL   H27541863   3.017   0.517   6.545  0.4816  0.5730  0.1541
   75MOL   H27641864   3.037   0.627   6.331  0.5977  1.0085  0.5924
   75MOL   H27741865   3.191   0.548   6.303  0.1430  2.4671  0.8653
   75MOL   H27841866   3.323   0.469   6.513 -0.0476 -2.9073 -2.4707
   75MOL   H27941867   3.207   0.340   6.522 -0.2727 -0.7719  1.0905
   75MOL   H28041868   3.304   0.371   6.753  0.9110  1.1164  0.3232
   75MOL   H28141869   3.132   0.424   6.749  0.4374  0.0389  0.8919
   75MOL   O28241870   3.052   0.413   6.311 -0.3988  0.0083 -0.0995
   75MOL   C28341871   2.908   0.383   6.323 -0.2427 -0.4099  0.0357
   75MOL   C28441872   2.894   0.235   6.290 -0.1933 -0.1697  0.2478
   75MOL   O28541873   2.923   0.217   6.158  0.5440  0.0884 -0.6253
   75MOL   C28641874   2.967   0.127   6.374  0.2738  0.6028  0.3184
   75MOL   C28741875   2.930   7.613   6.324 -0.1914 -0.2158  0.3360
   75MOL   C28841876   3.008   7.502   6.387 -0.1589  0.3972  0.3803
   75MOL   O28941877   2.980   7.376   6.332  0.1563  0.2978 -0.0549
   75MOL   C29041878   2.978   7.505   6.541 -0.3721  0.0045  0.1442
   75MOL   C29141879   3.066   7.402   6.623  0.4943 -0.8498  0.2277
   75MOL   C29241880   3.007   0.009   6.603  0.7939 -0.3479 -0.3086
   75MOL   C29341881   2.937   0.131   6.527  0.4429 -0.8703  0.5077
   75MOL   H29441882   2.852   0.446   6.253  0.5883  0.5932  0.2581
   75MOL   H29541883   2.869   0.404   6.422  3.0898  2.2475  0.9029
   75MOL   H29641884   2.786   0.222   6.302 -0.3345  0.1063 -0.6432
   75MOL   H29741885   3.014   0.240   6.144  1.2312 -1.1293  1.5897
   75MOL   H29841886   3.075   0.136   6.370  0.2592  0.9630  0.6063
   75MOL   H29941887   2.827   7.578   6.336 -0.5182  0.4438 -0.5143
   75MOL   H30041888   2.955   7.607   6.218 -0.7195 -1.7619  0.2961
   75MOL   H30141889   3.115   7.510   6.369  0.0315  1.5443  1.9361
   75MOL   H30241890   3.039   7.315   6.374  1.2345  1.9107  0.8210
   75MOL   H30341891   2.872   7.478   6.542 -0.6723  1.1147 -1.2994
   75MOL   H30441892   3.090   7.308   6.574  0.0769 -1.2306  0.7465
   75MOL   H30541893   3.165   7.447   6.626  0.4770 -0.8685  1.0230
   75MOL   H30641894   3.111   0.039   6.614  0.9471 -1.2180  0.6237
   75MOL   H30741895   2.967   0.005   6.704 -1.9571 -2.0474 -1.4151
   75MOL   H30841896   2.966   0.229   6.565  0.1618 -0.0597 -1.3378
   75MOL   H30941897   2.828   0.134   6.531  0.4888 -0.2809  1.5760
   75MOL   O31041898   3.011   7.387   6.756 -0.6869 -0.1138 -0.5288
   75MOL   C31141899   2.924   7.270   6.756  0.4807  0.7726  0.3501
   75MOL   C31241900   2.844   7.264   6.895 -0.5603  0.7651  0.5402
   75MOL   O31341901   2.777   7.146   6.883  0.2220 -0.5928 -0.1649
   75MOL   C31441902   2.924   7.277   7.023 -0.1577  0.6548  0.9958
   75MOL   C31541903   2.944   7.422   7.069 -0.9409  0.1292  0.5340
   75MOL   C31641904   3.023   7.432   7.205  0.4425  0.0568 -1.4859
   75MOL   O31741905   3.043   7.562   7.243  0.2593 -0.3652  0.3209
   75MOL   C31841906   3.155   7.352   7.201 -0.0310 -0.3631  0.1789
   75MOL   C31941907   3.223   7.353   7.343  0.3276 -0.3383 -0.2932
   75MOL   C32041908   3.127   7.201   7.162  0.0603  0.4229 -0.2311
   75MOL   C32141909   3.056   7.196   7.032 -0.0447  0.0844 -0.2409
   75MOL   H32241910   2.987   7.183   6.741  0.3545  0.8313 -0.5496
   75MOL   H32341911   2.865   7.266   6.664  2.3244  0.7346 -0.8403
   75MOL   H32441912   2.761   7.335   6.884 -2.7724 -1.7683  0.5238
   75MOL   H32541913   2.723   7.130   6.958 -0.9895  1.3907 -0.5664
   75MOL   H32641914   2.860   7.234   7.100 -1.1418 -0.5260 -0.4546
   75MOL   H32741915   2.993   7.480   6.992  0.4289  0.3238  1.5169
   75MOL   H32841916   2.853   7.480   7.083 -0.9080  0.6207 -1.1809
   75MOL   H32941917   2.950   7.401   7.280  0.8694  0.8076 -0.7487
   75MOL   H33041918   2.971   7.584   7.299 -1.3403 -2.7070 -0.7159
   75MOL   H33141919   3.215   7.395   7.121  0.7237 -2.0009 -0.1575
   75MOL   H33241920   3.242   7.452   7.384 -1.7056  0.5647 -1.4899
   75MOL   H33341921   3.150   7.313   7.414  0.0738 -0.3280 -0.5474
   75MOL   H33441922   3.073   7.154   7.244 -2.8567  1.4652 -1.4806
   75MOL   H33541923   3.222   7.148   7.148  1.1195  1.5596  2.2577
   75MOL   H33641924   3.031   7.092   7.013 -2.5166  0.5092  0.4705
   75MOL   H33741925   3.123   7.231   6.953  0.3385 -1.0678 -0.4348
   75MOL   O33841926   3.343   7.290   7.326 -0.3342  0.3056  0.0953
   75MOL   C33941927   3.369   7.189   7.418 -0.1364  0.0755  0.0226
   75MOL   C34041928   3.380   7.241   7.566 -0.2126  1.1092  0.1398
   75MOL   O34141929   3.402   7.140   0.038  0.5131  0.7701  0.7021
   75MOL   C34241930   3.482   7.354   7.587  0.2281  0.3044 -0.3938
   75MOL   C34341931   3.623   7.317   7.551 -0.0217  0.0025  0.2312
   75MOL   C34441932   3.715   7.445   7.570  0.6861 -0.1702 -0.7369
   75MOL   O34541933   3.845   7.389   7.555 -0.4713 -0.4404  0.4786
   75MOL   C34641934   3.702   7.509   0.082  0.0664 -0.2854 -0.0190
   75MOL   C34741935   3.781   0.009   0.096  0.4807 -0.2378  0.0703
   75MOL   C34841936   3.554   7.534   0.109  0.4696 -0.5235 -0.1172
   75MOL   C34941937   3.476   7.407   0.095  0.5589  0.4964  0.2892
   75MOL   H35041938   3.453   7.132   7.379  0.1097  0.3704  0.1151
   75MOL   H35141939   3.280   7.126   7.412 -0.3312  0.2401  1.0513
   75MOL   H35241940   3.286   7.292   7.588  1.2232  2.8620  2.4548
   75MOL   H35341941   3.343   7.068   0.029  0.3326  0.8321  1.3286
   75MOL   H35441942   3.453   7.431   7.515 -4.1826 -0.5280  0.3304
   75MOL   H35541943   3.657   7.225   7.598 -0.7925 -0.0976  0.6057
   75MOL   H35641944   3.638   7.299   7.445  1.6140 -0.4265  0.5293
   75MOL   H35741945   3.694   7.520   7.493  1.5724  0.7802 -0.0803
   75MOL   H35841946   3.865   7.373   7.464 -0.9309  2.3543 -0.1742
   75MOL   H35941947   3.728   7.438   0.161  2.2643 -1.7455 -1.9871
   75MOL   H36041948   3.886   0.012   0.066  1.0841  2.2666  2.2367
   75MOL   H36141949   3.745   0.083   0.024  1.4571 -0.1759 -0.3659
   75MOL   H36241950   3.520   7.606   0.034  0.8212 -1.4451 -1.1873
   75MOL   H36341951   3.543   7.585   0.204  0.2110 -0.1547 -0.3434
   75MOL   H36441952   3.370   7.435   0.100  0.5469  0.6125 -0.5008
   75MOL   H36541953   3.485   7.336   0.177  1.0333 -0.5431 -0.6485
   75MOL   O36641954   3.758   0.057   0.226  0.0895  0.3083  0.2495
   75MOL   C36741955   3.810   0.183   0.258 -0.2100 -0.1905  0.7595
   75MOL   C36841956   3.785   0.210   0.408 -0.1370 -0.0222 -0.4376
   75MOL   O36941957   3.647   0.218   0.420 -0.6196 -0.1505  0.1776
   75MOL   C37041958   3.842   0.116   0.511 -0.0141  0.5372  0.1121
   75MOL   C37141959   3.790   7.601   0.513 -0.6452  0.0228  0.0362
   75MOL   C37241960   3.871   7.518   0.616  1.0223 -0.5621  0.1153
   75MOL   O37341961   3.814   7.390   0.611  0.1432  0.5370 -0.5650
   75MOL   C37441962   3.864   7.580   0.764 -0.2020 -0.0734  0.6075
   75MOL   C37541963   3.957   7.499   0.854 -0.5569  0.0600  0.5233
   75MOL   C37641964   3.917   0.086   0.747 -0.8165  0.4858  0.2124
   75MOL   C37741965   3.848   0.181   0.650 -0.4036  0.2495 -0.3588
   75MOL   H37841966   3.769   0.262   0.195  1.1318 -3.0134 -3.8626
   75MOL   H37941967   3.917   0.198   0.240 -0.7900 -0.2591 -3.0813
   75MOL   H38041968   3.841   0.303   0.423  0.8637 -0.8270  0.8613
   75MOL   H38141969   3.616   0.149   0.364 -0.0539 -0.1515 -0.1441
   75MOL   H38241970   3.946   0.106   0.480  1.2970  2.2985  3.6930
   75MOL   H38341971   3.687   7.597   0.549 -1.1245  0.5594 -1.2431
   75MOL   H38441972   3.779   7.542   0.422  0.3775 -1.3849  0.8162
   75MOL   H38541973   3.976   7.519   0.589  0.9938 -0.1633  0.0107
   75MOL   H38641974   3.845   7.343   0.687 -1.3646 -1.1083 -0.9104
   75MOL   H38741975   3.758   7.571   0.785 -0.6472  0.4851 -1.2310
   75MOL   H38841976   3.926   7.395   0.852 -0.1288 -0.0856  1.3233
   75MOL   H38941977   4.060   7.494   0.820 -1.0692  1.1097 -1.2390
   75MOL   H39041978   4.021   0.077   0.715 -0.1676  2.2215  1.7320
   75MOL   H39141979   3.907   0.147   0.837 -1.1317  1.7384 -0.6614
   75MOL   H39241980   3.890   0.281   0.663  1.5535 -0.5686 -0.1338
   75MOL   H39341981   3.745   0.177   0.685 -0.0033 -2.5358  0.6704
   75MOL   O39441982   3.939   7.540   0.987 -0.0105  0.6915  0.4627
   75MOL   C39541983   3.830   7.476   1.055  0.1418  0.0777  0.1308
   75MOL   C39641984   3.780   7.574   1.166  0.0199  0.0140  0.3101
   75MOL   O39741985   3.706   0.042   1.097  0.2868  0.3688 -0.3601
   75MOL   C39841986   3.692   7.500   1.270  0.3636  0.1490  0.5745
   75MOL   C39941987   3.609   7.605   1.354  0.0908  0.6957  0.3567
   75MOL   C40041988   3.524   7.544   1.467 -0.8920  0.7153  0.0474
   75MOL   O40141989   3.449   0.012   1.540  0.4019  0.2563  0.6470
   75MOL   C40241990   3.615   7.452   1.566  0.2561  0.9389 -0.1618
   75MOL   C40341991   3.519   7.400   1.669  0.4005  0.7515 -0.3527
   75MOL   C40441992   3.683   7.337   1.482 -0.6023  0.4392 -0.4852
   75MOL   C40541993   3.766   7.410   1.368 -0.0651 -0.5722 -0.1271
   75MOL   H40641994   3.868   7.382   1.094 -2.0354 -0.1711  1.7402
   75MOL   H40741995   3.740   7.452   1.000 -1.8667  1.6919  2.5538
   75MOL   H40841996   3.863   7.629   1.210  0.4412  0.4685 -1.0341
   75MOL   H40941997   3.771   0.104   1.068  0.4205 -0.1251 -1.0987
   75MOL   H41041998   3.633   7.431   1.211  1.5571  0.7795 -1.4023
   75MOL   H41141999   3.674   0.047   1.403 -1.3475  0.0393  3.3202
   75MOL   H41242000   3.545   0.032   1.286 -0.6709 -0.2122  0.3057
   75MOL   H41342001   3.446   7.486   1.419 -2.0970  2.1481  0.2236
   75MOL   H41442002   3.506   0.080   1.574 -1.1106  0.5420  2.6875
   75MOL   H41542003   3.696   7.515   1.602  0.3748  0.4082  0.5131
   75MOL   H41642004   3.464   7.473   1.729  0.6722 -0.1769  1.0556
   75MOL   H41742005   3.433   7.351   1.624 -2.1807  1.9329  3.1036
   75MOL   H41842006   3.612   7.277   1.425 -0.1522 -1.7080  1.1586
   75MOL   H41942007   3.753   7.279   1.541 -2.7665 -2.6036 -0.7940
   75MOL   H42042008   3.815   7.336   1.304  0.7642  1.2189 -1.6350
   75MOL   H42142009   3.846   7.460   1.423 -1.4823  0.5471  0.9536
   75MOL   O42242010   3.587   7.318   1.773 -0.2240  0.8097  0.0001
   75MOL   C42342011   3.680   7.390   1.853  0.1847  0.0134 -0.1073
   75MOL   C42442012   3.765   7.320   1.960 -0.2563  0.3856 -0.0728
   75MOL   O42542013   3.833   7.422   2.040 -0.2909  0.2335 -1.3181
   75MOL   C42642014   3.688   7.223   2.059  0.0295  1.0861 -0.3259
   75MOL   C42742015   3.646   7.090   1.995 -0.6849 -0.5504 -0.0043
   75MOL   C42842016   3.616   6.983   2.103  0.0398  0.3357 -0.4800
   75MOL   O42942017   3.588   6.861   2.033  0.0580 -0.1966 -0.4603
   75MOL   C43042018   3.497   7.030   2.191  0.6036 -0.3187 -0.2530
   75MOL   C43142019   3.471   6.937   2.305 -0.1547  0.1447 -0.3788
   75MOL   C43242020   3.503   7.180   2.230  0.3184 -0.7299  0.8234
   75MOL   C43342021   3.557   7.275   2.128 -0.1490  0.1540 -0.3490
   75MOL   H43442022   3.618   7.461   1.909 -0.6327 -0.0602 -0.9218
   75MOL   H43542023   3.747   7.443   1.786  1.3188 -0.1568  0.8712
   75MOL   H43642024   3.838   7.270   1.895  0.2556  0.0294  0.7670
   75MOL   H43742025   3.904   7.466   1.995  1.2885 -0.6390  0.2840
   75MOL   H43842026   3.753   7.207   2.145  0.9477  0.3261 -1.1394
   75MOL   H43942027   3.564   7.096   1.923  0.3427 -1.7612 -1.2820
   75MOL   H44042028   3.728   7.055   1.932 -0.0424  4.0604 -1.9043
   75MOL   H44142029   3.706   6.969   2.162 -1.3267  1.2865  1.9203
   75MOL   H44242030   3.643   6.855   1.956  1.0710 -3.9883  0.4730
   75MOL   H44342031   3.414   7.014   2.122 -1.0963 -1.3274  1.9426
   75MOL   H44442032   3.470   6.831   2.281  1.6088  0.2517 -1.0015
   75MOL   H44542033   3.551   6.953   2.378 -0.2398  1.7031 -0.6017
   75MOL   H44642034   3.565   7.177   2.320 -0.3001 -1.8026  1.2193
   75MOL   H44742035   3.408   7.218   2.267  0.5141  0.4771  0.1098
   75MOL   H44842036   3.580   7.372   2.171 -1.4811 -0.1394  1.0700
   75MOL   H44942037   3.486   7.298   2.049  0.3129 -3.4364 -1.9150
   75MOL   O45042038   3.348   6.971   2.364  0.4492  0.5296 -0.4074
   75MOL   C45142039   3.296   6.891   2.465  0.0758 -0.2726 -0.6109
   75MOL   C45242040   3.141   6.918   2.493 -0.5155 -0.7886 -0.4237
   75MOL   O45342041   3.067   6.854   2.391  0.3295 -0.3504 -0.0277
   75MOL   C45442042   3.090   6.870   2.631  0.6354  0.3308 -0.2585
   75MOL   C45542043   2.936   6.873   2.644 -0.2222  0.4102 -0.4279
   75MOL   C45642044   2.889   6.811   2.777  1.1000  0.6430 -0.1794
   75MOL   O45742045   2.743   6.817   2.777  0.0490 -0.8205 -0.4268
   75MOL   C45842046   2.949   6.890   2.897 -1.3556  0.5482 -0.3619
   75MOL   C45942047   2.894   6.837   3.029  0.3048  0.3830  0.5295
   75MOL   C46042048   3.105   6.884   2.886 -0.3817 -0.4410 -0.4669
   75MOL   C46142049   3.156   6.952   2.752 -0.2276 -0.4037 -0.9721
   75MOL   H46242050   3.345   6.894   2.562 -2.4605  1.5359  0.6725
   75MOL   H46342051   3.319   6.789   2.434 -2.8249 -0.9264 -0.7477
   75MOL   H46442052   3.119   7.025   2.484  1.0016 -0.2635  1.6478
   75MOL   H46542053   3.103   6.879   2.307 -1.1385  2.2174  0.0728
   75MOL   H46642054   3.119   6.766   2.640  0.7276  0.4443  0.7857
   75MOL   H46742055   2.900   6.974   2.625 -0.1488  0.2733 -1.2710
   75MOL   H46842056   2.895   6.807   2.569 -1.9268  0.3224  0.5476
   75MOL   H46942057   2.915   6.707   2.791 -0.4753  0.1999 -0.4128
   75MOL   H47042058   2.724   6.854   2.692  0.1161 -1.0942 -0.5617
   75MOL   H47142059   2.907   6.990   2.882  1.7082  1.5444 -2.8215
   75MOL   H47242060   2.785   6.843   3.036  0.3322 -0.6174  1.9093
   75MOL   H47342061   2.917   6.732   3.044  2.0788  0.3933 -1.8600
   75MOL   H47442062   3.138   6.782   2.906  1.2786  0.1862  0.1659
   75MOL   H47542063   3.143   6.944   2.969 -2.7731 -1.0154  1.0935
   75MOL   H47642064   3.264   6.959   2.743 -0.2018 -0.0740 -0.3861
   75MOL   H47742065   3.126   7.056   2.744  0.6261 -0.1254 -0.6005
   75MOL   O47842066   2.959   6.918   3.126 -0.0883  0.1490 -0.3214
   75MOL   C47942067   2.919   6.879   3.256  0.2720  0.3379 -0.0302
   75MOL   C48042068   2.945   6.996   3.358  0.7717  0.7871  0.2071
   75MOL   O48142069   2.826   7.076   3.358 -0.2459 -0.3538  0.1431
   75MOL   C48242070   2.979   6.970   3.508  0.2046  0.2204  0.1914
   75MOL   C48342071   3.130   6.954   3.531 -0.6000  0.6341  0.0225
   75MOL   C48442072   3.163   6.931   3.678 -0.0297 -0.1501  0.6732
   75MOL   O48542073   3.299   6.915   3.688  0.0504  0.3457 -0.2781
   75MOL   C48642074   3.088   6.813   3.743 -0.3056 -0.0502  0.7318
   75MOL   C48742075   3.112   6.810   3.896  0.5708  0.3924  0.1119
   75MOL   C48842076   2.944   6.832   3.712 -0.2643 -0.8029  0.5538
   75MOL   C48942077   2.914   6.848   3.561  0.3500  0.9932 -0.3602
   75MOL   H49042078   2.971   6.788   3.285  0.5997  0.7959  0.8173
   75MOL   H49142079   2.813   6.853   3.256 -0.0245  1.3864  2.8872
   75MOL   H49242080   3.027   7.058   3.322  2.2764 -0.0501  2.0759
   75MOL   H49342081   2.826   7.130   3.280 -3.5723 -1.1306 -0.4661
   75MOL   H49442082   2.952   7.057   3.568  0.1503  0.6902 -0.5013
   75MOL   H49542083   3.174   6.867   3.482 -0.8103 -0.0423  1.0056
   75MOL   H49642084   3.189   7.039   3.497  3.0510 -1.2906  1.2947
   75MOL   H49742085   3.138   7.022   3.732  0.1177 -1.6646  3.3340
   75MOL   H49842086   3.331   6.894   3.775  1.2803  0.2065 -0.7616
   75MOL   H49942087   3.123   6.717   3.703  0.7127  0.6321 -0.0357
   75MOL   H50042088   3.210   6.768   3.919 -0.5525 -2.3739  0.0442
   75MOL   H50142089   3.105   6.910   3.940 -1.1750 -0.9756  3.1017
   75MOL   H50242090   2.888   6.904   3.772  0.8527  0.0314  0.6199
   75MOL   H50342091   2.882   6.744   3.726 -1.8250 -0.2272 -2.4364
   75MOL   H50442092   2.808   6.868   3.544  0.6874  1.6999 -1.7293
   75MOL   H50542093   2.948   6.759   3.507  2.0317  1.4325 -0.0616
   75MOL   O50642094   3.008   6.728   3.953  0.5771  0.5065  0.2726
   75MOL   C50742095   3.021   6.734   4.096  0.1993 -0.2935 -0.5190
   75MOL   C50842096   2.922   6.626   4.167 -0.1631 -0.9929  0.0068
   75MOL   O50942097   2.966   6.615   4.298  0.2562 -0.2844  0.4879
   75MOL   C51042098   2.775   6.673   4.168  0.5739  0.0525  0.1348
   75MOL   C51142099   2.684   6.602   4.268 -0.5385  0.3293 -0.8824
   75MOL   C51242100   2.546   6.670   4.282 -0.0587 -0.4503  0.4375
   75MOL   O51342101   2.465   6.580   4.354 -0.0381  0.9404 -0.3639
   75MOL   C51442102   2.473   6.683   4.144  0.5209  0.6476  0.1707
   75MOL   C51542103   2.360   6.774   4.159  0.2282  0.1097 -0.4369
   75MOL   C51642104   2.570   6.730   4.033  0.1196 -0.6193 -0.1022
   75MOL   C51742105   2.706   6.663   4.031  0.0787 -0.3963 -0.5014
   75MOL   H51842106   2.992   6.834   4.128  1.9958  0.0403  0.1196
   75MOL   H51942107   3.124   6.712   4.122  0.2027 -0.0657 -0.3317
   75MOL   H52042108   2.934   6.527   4.121  1.7820 -1.2562  1.0369
   75MOL   H52142109   2.923   6.688   4.340 -0.8909 -0.5892 -0.1300
   75MOL   H52242110   2.766   6.777   4.200  0.6951  0.2348 -0.4238
   75MOL   H52342111   2.671   6.496   4.247 -0.8502  0.0577  0.6184
   75MOL   H52442112   2.735   6.611   4.364  0.1390  1.1955 -1.3134
   75MOL   H52542113   2.556   6.756   4.348  0.6064 -1.3187  1.4755
   75MOL   H52642114   2.372   6.588   4.339 -0.4262  0.5959  1.6860
   75MOL   H52742115   2.440   6.587   4.106 -1.6016  1.3577  0.1887
   75MOL   H52842116   2.387   6.871   4.200 -0.5271  0.0290  0.2625
   75MOL   H52942117   2.310   6.786   4.063  1.4017  0.0238 -1.0659
   75MOL   H53042118   2.586   6.838   4.041 -2.1847 -0.2812  0.2569
   75MOL   H53142119   2.527   6.712   3.935  0.0362 -0.4907 -0.0901
   75MOL   H53242120   2.761   6.720   3.957 -0.1841 -0.1016 -0.4732
   75MOL   H53342121   2.681   6.561   4.002 -0.9613  0.8174 -4.1140
   75MOL   O53442122   2.258   6.715   4.237 -0.0324  0.2381 -0.1090
   75MOL   C53542123   2.154   6.806   4.288 -0.4407 -0.2731  0.3860
   75MOL   C53642124   2.076   6.742   4.413 -0.5810  0.7345  0.1431
   75MOL   O53742125   2.003   6.629   4.372  0.3965  0.1914  0.1825
   75MOL   C53842126   2.170   6.706   4.525  0.4636  0.7410 -0.2785
   75MOL   C53942127   2.112   6.625   4.645 -0.4999 -0.3603 -0.0008
   75MOL   C54042128   2.224   6.571   4.736  0.2166  0.0804 -0.0875
   75MOL   O54142129   2.185   6.473   4.824  0.5033 -0.1107  0.3891
   75MOL   C54242130   2.287   6.691   4.804  0.0523 -0.5140 -0.0880
   75MOL   C54342131   2.375   6.657   4.923 -0.2703  0.3529  0.2849
   75MOL   C54442132   2.357   6.776   4.690 -0.1278 -0.4326 -0.4707
   75MOL   C54542133   2.263   6.828   4.581  0.2124 -0.3089  0.5807
   75MOL   H54642134   2.080   6.828   4.211 -1.4497  1.1432  1.7279
   75MOL   H54742135   2.194   6.900   4.324 -0.3633  0.8650 -2.5440
   75MOL   H54842136   2.005   6.815   4.453 -2.9672 -1.0205 -0.7577
   75MOL   H54942137   2.071   6.567   4.352 -0.0665 -0.7433  1.4436
   75MOL   H55042138   2.243   6.646   4.471  1.0722  1.5332 -0.3381
   75MOL   H55142139   2.044   6.696   4.692  0.0754  1.4336 -1.8277
   75MOL   H55242140   2.042   6.545   4.618  0.3086 -0.4124 -2.0077
   75MOL   H55342141   2.302   6.522   4.677 -0.3110 -0.7706 -0.0833
   75MOL   H55442142   2.207   6.386   4.795 -1.7357 -0.5991  0.0661
   75MOL   H55542143   2.198   6.736   4.849  1.2394 -1.3138  3.1587
   75MOL   H55642144   2.310   6.621   5.002 -0.2568  2.2432  1.1817
   75MOL   H55742145   2.462   6.594   4.904 -0.0035  0.1085  2.2242
   75MOL   H55842146   2.436   6.730   4.631  0.0031 -0.1822 -0.4917
   75MOL   H55942147   2.394   6.864   4.742 -0.1517 -1.1266  0.7224
   75MOL   H56042148   2.330   6.864   4.503  2.1899 -0.3188  2.2420
   75MOL   H56142149   2.205   6.913   4.617  0.0578  0.4464 -1.3858
   75MOL   H56242150   2.414   6.755   4.949  4.0709 -1.5036  1.1753
   76MOL     O142151   6.609   7.176   2.577 -0.2022 -0.0611 -0.0957
   76MOL     C242152   6.670   7.304   2.557  1.0005  0.4806 -0.1575
   76MOL     C342153   6.819   7.284   2.562 -0.3801  0.5428 -0.0738
   76MOL     O442154   6.847   7.207   2.442 -0.0093  0.2227 -0.5913
   76MOL     C542155   6.911   7.410   2.548  0.8574 -0.3091 -0.7594
   76MOL     C642156   7.061   7.373   2.572 -0.1479 -0.1327  0.0188
   76MOL     C742157   7.156   7.490   2.559 -0.3394 -0.0477 -0.3310
   76MOL     O842158   7.290   7.466   2.602  0.3086 -0.0207 -0.2781
   76MOL     C942159   7.116   7.618   2.637  0.4477  0.4046 -0.1250
   76MOL    C1042160   7.203   0.110   2.596  0.4056 -0.6783 -0.2308
   76MOL    C1142161   6.968   0.020   2.605 -0.5473  0.1787 -0.0305
   76MOL    C1242162   6.873   7.529   2.637  0.4886  0.2619  0.2579
   76MOL    H1342163   6.632   7.373   2.632 -0.2660  0.3162 -0.6290
   76MOL    H1442164   6.639   7.333   2.457  0.5927 -0.6979 -0.3767
   76MOL    H1542165   6.845   7.223   2.648 -0.3170  0.8815  0.1464
   76MOL    H1642166   6.914   7.248   2.390  0.7477 -0.2492  0.0040
   76MOL    H1742167   6.907   7.451   2.448 -1.1926  0.2462 -0.4857
   76MOL    H1842168   7.072   7.328   2.670 -1.6192  0.5191  0.5060
   76MOL    H1942169   7.096   7.303   2.496 -0.4982  1.0081 -1.2112
   76MOL    H2042170   7.157   7.528   2.457  0.2362  2.3831  0.5448
   76MOL    H2142171   7.329   7.423   2.527  0.1072  0.1264 -0.4720
   76MOL    H2242172   7.125   7.600   2.745  0.7001 -0.2986 -0.2577
   76MOL    H2342173   7.309   0.090   2.613  0.3528  0.1502  1.0812
   76MOL    H2442174   7.196   0.128   2.488  1.8300  0.9963 -0.0696
   76MOL    H2542175   6.957   0.047   2.500 -1.8787  1.1261  0.3358
   76MOL    H2642176   6.942   0.103   2.671  2.3282 -0.3818  1.8643
   76MOL    H2742177   6.770   7.560   2.620  0.1316 -1.5602 -1.0976
   76MOL    H2842178   6.875   7.507   2.743 -0.0838 -1.1994 -0.0301
   76MOL    H2942179   6.651   7.130   2.506 -0.4526  2.0119 -1.6343
   76MOL    O3042180   7.147   0.225   2.653 -0.5080  0.2574  0.1496
   76MOL    C3142181   7.106   0.328   2.565 -0.4166  0.1324 -0.5430
   76MOL    C3242182   7.208   0.388   2.467 -0.1203  0.1060  0.5339
   76MOL    O3342183   7.139   0.443   2.357  0.4533 -0.6798 -0.2206
   76MOL    C3442184   7.306   0.495   2.536  0.3739 -0.4396  0.6631
   76MOL    C3542185   7.397   0.552   2.426  0.2040 -0.6513 -0.1692
   76MOL    C3642186   7.498   0.654   2.482  0.4598 -0.5170  0.0676
   76MOL    O3742187   7.572   0.689   2.367 -0.3722  0.1569 -0.8436
   76MOL    C3842188   7.582   0.596   2.598  0.0121 -0.2973  0.1118
   76MOL    C3942189   0.067   0.677   2.659  0.0002 -0.1049  0.4444
   76MOL    C4042190   7.492   0.535   2.701  0.3347 -0.0525 -0.6538
   76MOL    C4142191   7.397   0.432   2.642 -0.7028 -0.3774  0.8524
   76MOL    H4242192   7.056   0.415   2.608 -0.5266 -0.0146 -0.3757
   76MOL    H4342193   7.033   0.279   2.502  0.9566  0.5724 -2.5032
   76MOL    H4442194   7.277   0.315   2.424 -0.7077 -0.0367 -0.1942
   76MOL    H4542195   7.080   0.510   2.389  1.6397 -1.1444  3.0140
   76MOL    H4642196   7.246   0.575   2.579  1.9602  0.6800  0.8347
   76MOL    H4742197   7.453   0.470   2.382 -0.3006 -0.8202 -0.5098
   76MOL    H4842198   7.332   0.606   2.356  0.8093  0.2386 -0.0564
   76MOL    H4942199   7.441   0.737   2.524 -0.9702 -2.0143  1.2044
   76MOL    H5042200   7.580   0.783   2.362  0.6844  0.1222 -0.0965
   76MOL    H5142201   0.012   0.511   2.566  2.3755  1.8258 -1.2733
   76MOL    H5242202   0.119   0.603   2.719 -0.5228 -1.2062 -0.4518
   76MOL    H5342203   0.132   0.737   2.595 -1.3509  0.0430 -0.8126
   76MOL    H5442204   7.430   0.601   2.762 -0.9081 -1.3794 -0.4617
   76MOL    H5542205   7.553   0.486   2.776  1.5072 -0.4281 -1.8254
   76MOL    H5642206   7.344   0.398   2.732  2.3224  0.1374  2.9038
   76MOL    H5742207   7.457   0.350   2.602 -0.3717 -0.5255  1.6258
   76MOL    O5842208   7.627   0.774   2.734  0.6076  0.3838 -0.0437
   76MOL    C5942209   0.073   0.826   2.848 -0.6994 -0.3691  0.2171
   76MOL    C6042210   7.610   0.937   2.904 -0.0269 -0.3511 -0.4366
   76MOL    O6142211   7.522   0.884   2.993  0.2984 -0.2375 -0.4314
   76MOL    C6242212   0.051   1.052   2.980 -0.1880  0.2137 -0.5639
   76MOL    C6342213   0.126   0.999   3.109 -0.4437 -0.0604 -0.0683
   76MOL    C6442214   0.198   1.116   3.173  0.0315 -1.0285 -0.0710
   76MOL    O6542215   0.248   1.068   3.296  0.3645 -0.7476  0.3461
   76MOL    C6642216   0.111   1.242   3.207 -0.0710  0.5974  0.0477
   76MOL    C6742217   0.195   1.358   3.264  0.7630 -0.3322  0.0688
   76MOL    C6842218   0.029   1.288   3.089  0.4125 -0.3458  0.0430
   76MOL    C6942219   7.588   1.169   3.013  0.3065 -0.3576 -0.2218
   76MOL    H7042220   0.171   0.866   2.822  0.8548 -3.6399  0.8395
   76MOL    H7142221   0.102   0.752   2.922  1.5341  0.0872 -0.1844
   76MOL    H7242222   7.551   0.985   2.824 -0.0113 -1.0067 -0.8442
   76MOL    H7342223   7.562   0.837   3.063 -0.0410  0.4800  0.2540
   76MOL    H7442224   0.127   1.089   2.911  2.8834 -2.5236  1.2291
   76MOL    H7542225   0.045   0.964   3.173 -0.2599  1.5141  1.0203
   76MOL    H7642226   0.191   0.914   3.089 -3.1919 -2.3490  0.3159
   76MOL    H7742227   0.282   1.139   3.108  1.4759 -3.5245  0.8479
   76MOL    H7842228   0.228   1.135   3.360 -0.3435  1.5268 -2.1917
   76MOL    H7942229   0.032   1.213   3.276  1.2021 -0.4246  1.1200
   76MOL    H8042230   0.280   1.368   3.197 -0.0697 -1.1436 -1.1275
   76MOL    H8142231   0.140   1.452   3.267 -1.0370 -1.3725  0.7278
   76MOL    H8242232   0.084   1.344   3.014  2.7816 -0.1815  1.8722
   76MOL    H8342233   7.587   1.362   3.126  0.0391 -0.3397 -0.6664
   76MOL    H8442234   7.537   1.202   2.922  2.7884  1.1196 -1.1553
   76MOL    H8542235   7.497   1.147   3.068 -0.1190  2.0594  0.1090
   76MOL    O8642236   0.232   1.314   3.392 -0.4562 -0.3676  0.6826
   76MOL    C8742237   0.336   1.390   3.440 -0.6072 -0.2237 -0.1213
   76MOL    C8842238   0.407   1.312   3.551  0.0950 -0.0960  0.7659
   76MOL    O8942239   0.476   1.204   3.483  0.7087  0.0028 -0.3331
   76MOL    C9042240   0.508   1.387   3.637 -0.1688 -0.3187  0.0150
   76MOL    C9142241   0.452   1.504   3.724 -0.4901  0.1724 -0.5044
   76MOL    C9242242   0.570   1.553   3.819  0.3829 -0.1842 -0.3976
   76MOL    O9342243   0.521   1.653   3.902 -0.3465  0.7649 -0.2759
   76MOL    C9442244   0.681   1.606   3.730  0.1595  0.4888  0.4226
   76MOL    C9542245   0.800   1.653   3.801  0.2237  0.0907 -0.2284
   76MOL    C9642246   0.727   1.496   3.629 -0.7618 -0.2827  0.2543
   76MOL    C9742247   0.618   1.445   3.547 -0.2864  0.1214 -0.3221
   76MOL    H9842248   0.288   1.486   3.459  0.4048 -0.0448  1.6943
   76MOL    H9942249   0.407   1.410   3.359  0.8147 -1.9530  0.6473
   76MOL   H10042250   0.337   1.262   3.618  0.2188 -0.8404  0.3449
   76MOL   H10142251   0.420   1.169   3.415 -0.3350 -0.5839  0.8065
   76MOL   H10242252   0.552   1.314   3.706  0.4286 -0.7690 -0.8397
   76MOL   H10342253   0.418   1.580   3.653  0.6259  1.6801  0.5444
   76MOL   H10442254   0.364   1.459   3.770 -0.2117 -1.1039 -1.1922
   76MOL   H10542255   0.601   1.469   3.881  1.1476 -1.3123 -2.2725
   76MOL   H10642256   0.594   1.685   3.952 -0.2752  0.9387 -0.4884
   76MOL   H10742257   0.642   1.690   3.673  2.2823  2.0285  1.1939
   76MOL   H10842258   0.768   1.727   3.875 -0.2621 -1.6042  1.3043
   76MOL   H10942259   0.845   1.580   3.868 -0.3335 -1.1593 -1.2022
   76MOL   H11042260   0.781   1.420   3.685 -1.9261 -1.2286  0.1106
   76MOL   H11142261   0.802   1.538   3.563  0.8199  1.0027  2.7724
   76MOL   H11242262   0.656   1.371   3.477 -0.5351 -1.3812  1.0929
   76MOL   H11342263   0.573   1.522   3.485  0.5700  0.3466 -0.6742
   76MOL   O11442264   0.881   1.724   3.704  0.1903  0.2833 -0.0703
   76MOL   C11542265   1.002   1.765   3.748 -0.0198 -0.0042  0.3984
   76MOL   C11642266   1.073   1.801   3.618  0.1347 -0.3395 -0.3254
   76MOL   O11742267   1.012   1.922   3.569  0.1216 -0.1042  0.1719
   76MOL   C11842268   1.223   1.809   3.637 -0.6125  0.4888  0.1861
   76MOL   C11942269   1.286   1.667   3.644  0.5991  0.2265 -0.7075
   76MOL   C12042270   1.434   1.679   3.633  0.5877 -0.6030 -0.6960
   76MOL   O12142271   1.490   1.547   3.626  0.0669  0.2827 -0.0332
   76MOL   C12242272   1.489   1.774   3.744  0.0789  0.0275 -0.1357
   76MOL   C12342273   1.638   1.796   3.717  0.5155 -0.5194 -0.5508
   76MOL   C12442274   1.416   1.908   3.738  0.5144  0.0931  0.6766
   76MOL   C12542275   1.272   1.889   3.760 -0.3839 -0.1185 -1.1852
   76MOL   H12642276   1.045   1.675   3.792  2.2688  1.3745  1.1024
   76MOL   H12742277   0.998   1.847   3.819  0.3592  1.2785 -1.0327
   76MOL   H12842278   1.044   1.718   3.555  0.4714 -2.4141  2.1817
   76MOL   H12942279   0.949   1.903   3.502  0.9445 -0.3251 -0.5561
   76MOL   H13042280   1.259   1.858   3.546  0.5002  0.1746  0.4536
   76MOL   H13142281   1.256   1.612   3.734  2.4349  0.7818  0.2732
   76MOL   H13242282   1.240   1.607   3.566 -1.0130  0.9990 -0.3771
   76MOL   H13342283   1.441   1.729   3.536 -0.6293 -0.6160 -0.7931
   76MOL   H13442284   1.533   1.517   3.705 -0.4687 -0.0167  0.1430
   76MOL   H13542285   1.474   1.737   3.845 -0.3978 -1.0609 -0.6031
   76MOL   H13642286   1.695   1.716   3.765  2.7000  0.9524 -0.6505
   76MOL   H13742287   1.662   1.797   3.610 -1.9723 -0.5355 -1.1441
   76MOL   H13842288   1.433   1.962   3.645 -1.3648 -2.6058 -1.3216
   76MOL   H13942289   1.460   1.977   3.809 -0.2159  1.6402 -0.3565
   76MOL   H14042290   1.228   1.989   3.758 -0.3243 -0.0590 -0.0472
   76MOL   H14142291   1.246   1.852   3.859 -0.4824 -0.2220 -1.2498
   76MOL   O14242292   1.694   1.915   3.780  0.1791 -0.3661 -0.2834
   76MOL   C14342293   1.834   1.916   3.787 -0.4224 -0.0834  0.5089
   76MOL   C14442294   1.868   1.988   3.925  0.2770  0.9075  0.0604
   76MOL   O14542295   1.806   1.915   4.031 -0.0090 -0.2984  0.4344
   76MOL   C14642296   2.023   2.001   3.961  0.2814  0.3787  0.4041
   76MOL   C14742297   2.097   1.873   3.981  0.0655  0.4850 -0.3747
   76MOL   C14842298   2.249   1.900   4.003 -0.3731 -0.3067 -0.9838
   76MOL   O14942299   2.312   1.779   4.037  0.3857  0.4409 -0.1262
   76MOL   C15042300   2.270   2.003   4.116 -0.5536  1.0738 -0.5308
   76MOL   C15142301   2.421   2.037   4.123 -0.4314 -0.4474  0.4856
   76MOL   C15242302   2.183   2.134   4.102  0.3505  0.1876 -0.0126
   76MOL   C15342303   2.033   2.100   4.076 -0.1447 -0.0747  0.8148
   76MOL   H15442304   1.861   1.971   3.697  2.3663  1.2626  2.0918
   76MOL   H15542305   1.890   1.823   3.781 -1.4184 -0.6278 -0.3282
   76MOL   H15642306   1.827   2.088   3.913  3.0751  2.0062 -0.5447
   76MOL   H15742307   1.712   1.912   4.021 -0.0163  1.5727 -0.2721
   76MOL   H15842308   2.076   2.052   3.882  0.7687 -0.6185  0.0739
   76MOL   H15942309   2.067   1.806   4.062 -0.1987 -0.6048 -1.3545
   76MOL   H16042310   2.075   1.810   3.894  1.2930  0.4144 -0.6404
   76MOL   H16142311   2.296   1.931   3.909 -1.4479  3.8274 -0.2603
   76MOL   H16242312   2.284   1.755   4.124 -3.3678  0.7247 -1.1590
   76MOL   H16342313   2.236   1.956   4.209  1.7487  1.6991  0.6612
   76MOL   H16442314   2.469   1.940   4.107 -3.3453 -1.8335 -0.3559
   76MOL   H16542315   2.452   2.096   4.038  0.5227 -0.9244  0.4907
   76MOL   H16642316   2.221   2.183   4.012  0.6275 -0.9704 -0.5336
   76MOL   H16742317   2.187   2.203   4.186 -3.2673  1.6174 -0.9239
   76MOL   H16842318   1.992   2.195   4.044 -0.3068 -1.1546 -2.3510
   76MOL   H16942319   1.990   2.069   4.171 -2.8426  0.4367 -0.1950
   76MOL   O17042320   2.465   2.091   4.234  0.0078 -0.0822  0.8456
   76MOL   C17142321   2.606   2.128   4.244  0.6513  0.1205  0.8155
   76MOL   C17242322   2.655   2.134   4.387 -0.0295 -0.1800 -0.2370
   76MOL   O17342323   2.702   2.007   4.429 -0.2254 -0.5020 -0.2686
   76MOL   C17442324   2.760   2.244   4.428  0.2116  0.1165  0.2154
   76MOL   C17542325   2.713   2.386   4.403 -0.6861 -0.5766  0.3267
   76MOL   C17642326   2.816   2.488   4.455 -0.0272 -0.5436  0.1737
   76MOL   O17742327   2.759   2.615   4.434 -0.4801 -0.5231 -0.4961
   76MOL   C17842328   2.950   2.479   4.381 -0.4439 -0.0548  0.2436
   76MOL   C17942329   3.054   2.585   4.432  0.3060 -0.6821 -0.8147
   76MOL   C18042330   2.998   2.333   4.392 -0.1341  0.1253 -0.0239
   76MOL   C18142331   2.894   2.224   4.345  0.2259  0.2846  0.2322
   76MOL   H18242332   2.612   2.226   4.197  1.4616 -0.5027 -0.4176
   76MOL   H18342333   2.658   2.061   4.176  1.8147  2.0545 -0.2588
   76MOL   H18442334   2.564   2.153   4.445 -0.9867 -0.2272 -1.7082
   76MOL   H18542335   2.640   1.972   4.491  0.7958  1.6998  2.0728
   76MOL   H18642336   2.780   2.234   4.535 -0.0842  1.1410  0.3647
   76MOL   H18742337   2.692   2.411   4.299 -0.5222 -0.3795  0.3412
   76MOL   H18842338   2.621   2.392   4.461 -0.9698 -1.3799 -0.0330
   76MOL   H18942339   2.834   2.478   4.562 -0.1508 -1.3786  0.1180
   76MOL   H19042340   2.676   2.611   4.478 -0.2229  1.4357  0.2001
   76MOL   H19142341   2.935   2.493   4.274  2.5606 -0.2175 -0.2418
   76MOL   H19242342   3.016   2.687   4.428  0.8867 -0.2840  2.4253
   76MOL   H19342343   3.081   2.569   4.537  0.6677 -0.6668 -0.9081
   76MOL   H19442344   3.012   2.314   4.498 -0.2515  1.1529  0.1860
   76MOL   H19542345   3.090   2.316   4.337 -1.5552 -0.4181 -2.3330
   76MOL   H19642346   2.939   2.125   4.357  1.3123  0.7046 -0.2864
   76MOL   H19742347   2.871   2.239   4.239  2.4682  0.1361 -0.2951
   76MOL   O19842348   3.165   2.577   4.347  0.2148  0.1968 -0.2019
   76MOL   C19942349   3.288   2.548   4.406  0.5131  0.4719 -0.8476
   76MOL   C20042350   3.383   2.477   4.310  0.7728 -0.1706  0.4321
   76MOL   O20142351   3.412   2.577   4.216  0.5198  0.3810  0.3312
   76MOL   C20242352   3.514   2.417   4.373  0.2820  0.3642 -0.4442
   76MOL   C20342353   3.632   2.420   4.274  0.2748  0.8469 -0.0491
   76MOL   C20442354   3.758   2.371   4.342 -0.2572  0.1774 -0.5682
   76MOL   O20542355   3.856   2.374   4.237 -0.0780 -0.3027  0.1933
   76MOL   C20642356   3.734   2.225   4.402  0.7284  0.1674  0.4697
   76MOL   C20742357   3.867   2.170   4.460 -0.5232 -0.0685 -0.5296
   76MOL   C20842358   3.612   2.206   4.499  0.3759 -0.2562  0.1277
   76MOL   C20942359   3.487   2.272   4.422 -0.5158 -0.0976  0.4103
   76MOL   H21042360   3.274   2.478   4.489  1.5754  0.6321 -0.5367
   76MOL   H21142361   3.325   2.641   4.449  3.3618 -0.5376 -1.0270
   76MOL   H21242362   3.334   2.395   4.258  1.4086 -0.2256 -0.0902
   76MOL   H21342363   3.346   2.567   4.149 -1.6168 -1.9877  2.6811
   76MOL   H21442364   3.533   2.474   4.464 -0.9605 -0.6872  0.5114
   76MOL   H21542365   3.606   2.363   4.185  0.2040  1.8014 -0.6498
   76MOL   H21642366   3.635   2.518   4.226 -1.0925  0.8944 -0.0414
   76MOL   H21742367   3.787   2.446   4.416 -2.3097 -0.1770  0.6392
   76MOL   H21842368   3.841   2.461   4.202 -2.2709 -1.4506 -1.9187
   76MOL   H21942369   3.701   2.166   4.316  2.5147 -0.1607 -0.0231
   76MOL   H22042370   3.835   2.067   4.473 -1.5635  0.4369  0.9804
   76MOL   H22142371   3.959   2.178   4.402 -0.3196  4.0066  0.2168
   76MOL   H22242372   3.640   2.256   4.592  2.5380 -1.4241  0.1460
   76MOL   H22342373   3.599   2.105   4.536  1.8576 -0.1505  0.9769
   76MOL   H22442374   3.407   2.253   4.493 -0.0165  0.2205  1.0573
   76MOL   H22542375   3.460   2.218   4.331 -0.2909 -0.7669  0.7386
   76MOL   O22642376   3.892   2.240   4.590  0.2991 -0.4245  0.2289
   76MOL   C22742377   3.987   2.183   4.678 -0.3257 -0.4034 -0.9829
   76MOL   C22842378   3.928   2.055   4.735  0.0415  0.7618 -0.4007
   76MOL   O22942379   4.023   1.957   4.778 -0.1886  0.2799 -0.1824
   76MOL   C23042380   3.813   2.077   4.840 -0.0677  0.0760  0.1243
   76MOL   C23142381   3.866   2.069   4.983 -0.0980 -0.7420  0.0281
   76MOL   C23242382   3.752   2.098   5.088  0.3722  0.3810 -0.1829
   76MOL   O23342383   3.804   2.077   5.224  0.3351  0.0895  0.8499
   76MOL   C23442384   3.631   2.000   5.064 -0.3323 -0.0260  0.2706
   76MOL   C23542385   3.503   2.032   5.151 -0.2183  0.1703  0.4286
   76MOL   C23642386   3.587   1.995   4.915 -0.6514 -0.6484 -0.0637
   76MOL   C23742387   3.703   1.970   4.827 -0.8937  0.4536  0.3635
   76MOL   H23842388   4.004   2.242   4.768  1.4543 -1.1200 -0.8467
   76MOL   H23942389   4.082   2.152   4.635 -0.0828  2.3748 -2.6028
   76MOL   H24042390   3.876   2.005   4.653  1.7584  0.5392 -1.3621
   76MOL   H24142391   4.020   1.884   4.718 -0.3780 -0.9794  1.3250
   76MOL   H24242392   3.763   2.170   4.812  1.8215  0.8458 -0.8426
   76MOL   H24342393   3.903   1.971   5.010  2.9112  0.1807 -0.5688
   76MOL   H24442394   3.946   2.143   4.995 -0.3767 -0.3136 -0.6932
   76MOL   H24542395   3.722   2.203   5.078 -3.1019 -0.6935 -2.0225
   76MOL   H24642396   3.860   2.147   5.253 -0.7725  0.8092  1.2769
   76MOL   H24742397   3.676   1.905   5.091  2.5633  1.2098  0.0218
   76MOL   H24842398   3.533   2.031   5.255  0.3442 -2.5223  0.2711
   76MOL   H24942399   3.468   2.132   5.125 -1.7332 -0.6661 -0.8670
   76MOL   H25042400   3.553   2.093   4.882  0.5494 -0.5247 -0.9849
   76MOL   H25142401   3.509   1.924   4.887 -0.4802 -0.8366 -0.0676
   76MOL   H25242402   3.664   1.968   4.725  0.8972  0.0567 -0.3338
   76MOL   H25342403   3.737   1.867   4.838 -0.0047  0.3106 -2.9535
   76MOL   O25442404   3.393   1.949   5.134  0.2404  0.2965 -0.0388
   76MOL   C25542405   3.411   1.810   5.160  0.0663  0.1851  0.4101
   76MOL   C25642406   3.279   1.752   5.115  0.2585 -0.2856  0.5256
   76MOL   O25742407   3.301   1.614   5.102  1.0122  0.7804  0.1364
   76MOL   C25842408   3.160   1.792   5.202  0.4443 -0.0355  0.3863
   76MOL   C25942409   3.167   1.710   5.341 -0.5702  0.2228  0.3379
   76MOL   C26042410   3.054   1.740   5.438  0.6162 -0.1977  0.2413
   76MOL   O26142411   3.074   1.655   5.544 -0.2226 -0.2003 -0.3092
   76MOL   C26242412   2.911   1.707   5.361 -0.1871 -0.1886 -0.0618
   76MOL   C26342413   2.801   1.745   5.457 -0.0388  0.1036 -0.3516
   76MOL   C26442414   2.907   1.789   5.225  0.0837  0.5981 -0.5217
   76MOL   C26542415   3.029   1.763   5.132  0.4752  0.2127 -0.0450
   76MOL   H26642416   3.427   1.791   5.267 -1.1607  0.2996  0.6193
   76MOL   H26742417   3.493   1.771   5.100  0.6227 -2.1906  2.6034
   76MOL   H26842418   3.261   1.785   5.013  0.2825  2.2473  1.2910
   76MOL   H26942419   3.236   1.574   5.046  0.7023 -2.0773  2.4295
   76MOL   H27042420   3.162   1.897   5.228 -0.8668  0.2643 -0.6709
   76MOL   H27142421   3.179   1.604   5.320  0.2016  0.3469  0.1646
   76MOL   H27242422   3.251   1.746   5.401 -1.0003  0.9859  0.5002
   76MOL   H27342423   3.052   1.846   5.464 -2.1797  0.3435 -1.9451
   76MOL   H27442424   3.065   1.563   5.523  0.1987 -0.6204  1.2804
   76MOL   H27542425   2.907   1.602   5.333  0.2069 -0.5257  1.1012
   76MOL   H27642426   2.845   1.724   5.554  1.5578  1.0702 -0.8594
   76MOL   H27742427   2.781   1.852   5.459  1.1214  0.3166  0.0250
   76MOL   H27842428   2.905   1.895   5.251  1.2683  0.7131 -0.8515
   76MOL   H27942429   2.814   1.765   5.173 -0.5893 -0.4187  1.1134
   76MOL   H28042430   3.026   1.821   5.041 -0.4749  2.1314  1.1758
   76MOL   H28142431   3.026   1.660   5.097  1.0110  0.3349 -0.4426
   76MOL   O28242432   2.683   1.665   5.454  0.2632 -0.6677  0.3725
   76MOL   C28342433   2.599   1.659   5.343 -0.2200 -1.2680 -0.9243
   76MOL   C28442434   2.472   1.589   5.393  0.7995 -0.0633 -0.1019
   76MOL   O28542435   2.492   1.454   5.418 -0.0480  0.4456  0.5199
   76MOL   C28642436   2.401   1.662   5.507  0.0674 -0.0548  0.8180
   76MOL   C28742437   2.436   1.617   5.649  0.7551 -0.6117  0.8817
   76MOL   C28842438   2.386   1.705   5.756  0.4314  0.5062  0.7077
   76MOL   O28942439   2.428   1.659   5.881  0.4177  0.2837 -0.1007
   76MOL   C29042440   2.233   1.701   5.757 -0.0232  0.9992 -0.3428
   76MOL   C29142441   2.179   1.805   5.856  0.0715 -0.3729  0.3779
   76MOL   C29242442   2.175   1.729   5.614 -0.8318 -0.0354  0.1846
   76MOL   C29342443   2.244   1.649   5.501 -0.4494  0.3014 -0.2911
   76MOL   H29442444   2.653   1.600   5.269  1.1686  1.2420 -1.9584
   76MOL   H29542445   2.565   1.754   5.303  2.3303 -0.2065 -0.6389
   76MOL   H29642446   2.405   1.581   5.308 -0.0165 -1.0719  0.6209
   76MOL   H29742447   2.571   1.449   5.469 -0.1424  1.0364  0.7372
   76MOL   H29842448   2.426   1.768   5.504 -0.7449  0.1048 -1.0224
   76MOL   H29942449   2.418   1.511   5.664 -4.6833  0.4780  3.2612
   76MOL   H30042450   2.545   1.619   5.660  0.5726  2.4722  2.9204
   76MOL   H30142451   2.416   1.808   5.738  0.0411  0.7112  1.2103
   76MOL   H30242452   2.519   1.678   5.901  0.1157  1.8953 -0.1338
   76MOL   H30342453   2.193   1.601   5.776 -0.4748  0.6201 -3.0789
   76MOL   H30442454   2.178   1.765   5.958 -0.3324 -1.0833  0.1005
   76MOL   H30542455   2.239   1.895   5.842  1.0753 -0.6607  2.5891
   76MOL   H30642456   2.188   1.833   5.586 -1.2877  0.0358  0.2355
   76MOL   H30742457   2.067   1.714   5.613 -0.8299 -0.0659  0.5953
   76MOL   H30842458   2.211   1.678   5.402  0.8738 -1.3911 -1.2541
   76MOL   H30942459   2.215   1.544   5.502  0.9362 -0.1227 -2.3958
   76MOL   O31042460   2.046   1.846   5.823  0.4752 -0.3563 -0.2137
   76MOL   C31142461   1.938   1.762   5.874 -0.3013 -0.6586 -0.2088
   76MOL   C31242462   1.849   1.855   5.960  0.5082  0.1079  0.2198
   76MOL   O31342463   1.797   1.942   5.855 -0.5175 -0.3578  0.0959
   76MOL   C31442464   1.741   1.787   6.046 -0.3136 -0.2022 -0.3823
   76MOL   C31542465   1.652   1.687   5.963 -0.1682 -0.6892  0.3130
   76MOL   C31642466   1.549   1.620   6.060 -0.3313 -1.1326 -1.1888
   76MOL   O31742467   1.465   1.542   5.975 -0.1488 -0.2843  0.1671
   76MOL   C31842468   1.468   1.721   6.135  0.3256  0.5077 -0.1587
   76MOL   C31942469   1.360   1.662   6.231  0.3521 -0.2680 -0.2976
   76MOL   C32042470   1.561   1.822   6.214  0.2983  1.0331  0.9291
   76MOL   C32142471   1.665   1.885   6.120  0.1504 -0.1365  0.0189
   76MOL   H32242472   1.982   1.688   5.941 -0.5309 -0.9678 -0.3993
   76MOL   H32342473   1.888   1.721   5.786 -3.5088  0.1151  1.1718
   76MOL   H32442474   1.916   1.915   6.021 -0.5423  0.9773  0.5318
   76MOL   H32542475   1.858   1.949   5.783 -2.1202 -2.7309 -1.5608
   76MOL   H32642476   1.785   1.716   6.117 -0.6104  0.6359  0.6450
   76MOL   H32742477   1.604   1.743   5.882  2.7235  1.2294 -0.1294
   76MOL   H32842478   1.722   1.627   5.905 -0.1092  1.5698 -2.0687
   76MOL   H32942479   1.601   1.555   6.130  0.5910 -0.6147 -1.3832
   76MOL   H33042480   1.509   1.459   5.966 -2.0672 -1.3820  0.8099
   76MOL   H33142481   1.408   1.775   6.062 -0.1110 -1.9264 -1.6565
   76MOL   H33242482   1.281   1.731   6.258  1.3668  0.8627 -0.1654
   76MOL   H33342483   1.298   1.587   6.183  0.4870  0.7872 -2.1332
   76MOL   H33442484   1.609   1.758   6.288  0.6462  0.3957  0.1636
   76MOL   H33542485   1.501   1.900   6.260 -0.6037  2.1815 -2.0948
   76MOL   H33642486   1.734   1.943   6.182  0.6858 -0.2941 -0.4275
   76MOL   H33742487   1.619   1.966   6.062 -1.0661 -0.9599 -0.1802
   76MOL   O33842488   1.428   1.617   6.351 -0.1165 -0.1241 -0.0398
   76MOL   C33942489   1.334   1.585   6.453  0.7206  0.3456  0.5931
   76MOL   C34042490   1.404   1.612   6.586 -0.4632  0.1159  0.4330
   76MOL   O34142491   1.428   1.752   6.586 -0.3245  0.6481  0.7525
   76MOL   C34242492   1.331   1.561   6.715  1.0235 -0.5412 -0.0729
   76MOL   C34342493   1.405   1.592   6.845 -0.2285 -0.6892  0.3679
   76MOL   C34442494   1.340   1.539   6.972 -0.7794  0.0160 -0.5832
   76MOL   O34542495   1.410   1.578   7.096 -0.1863 -0.2765 -0.0824
   76MOL   C34642496   1.347   1.387   6.959  0.0518 -0.1397 -0.6590
   76MOL   C34742497   1.301   1.308   7.087 -0.2365  0.0810  0.0490
   76MOL   C34842498   1.269   1.344   6.838  0.3462  0.9871 -0.6148
   76MOL   C34942499   1.318   1.406   6.711 -0.4254  0.2775 -0.4482
   76MOL   H35042500   1.310   1.479   6.448 -1.2693  0.7168  1.8891
   76MOL   H35142501   1.238   1.634   6.439  0.5323 -0.0082  0.6365
   76MOL   H35242502   1.502   1.565   6.582  0.0474  1.0421  1.5255
   76MOL   H35342503   1.469   1.775   6.504 -2.7362 -2.3421 -1.4074
   76MOL   H35442504   1.231   1.601   6.726  1.2731 -0.2276  1.1427
   76MOL   H35542505   1.508   1.557   6.852  0.8276  2.1639 -0.1562
   76MOL   H35642506   1.414   1.700   6.857  1.4996 -0.8691  0.8775
   76MOL   H35742507   1.239   1.574   6.993 -0.6459 -0.2231  0.4751
   76MOL   H35842508   1.486   1.523   7.111 -0.6357 -1.7044 -2.7037
   76MOL   H35942509   1.447   1.346   6.943 -0.0072 -1.2257  1.5346
   76MOL   H36042510   1.380   1.313   7.163  1.2757  1.5032 -1.5611
   76MOL   H36142511   1.211   1.345   7.136  1.9310  3.2427  1.8928
   76MOL   H36242512   1.164   1.370   6.846  0.2428  0.3766  0.0900
   76MOL   H36342513   1.287   1.239   6.815 -1.2056  0.7881 -0.9199
   76MOL   H36442514   1.254   1.369   6.630 -0.6861  0.1315 -0.1749
   76MOL   H36542515   1.415   1.360   6.689 -1.5885 -2.4930  0.0145
   76MOL   O36642516   1.297   1.167   7.063 -0.0760 -0.1405  0.1544
   76MOL   C36742517   1.244   1.095   7.172 -0.4446 -0.5212  0.0680
   76MOL   C36842518   1.234   0.949   7.116  0.0610 -0.7204  0.6860
   76MOL   O36942519   1.260   0.863   7.228  0.1457 -0.6354 -0.1166
   76MOL   C37042520   1.095   0.925   7.043  1.0034  0.1280 -0.0283
   76MOL   C37142521   0.972   0.951   7.143 -0.3600 -0.2192 -0.3760
   76MOL   C37242522   0.837   0.925   7.071  0.3831 -0.1836  0.1546
   76MOL   O37342523   0.736   0.938   7.159 -0.1307  0.1933 -0.1538
   76MOL   C37442524   0.825   0.785   6.997 -0.8486 -0.0369 -0.2360
   76MOL   C37542525   0.695   0.752   6.914 -0.1672 -0.1934 -0.1560
   76MOL   C37642526   0.948   0.763   6.910 -0.6414 -0.0691 -0.6118
   76MOL   C37742527   1.078   0.784   6.991 -0.1726  0.2507 -0.5511
   76MOL   H37842528   1.157   1.144   7.216  0.7474  1.2961  0.4814
   76MOL   H37942529   1.314   1.104   7.256  0.1296 -0.4907 -0.4072
   76MOL   H38042530   1.309   0.937   7.038 -0.1370 -2.4780  0.7560
   76MOL   H38142531   1.276   0.774   7.200 -1.3557 -0.4267 -1.6997
   76MOL   H38242532   1.080   1.001   6.967  0.0405 -0.6624 -0.6359
   76MOL   H38342533   0.977   0.875   7.221  3.3918 -1.9541 -2.1888
   76MOL   H38442534   0.970   1.050   7.188  2.2333 -0.2646 -0.0692
   76MOL   H38542535   0.820   1.006   7.000  0.6329 -0.1228  0.1655
   76MOL   H38642536   0.737   1.027   7.191  2.1678 -0.0255  0.4282
   76MOL   H38742537   0.811   0.712   7.077 -1.3647 -0.0704 -0.3536
   76MOL   H38842538   0.602   0.780   6.963 -0.5503  0.1064 -1.0533
   76MOL   H38942539   0.700   0.813   6.824 -0.5619  2.5494  1.6198
   76MOL   H39042540   0.946   0.827   6.822 -0.5541  0.0165 -0.5505
   76MOL   H39142541   0.953   0.660   6.874 -1.2096 -0.6812  1.0327
   76MOL   H39242542   1.165   0.778   6.925  0.0786 -0.9546 -0.1362
   76MOL   H39342543   1.096   0.716   7.074  1.2799  2.0545  0.6315
   76MOL   O39442544   0.694   0.615   6.867 -0.2146 -0.0317 -0.3203
   76MOL   C39542545   0.626   0.517   6.954  0.5911 -1.1927  0.5475
   76MOL   C39642546   0.609   0.385   6.873 -0.3948 -0.1026 -0.1327
   76MOL   O39742547   0.739   0.371   6.818  0.2345  0.1104  0.3700
   76MOL   C39842548   0.582   0.257   6.960  1.0951 -0.0948 -0.4361
   76MOL   C39942549   0.568   0.139   6.875 -0.4281  0.1485  0.6964
   76MOL   C40042550   0.553   0.008   6.958 -0.7480  0.2302  0.1469
   76MOL   O40142551   0.553   7.527   6.870  0.1568 -0.1607 -0.3833
   76MOL   C40242552   0.439   0.006   7.058  0.2989 -0.3659  0.1861
   76MOL   C40342553   0.431   7.509   7.145 -0.0774 -0.5532 -0.2987
   76MOL   C40442554   0.435   0.141   7.141 -0.2494  0.1940  0.1548
   76MOL   C40542555   0.468   0.267   7.062  0.6090 -0.1054 -0.0918
   76MOL   H40642556   0.541   0.556   7.010 -0.2570 -0.9632 -0.8845
   76MOL   H40742557   0.698   0.522   7.036 -0.6216  0.2482  1.5447
   76MOL   H40842558   0.546   0.400   6.785  1.0913 -0.4696 -1.2940
   76MOL   H40942559   0.762   0.461   6.800 -0.5696  0.3267  0.4081
   76MOL   H41042560   0.673   0.236   7.016 -0.2324 -1.8605  1.1487
   76MOL   H41142561   0.494   0.153   6.796  2.3230 -0.9662 -2.1814
   76MOL   H41242562   0.665   0.127   6.827 -0.8919 -3.2648  0.5172
   76MOL   H41342563   0.648   7.629   7.012  0.1512  0.6610 -1.3341
   76MOL   H41442564   0.524   7.446   6.911  1.2404 -0.1208  0.5059
   76MOL   H41542565   0.341   0.004   7.009 -0.8929  0.0385  2.4895
   76MOL   H41642566   0.519   7.497   7.208  0.7778  1.0547 -1.1412
   76MOL   H41742567   0.351   7.524   7.217  1.3506 -0.2541  1.2522
   76MOL   H41842568   0.526   0.130   7.200 -1.0641 -0.0036  1.3863
   76MOL   H41942569   0.344   0.153   7.200 -0.7221 -0.2742 -0.4708
   76MOL   H42042570   0.477   0.353   7.128 -1.8241  0.3723 -0.3463
   76MOL   H42142571   0.379   0.300   7.008  1.2752  2.3924  0.2425
   76MOL   O42242572   0.405   7.396   7.067  0.0819 -0.5671 -0.3691
   76MOL   C42342573   0.353   7.288   7.148 -0.5118 -0.3791 -0.1626
   76MOL   C42442574   0.317   7.169   7.061  0.2592  0.0056  0.5578
   76MOL   O42542575   0.431   7.083   7.042  0.2431  0.3477 -0.4175
   76MOL   C42642576   0.201   7.090   7.122  0.0498  0.1991  0.1176
   76MOL   C42742577   0.223   7.059   7.273  0.0854  0.1183 -0.2324
   76MOL   C42842578   0.119   6.958   7.331 -0.9088  0.2048 -0.1761
   76MOL   O42942579   0.144   6.947   7.466 -0.0018  0.1930  0.5288
   76MOL   C43042580   0.105   6.829   7.246 -0.2914  1.0730  0.5769
   76MOL   C43142581   7.629   6.723   7.301 -0.6195  0.0211  0.0388
   76MOL   C43242582   0.077   6.864   7.101  0.4679 -0.4477 -0.8935
   76MOL   C43342583   0.173   6.961   7.039  0.0305 -0.3322 -0.3052
   76MOL   H43442584   0.267   7.330   7.200 -0.6160  1.4883 -1.7715
   76MOL   H43542585   0.435   7.267   7.217  0.7943  2.6527 -0.7303
   76MOL   H43642586   0.287   7.203   6.962  0.7299 -3.4135 -0.8290
   76MOL   H43742587   0.457   7.037   7.121 -2.2754 -1.3093 -0.4993
   76MOL   H43842588   0.115   7.155   7.109  0.2117  0.3459 -0.2261
   76MOL   H43942589   0.320   7.010   7.279 -0.2580 -0.4362  0.9073
   76MOL   H44042590   0.236   7.150   7.333  1.2320  0.1618 -0.5280
   76MOL   H44142591   0.030   7.020   7.331 -1.7232 -0.9500  0.4589
   76MOL   H44242592   0.227   6.901   7.470 -0.2880 -0.8613 -3.2787
   76MOL   H44342593   0.203   6.782   7.249 -1.3641 -1.1980  1.0156
   76MOL   H44442594   7.620   6.735   7.409 -0.7101 -3.5448  0.4892
   76MOL   H44542595   7.528   6.739   7.263 -0.6666  2.5070  1.1324
   76MOL   H44642596   7.610   6.914   7.095  0.4786 -0.1952  0.6618
   76MOL   H44742597   0.071   6.776   7.038  0.0856 -0.0524 -1.4134
   76MOL   H44842598   0.141   6.976   6.936  1.2831 -2.7842 -1.0868
   76MOL   H44942599   0.269   6.909   7.040  1.3107  1.9301 -1.3714
   76MOL   O45042600   0.068   6.597   7.267  0.1910 -0.8367 -0.2064
   76MOL   C45142601   0.046   6.504   7.370 -0.3014  0.6469  0.3476
   76MOL   C45242602   0.117   6.374   7.335 -0.6385  0.3944  0.5898
   76MOL   O45342603   0.256   6.404   7.359  0.4686 -0.0538 -0.8986
   76MOL   C45442604   0.090   6.252   7.429 -0.1249 -0.2494  0.2899
   76MOL   C45542605   0.147   6.123   7.365  0.4443 -0.1711 -0.1295
   76MOL   C45642606   0.136   6.010   7.471 -0.8922 -0.2522  0.5394
   76MOL   O45742607   0.188   5.904   7.395  0.2607 -0.4323  0.3085
   76MOL   C45842608   7.616   5.990   7.510  0.0818  0.0080  0.4751
   76MOL   C45942609   7.593   5.882   7.621  0.2120  0.2714 -0.5335
   76MOL   C46042610   7.552   6.120   7.557 -0.2615  0.1380  0.0056
   76MOL   C46142611   7.566   6.231   7.463 -0.0363 -0.0864 -0.1492
   76MOL   H46242612   7.568   6.492   7.384 -0.1702  0.7570  1.4758
   76MOL   H46342613   0.075   6.550   7.464 -2.8903 -0.3198  1.6849
   76MOL   H46442614   0.102   6.355   7.229 -3.0540  0.3434  0.9064
   76MOL   H46542615   0.263   6.492   7.327  0.2208  0.6020  0.8034
   76MOL   H46642616   0.142   6.272   7.523  1.3622  1.6579 -0.9096
   76MOL   H46742617   0.095   6.091   7.274  1.5610 -0.0697 -0.8056
   76MOL   H46842618   0.246   6.130   7.321  0.4499 -0.0307 -0.0925
   76MOL   H46942619   0.207   6.021   7.553  0.8286 -3.0573 -0.4845
   76MOL   H47042620   0.213   5.839   7.459 -2.7594 -0.2850  1.7491
   76MOL   H47142621   7.561   5.963   7.419  1.8652  2.6980 -1.4585
   76MOL   H47242622   0.003   5.788   7.583  0.3437 -0.1963  0.7626
   76MOL   H47342623   0.021   5.904   0.081 -2.2229  0.1211  1.0999
   76MOL   H47442624   7.587   6.162   0.021  2.7785 -2.5641  0.1811
   76MOL   H47542625   7.445   6.107   7.571 -0.2846  1.4622  1.1163
   76MOL   H47642626   7.510   6.314   7.505 -1.1940  0.8956 -3.4937
   76MOL   H47742627   7.520   6.203   7.368 -1.7244  1.2238  0.2690
   76MOL   O47842628   7.462   5.862   0.035  0.2595 -0.3528 -0.4676
   76MOL   C47942629   7.430   5.730   0.085 -0.3398  0.0792  1.0778
   76MOL   C48042630   7.520   5.692   0.200 -0.7343 -0.2693 -0.4672
   76MOL   O48142631   7.495   5.778   0.305  0.8096  0.3058  0.7742
   76MOL   C48242632   7.494   5.547   0.262  0.1144  0.3461  0.2796
   76MOL   C48342633   7.582   5.514   0.383  0.0093 -0.4781 -0.4021
   76MOL   C48442634   7.559   5.378   0.441 -0.3353 -0.1802 -0.5834
   76MOL   O48542635   0.020   5.346   0.544  0.3082  0.4781  0.6671
   76MOL   C48642636   7.582   5.265   0.333  0.4122  0.0151 -0.2605
   76MOL   C48742637   7.555   5.121   0.385  0.1804 -0.7478 -0.4691
   76MOL   C48842638   7.504   5.297   0.202  0.4227  0.1352  0.2211
   76MOL   C48942639   7.532   5.433   0.153 -0.0132  0.3633  0.4852
   76MOL   H49042640   7.430   5.666   7.627 -3.1238 -0.4486  1.4193
   76MOL   H49142641   7.323   5.735   0.105 -1.1423 -2.7146 -2.1335
   76MOL   H49242642   7.620   5.699   0.157 -0.3286 -1.5303  0.2175
   76MOL   H49342643   7.428   5.839   0.279 -0.6960 -1.4419  0.5216
   76MOL   H49442644   7.389   5.546   0.291  0.4273  2.7859  1.5961
   76MOL   H49542645   0.054   5.515   0.343 -0.2872 -2.4039 -1.3057
   76MOL   H49642646   7.571   5.594   0.456 -0.6857  0.6388 -1.7148
   76MOL   H49742647   7.458   5.369   0.479 -0.2977 -2.6051 -1.0210
   76MOL   H49842648   7.618   5.268   0.587 -0.8499  1.5842  1.8443
   76MOL   H49942649   0.058   5.279   0.307  1.2245 -2.7796  1.3206
   76MOL   H50042650   7.627   5.084   0.458  1.0725 -2.0529 -1.9748
   76MOL   H50142651   7.456   5.126   0.431 -1.1758  0.1394 -3.3519
   76MOL   H50242652   7.395   5.292   0.211  0.3292  0.8360 -0.4811
   76MOL   H50342653   7.534   5.223   0.128 -0.0670  0.1649 -0.0149
   76MOL   H50442654   7.474   5.461   0.065  0.4490 -0.3108 -0.0331
   76MOL   H50542655   0.010   5.439   0.136 -0.2094 -0.7636 -1.2333
   76MOL   O50642656   7.549   5.033   0.278 -0.0250  0.0342  0.6861
   76MOL   C50742657   7.528   4.897   0.295 -0.6185 -0.0394  0.4092
   76MOL   C50842658   0.035   4.827   0.304  0.8584  0.2515  0.1257
   76MOL   O50942659   0.073   4.782   0.435  0.1311  0.6542 -0.2206
   76MOL   C51042660   0.044   4.720   0.196 -0.5509 -0.2598 -0.1197
   76MOL   C51142661   7.590   4.585   0.217 -0.3603 -0.2040  0.2559
   76MOL   C51242662   7.588   4.502   0.086 -0.0281 -0.1335  0.7193
   76MOL   O51342663   7.515   4.385   0.117 -0.4094 -0.2136  0.6543
   76MOL   C51442664   0.107   4.466   0.046  0.8428 -0.1674  0.0414
   76MOL   C51542665   0.119   4.392   7.542 -0.0170  0.5319  0.3747
   76MOL   C51642666   0.187   4.598   0.036  0.2061 -0.4038 -0.1946
   76MOL   C51742667   0.182   4.683   0.159 -0.0051 -0.3265 -0.7647
   76MOL   H51842668   7.478   4.866   0.203  0.9760 -2.1319  0.2093
   76MOL   H51942669   7.466   4.867   0.379 -1.2097  0.1496  0.0455
   76MOL   H52042670   0.106   4.905   0.276 -0.1037  0.7844 -0.8653
   76MOL   H52142671   0.043   4.844   0.500 -0.2177 -0.9833  1.2061
   76MOL   H52242672   0.002   4.766   0.107 -2.1545  2.8763  2.1884
   76MOL   H52342673   0.014   4.519   0.287  0.0954 -1.6796 -1.4565
   76MOL   H52442674   7.489   4.594   0.257 -0.7721  0.8847 -1.0036
   76MOL   H52542675   7.540   4.549   7.629  4.1759 -0.2191 -1.8541
   76MOL   H52642676   7.427   4.402   0.148 -1.0769 -0.2812 -1.1324
   76MOL   H52742677   0.154   4.409   0.126 -2.7855 -1.4052  1.3821
   76MOL   H52842678   0.064   4.300   7.564 -1.1135  0.7961 -1.2154
   76MOL   H52942679   0.073   4.447   7.460  2.8437  1.9436 -0.3736
   76MOL   H53042680   0.143   4.653   7.582  0.3872  1.5382  0.9454
   76MOL   H53142681   0.293   4.582   0.016  0.5221  0.7349  0.5226
   76MOL   H53242682   0.237   4.775   0.138  0.2328  0.0295  1.2709
   76MOL   H53342683   0.230   4.642   0.248 -2.1173 -0.8559  0.1771
   76MOL   O53442684   0.253   4.363   7.505 -0.1648  0.0224 -0.3025
   76MOL   C53542685   0.272   4.309   7.374  0.1246 -0.3945  0.0342
   76MOL   C53642686   0.407   4.358   7.319 -1.0606  0.0699  0.0545
   76MOL   O53742687   0.434   4.277   7.208 -0.0398  0.0136 -0.2826
   76MOL   C53842688   0.430   4.501   7.269  0.0422 -0.1398  0.4025
   76MOL   C53942689   0.425   4.608   7.376  0.6945  0.1732 -0.4403
   76MOL   C54042690   0.453   4.748   7.328  0.7754  0.1529  0.2758
   76MOL   O54142691   0.422   4.844   7.435 -0.3002  0.0133 -0.4155
   76MOL   C54242692   0.363   4.793   7.208 -0.1360  0.4030  0.5259
   76MOL   C54342693   0.413   4.927   7.143  0.7724 -0.7137  0.1833
   76MOL   C54442694   0.360   4.683   7.093  0.2902 -0.3166 -0.1835
   76MOL   C54542695   0.339   4.538   7.147 -0.1176 -0.2624 -0.7358
   76MOL   H54642696   0.179   4.327   7.320 -0.0719 -2.4489 -0.3802
   76MOL   H54742697   0.275   4.201   7.391  0.3266 -0.1933  1.3446
   76MOL   H54842698   0.492   4.340   7.385 -1.5289 -0.4454  0.5255
   76MOL   H54942699   0.401   4.191   7.231 -2.0735  0.7233 -0.4248
   76MOL   H55042700   0.534   4.507   7.236 -0.0164 -1.4035 -0.0397
   76MOL   H55142701   0.326   4.603   7.421  0.0892 -2.1825 -1.9266
   76MOL   H55242702   0.498   4.578   7.452 -1.6806 -0.8581  1.5033
   76MOL   H55342703   0.557   4.753   7.297  0.9842 -3.3712  0.1986
   76MOL   H55442704   0.339   4.815   7.467  0.0684  0.6404  1.1632
   76MOL   H55542705   0.260   4.806   7.242  0.3224  0.1551  2.0494
   76MOL   H55642706   0.502   4.898   7.087  0.0196 -0.5098 -1.1249
   76MOL   H55742707   0.346   4.996   7.093  1.6493 -0.9486 -1.3454
   76MOL   H55842708   0.456   4.692   7.041  0.4979  0.9195  0.4003
   76MOL   H55942709   0.284   4.702   7.017  1.6050 -2.0545 -1.9988
   76MOL   H56042710   0.373   4.477   7.064  1.4537  0.3019 -0.5174
   76MOL   H56142711   0.232   4.518   7.163  0.0347 -0.7648 -0.3012
   76MOL   H56242712   0.462   4.989   7.218  1.0865 -0.7032 -0.0296
   77MOL     O142713   4.460   0.943   3.917  0.0488 -0.1309  0.1222
   77MOL     C242714   4.341   0.955   4.003  0.6617  0.1075  0.3245
   77MOL     C342715   4.344   0.868   4.132 -0.0283  0.2085 -0.3180
   77MOL     O442716   4.241   0.913   4.217  0.3405 -0.4931  1.0177
   77MOL     C542717   4.311   0.720   4.107 -0.5357 -0.0336  0.0848
   77MOL     C642718   4.166   0.676   4.077 -0.0693  0.7196  0.2483
   77MOL     C742719   4.134   0.525   4.093  0.3387  0.3634  0.6176
   77MOL     O842720   3.992   0.520   4.085  0.2108 -0.1371  0.0131
   77MOL     C942721   4.189   0.457   4.213 -0.3777 -0.0458 -0.3341
   77MOL    C1042722   4.163   0.307   4.215 -0.0494  0.4426  0.2724
   77MOL    C1142723   4.342   0.482   4.225  0.3353 -0.6327 -0.4958
   77MOL    C1242724   4.371   0.631   4.227 -0.2281 -0.0378  0.5160
   77MOL    H1342725   4.253   0.918   3.951  0.4787 -0.2965  0.9103
   77MOL    H1442726   4.325   1.055   4.044  0.3742 -0.8251  2.6192
   77MOL    H1542727   4.441   0.884   4.179  0.7099 -0.6657 -1.5069
   77MOL    H1642728   4.245   1.007   4.214  0.0403 -0.5484 -2.8289
   77MOL    H1742729   4.375   0.679   4.029  0.2582 -0.4568  0.9432
   77MOL    H1842730   4.099   0.733   4.141 -0.0496  1.1475 -0.1104
   77MOL    H1942731   4.142   0.714   3.978 -2.0091  1.5968  1.0348
   77MOL    H2042732   4.171   0.477   4.002 -4.3783 -0.3756 -1.0609
   77MOL    H2142733   3.956   0.543   4.169  1.7532  0.9349  0.4054
   77MOL    H2242734   4.169   0.507   4.308 -0.5442  1.9216 -1.3762
   77MOL    H2342735   4.231   0.266   4.290  0.7438 -1.7827 -1.6014
   77MOL    H2442736   4.063   0.272   4.242  0.0298 -0.1525 -0.1904
   77MOL    H2542737   4.382   0.438   4.134 -0.1371  1.3976 -1.7146
   77MOL    H2642738   4.397   0.440   4.309  0.7054  0.9063  0.0570
   77MOL    H2742739   4.475   0.651   4.203 -0.7222 -2.3450 -4.2448
   77MOL    H2842740   4.366   0.673   4.327  0.5781  1.9080 -0.2354
   77MOL    H2942741   4.452   0.863   3.867  1.2869  0.6728 -1.4288
   77MOL    O3042742   4.219   0.260   4.094 -0.2480 -0.1503 -0.1993
   77MOL    C3142743   4.285   0.135   4.105  0.0477  0.4980  0.1527
   77MOL    C3242744   4.280   0.052   3.982  0.3737  1.0490 -1.1056
   77MOL    O3342745   4.326   0.127   3.868 -0.0730  0.2469 -0.4676
   77MOL    C3442746   4.341   7.541   3.988  0.0444 -0.3463 -0.5066
   77MOL    C3542747   4.308   7.464   3.861  0.9264 -0.1301  0.0387
   77MOL    C3642748   4.374   7.323   3.870  0.5155  0.5118  0.1310
   77MOL    O3742749   4.339   7.250   3.747  0.3453 -0.3543 -0.1234
   77MOL    C3842750   4.317   7.239   3.988 -0.3481 -0.1031  1.4984
   77MOL    C3942751   4.372   7.095   4.000  0.0455 -0.2159 -0.3212
   77MOL    C4042752   4.338   7.316   4.123 -0.1423 -0.2293  0.4511
   77MOL    C4142753   4.292   7.463   4.118 -0.2696 -0.6575  0.0199
   77MOL    H4242754   4.230   0.081   4.182  0.1340  1.1919  0.7047
   77MOL    H4342755   4.388   0.144   4.140  0.2108 -0.7601  0.0158
   77MOL    H4442756   4.173   0.036   3.969  0.3481 -1.0789  1.2574
   77MOL    H4542757   4.260   0.195   3.866 -0.6597 -0.3099 -0.3570
   77MOL    H4642758   4.449   7.536   3.996  0.0879 -1.1673 -1.5068
   77MOL    H4742759   4.200   7.452   3.852  1.1356 -1.7594 -0.4536
   77MOL    H4842760   4.346   7.506   3.768  1.4162  0.6882  0.6038
   77MOL    H4942761   4.483   7.320   3.866  0.4507 -1.1103 -2.2756
   77MOL    H5042762   4.337   7.303   3.669  1.0755 -1.5455 -0.9492
   77MOL    H5142763   4.208   7.245   3.982 -0.2079  0.9060 -0.2376
   77MOL    H5242764   4.352   7.049   3.904  0.9847  0.8813 -1.0606
   77MOL    H5342765   4.479   7.095   4.019 -0.1863  1.1952  1.0894
   77MOL    H5442766   4.446   7.319   4.140 -0.0420  1.4150 -0.3400
   77MOL    H5542767   4.283   7.270   4.205  0.7062 -0.1016  1.1014
   77MOL    H5642768   4.337   7.505   4.208 -0.9784  0.6080 -0.2018
   77MOL    H5742769   4.183   7.469   4.124 -0.1565  0.3600  1.1721
   77MOL    O5842770   4.312   7.030   4.106  0.5618 -0.0875  0.4827
   77MOL    C5942771   4.373   6.901   4.135  0.5487 -0.6282 -0.2507
   77MOL    C6042772   4.280   6.793   4.069 -0.8849 -0.1809  0.7906
   77MOL    O6142773   4.362   6.730   3.977 -0.3746  0.2246  0.1421
   77MOL    C6242774   4.226   6.690   4.179  0.5455  0.0131 -0.4254
   77MOL    C6342775   4.131   6.588   4.112 -1.1729  0.0940 -0.0404
   77MOL    C6442776   4.070   6.486   4.206  0.3182 -0.3092 -0.1456
   77MOL    O6542777   3.989   6.413   4.116 -0.0914  0.0836  0.0020
   77MOL    C6642778   3.992   6.552   4.319  0.4300 -0.0198  0.6365
   77MOL    C6742779   3.928   6.457   4.420  0.2649 -0.2075  1.0353
   77MOL    C6842780   4.074   6.660   4.393 -0.3204 -0.0032 -0.1122
   77MOL    C6942781   4.149   6.759   4.297 -0.4990 -0.0109  0.1152
   77MOL    H7042782   4.367   6.905   4.244 -1.7107 -0.7646 -0.3371
   77MOL    H7142783   4.478   6.900   4.109  0.1287  0.0794 -2.0101
   77MOL    H7242784   4.202   6.848   4.017 -0.0366 -0.1367 -0.4439
   77MOL    H7342785   4.373   6.795   3.909 -0.2296 -0.9627 -0.9870
   77MOL    H7442786   4.305   6.628   4.221 -1.2955 -2.4693 -0.4977
   77MOL    H7542787   4.047   6.645   4.074 -1.9426 -0.7259  0.3911
   77MOL    H7642788   4.177   6.542   4.025  3.0217  2.1950  0.9249
   77MOL    H7742789   4.149   6.418   4.240  1.3101  1.6383  1.5490
   77MOL    H7842790   3.956   6.346   4.173 -1.4634  2.0473  1.5965
   77MOL    H7942791   3.907   6.612   4.288  1.6392  0.6645 -1.4500
   77MOL    H8042792   4.017   6.402   4.449 -0.7052 -2.5989 -0.4055
   77MOL    H8142793   3.882   6.513   4.502  0.3799  2.1744 -0.4727
   77MOL    H8242794   4.147   6.609   4.456 -2.4628 -2.0673  0.7965
   77MOL    H8342795   4.003   6.716   4.454 -0.3185  1.6173 -1.5620
   77MOL    H8442796   4.214   6.818   4.360 -1.1961 -1.3361  2.1277
   77MOL    H8542797   4.089   6.839   4.254  0.5324  0.4934 -0.4064
   77MOL    O8642798   3.838   6.373   4.351 -0.6060  0.2654 -0.0363
   77MOL    C8742799   3.811   6.254   4.413  0.1127 -0.0222  0.1376
   77MOL    C8842800   3.777   6.165   4.297 -0.1536  0.8029 -0.6723
   77MOL    O8942801   3.899   6.124   4.244  0.2214 -0.2366  0.6414
   77MOL    C9042802   3.692   6.040   4.332  0.1924 -0.2779  0.1134
   77MOL    C9142803   3.654   5.961   4.202  0.5594 -0.3631 -0.0535
   77MOL    C9242804   3.570   5.838   4.227  0.7633  0.6150  0.1116
   77MOL    O9342805   3.527   5.793   4.101 -0.1812  0.0772 -0.0537
   77MOL    C9442806   3.444   5.874   4.308  0.5572 -0.5097  0.0870
   77MOL    C9542807   3.359   5.755   4.335  0.1428 -0.2226 -0.5574
   77MOL    C9642808   3.469   5.947   4.442 -0.4446  0.2610  0.3111
   77MOL    C9742809   3.565   6.064   4.416  0.1532 -0.2549  0.5765
   77MOL    H9842810   3.730   6.286   4.479  1.7166  0.6316  1.8120
   77MOL    H9942811   3.886   6.202   4.473 -1.2491  0.5447  2.3848
   77MOL   H10042812   3.737   6.230   4.218 -0.7702  0.3531 -0.7361
   77MOL   H10142813   3.933   6.061   4.306 -0.5160 -0.8312  0.4429
   77MOL   H10242814   3.755   5.979   4.397  0.5154  0.6155  0.6386
   77MOL   H10342815   3.592   6.034   4.149  2.0070  1.0171  0.1002
   77MOL   H10442816   3.738   5.937   4.137  0.1558 -0.7106 -0.4527
   77MOL   H10542817   3.626   5.761   4.281 -0.8627 -0.4733  0.2945
   77MOL   H10642818   3.453   5.844   4.070  0.5671  0.4801 -1.1891
   77MOL   H10742819   3.380   5.937   4.246 -0.0968 -1.2542  0.0056
   77MOL   H10842820   3.377   5.683   4.255 -2.9170 -0.2473 -1.2882
   77MOL   H10942821   3.404   5.697   4.416  1.6350  1.3526 -0.2299
   77MOL   H11042822   3.508   5.882   4.521 -0.4249  1.0509  0.9586
   77MOL   H11142823   3.378   5.991   4.482 -0.9223 -1.0772  0.7432
   77MOL   H11242824   3.591   6.118   4.507  1.4509 -0.8923  0.5977
   77MOL   H11342825   3.512   6.146   4.369  1.7449  1.2029  1.2595
   77MOL   O11442826   3.231   5.793   4.351  0.0688  0.2587 -0.1018
   77MOL   C11542827   3.137   5.697   4.392 -0.0892 -0.4106 -0.2233
   77MOL   C11642828   3.014   5.766   4.436  0.0444  0.4543 -1.0603
   77MOL   O11742829   3.051   5.831   4.559  0.2404 -0.4894 -0.3511
   77MOL   C11842830   2.943   5.850   4.321 -0.3686  0.6977  0.0288
   77MOL   C11942831   2.826   5.941   4.368  0.1938  0.0447  0.2641
   77MOL   C12042832   2.783   6.046   4.258  0.0783 -0.1088 -0.2028
   77MOL   O12142833   2.677   6.117   4.312 -0.6121 -0.0756  0.2866
   77MOL   C12242834   2.744   5.980   4.120  0.5619 -0.9273 -0.8913
   77MOL   C12342835   2.706   6.079   4.005  0.1304  0.9337 -0.0247
   77MOL   C12442836   2.854   5.879   4.082 -0.4818 -0.2871  0.2763
   77MOL   C12542837   2.902   5.778   4.194 -0.1757  0.1392 -0.1421
   77MOL   H12642838   3.173   5.628   4.469 -1.2891  0.3398  1.0266
   77MOL   H12742839   3.119   5.624   4.313  2.4651 -0.1307 -1.1300
   77MOL   H12842840   2.944   5.684   4.452  1.4039 -0.4426  0.5109
   77MOL   H12942841   3.135   5.871   4.544 -0.7322  1.7052 -0.1516
   77MOL   H13042842   3.016   5.928   4.300  0.2227  0.8544  2.5056
   77MOL   H13142843   2.739   5.881   4.395 -0.5804  0.2932 -1.6338
   77MOL   H13242844   2.870   5.989   4.456 -1.0176 -0.3727  1.1022
   77MOL   H13342845   2.857   6.126   4.254  0.3129 -0.2703  0.7149
   77MOL   H13442846   2.646   6.192   4.264 -1.6526 -0.6447  0.0579
   77MOL   H13542847   2.652   5.925   4.142  0.1951 -0.1461 -0.4621
   77MOL   H13642848   2.653   6.029   3.924 -1.7158  0.3802  1.5100
   77MOL   H13742849   2.641   6.162   4.032 -0.8296  0.7864 -1.8204
   77MOL   H13842850   2.942   5.932   4.046 -1.2367  0.9564  0.2515
   77MOL   H13942851   2.818   5.831   3.991  0.6562 -1.1683  0.2726
   77MOL   H14042852   2.987   5.731   4.144  1.1280  3.3374 -1.0872
   77MOL   H14142853   2.821   5.707   4.211  1.7373 -2.1620 -0.4726
   77MOL   O14242854   2.819   6.121   3.931 -0.4680  0.5295  0.0686
   77MOL   C14342855   2.870   6.244   3.972 -0.2109 -0.0304  0.2284
   77MOL   C14442856   2.977   6.289   3.872 -0.3082  0.3450 -0.0916
   77MOL   O14542857   3.061   6.395   3.921 -0.1270 -0.1330 -0.6795
   77MOL   C14642858   3.072   6.170   3.831  1.1794  0.6334 -1.0096
   77MOL   C14742859   3.164   6.118   3.943 -0.2820 -0.0722 -0.0787
   77MOL   C14842860   3.242   6.000   3.899  0.1444 -0.2777  0.1320
   77MOL   O14942861   3.316   5.939   3.999 -0.4101 -0.1232 -0.4372
   77MOL   C15042862   3.339   6.042   3.785  0.3080 -0.2976  0.1993
   77MOL   C15142863   3.424   5.921   3.737 -0.1637  0.2443  0.9962
   77MOL   C15242864   3.274   6.111   3.669  0.2075  0.4319 -0.4110
   77MOL   C15342865   3.155   6.214   3.713  0.0752 -0.4112  0.1700
   77MOL   H15442866   2.920   6.239   4.069 -0.6795 -1.3092  0.4153
   77MOL   H15542867   2.790   6.315   3.990  1.4299  1.6073  1.2177
   77MOL   H15642868   2.930   6.333   3.783  1.5085  0.9166 -0.7951
   77MOL   H15742869   3.022   6.479   3.904  1.3544  0.6799 -0.1286
   77MOL   H15842870   3.019   6.081   3.800  3.3730 -0.5256 -1.5305
   77MOL   H15942871   3.242   6.189   3.970  0.2490 -1.4701  2.1673
   77MOL   H16042872   3.112   6.090   4.034 -1.0590 -1.1324 -0.8432
   77MOL   H16142873   3.183   5.918   3.857  0.7822 -1.2914  1.1808
   77MOL   H16242874   3.261   5.863   4.014 -0.5073 -0.0430 -0.3893
   77MOL   H16342875   3.407   6.119   3.819  0.0827  2.2759 -4.6944
   77MOL   H16442876   3.487   5.892   3.820  0.5517 -1.3455 -0.0791
   77MOL   H16542877   3.364   5.833   3.712  0.1652  0.3777 -0.2993
   77MOL   H16642878   3.238   6.042   3.593  0.7444 -1.0162  0.6398
   77MOL   H16742879   3.351   6.174   3.623  0.5010 -0.3357 -0.9821
   77MOL   H16842880   3.083   6.223   3.632  0.4638  0.7600 -0.0554
   77MOL   H16942881   3.200   6.311   3.733  0.1303 -0.5778  0.8770
   77MOL   O17042882   3.494   5.957   3.621 -0.2484  0.1059 -0.0738
   77MOL   C17142883   3.559   5.839   3.562 -0.3044 -0.0383 -0.0457
   77MOL   C17242884   3.633   5.882   3.430  0.1028  0.1990  0.1031
   77MOL   O17342885   3.679   5.758   3.379  0.7911 -0.1365 -0.3154
   77MOL   C17442886   3.534   5.949   3.335 -0.7836 -0.3988 -0.3465
   77MOL   C17542887   3.425   5.863   3.269  0.3307 -1.2108  0.3394
   77MOL   C17642888   3.345   5.952   3.172 -0.2270  0.1432  0.4312
   77MOL   O17742889   3.235   5.870   3.127 -0.2567  0.2977 -0.1354
   77MOL   C17842890   3.435   5.998   3.053  0.1164 -0.6164 -0.0403
   77MOL   C17942891   3.359   6.075   2.937 -0.3702  0.1616  0.5273
   77MOL   C18042892   3.545   6.091   3.112  0.0414  0.0265 -0.0527
   77MOL   C18142893   3.621   6.014   3.221  1.0575  0.5136 -0.2067
   77MOL   H18242894   3.490   5.761   3.531  0.4045 -0.4960 -0.4749
   77MOL   H18342895   3.638   5.800   3.626  2.1217  1.1965 -2.2210
   77MOL   H18442896   3.718   5.944   3.457  0.1308  0.8874 -1.5121
   77MOL   H18542897   3.610   5.694   3.384  1.1715 -0.6240 -1.2589
   77MOL   H18642898   3.475   6.022   3.390  0.6558  0.3584  0.2180
   77MOL   H18742899   3.460   5.772   3.220  2.1372 -0.5036  0.2485
   77MOL   H18842900   3.352   5.833   3.344 -0.4471  1.2214  0.6060
   77MOL   H18942901   3.307   6.038   3.226  0.1205  1.2558 -1.0546
   77MOL   H19042902   3.213   5.809   3.197  0.3751 -0.6926 -0.7913
   77MOL   H19142903   3.477   5.910   3.003  1.3751  0.8707 -1.6611
   77MOL   H19242904   3.277   6.019   2.893  0.3148 -0.6166  0.2216
   77MOL   H19342905   3.320   6.169   2.975 -2.4106 -0.9441  1.2133
   77MOL   H19442906   3.497   6.174   3.163 -2.2015 -0.9463 -0.5075
   77MOL   H19542907   3.618   6.124   3.038  0.0232 -0.0453 -0.1035
   77MOL   H19642908   3.681   6.093   3.267 -0.8715  1.5201  0.6197
   77MOL   H19742909   3.688   5.942   3.175 -0.4684  0.3680 -2.2798
   77MOL   O19842910   3.441   6.112   2.828  0.1133  0.0646  0.3093
   77MOL   C19942911   3.507   6.005   2.759 -0.3893  0.4090 -0.5917
   77MOL   C20042912   3.506   6.025   2.608 -0.9067 -0.5314  0.0664
   77MOL   O20142913   3.601   6.127   2.585 -0.4667 -0.1619 -0.4702
   77MOL   C20242914   3.549   5.900   2.526  0.1040 -0.7775  0.0984
   77MOL   C20342915   3.709   5.866   2.532 -0.3285 -0.4095  0.0988
   77MOL   C20442916   3.737   5.731   2.473 -0.1634  0.1680 -0.2626
   77MOL   O20542917   3.872   5.699   2.482 -0.3284 -0.1351 -0.2989
   77MOL   C20642918   3.684   5.721   2.331  0.1130 -0.6150 -0.0105
   77MOL   C20742919   3.705   5.577   2.277  0.1272  0.2203  0.9791
   77MOL   C20842920   3.538   5.774   2.310 -0.6606  0.4406  0.2923
   77MOL   C20942921   3.511   5.909   2.379  0.3591  0.3009  0.5189
   77MOL   H21042922   3.453   5.911   2.771 -0.7837  0.5786 -1.0176
   77MOL   H21142923   3.604   5.988   2.805 -1.0713  1.3126  1.2129
   77MOL   H21242924   3.409   6.059   2.572 -0.5013 -0.4190 -0.9280
   77MOL   H21342925   3.597   6.192   2.654 -1.8896  1.1338 -1.7243
   77MOL   H21442926   3.485   5.825   2.572 -0.7499  1.3982  2.6034
   77MOL   H21542927   3.758   5.944   2.474 -0.5071 -1.8431 -2.0233
   77MOL   H21642928   3.741   5.881   2.635  0.4852 -0.0604 -0.2090
   77MOL   H21742929   3.678   5.663   2.535 -0.0100  0.0541 -0.2432
   77MOL   H21842930   3.897   5.652   2.560 -2.0409 -2.5832 -1.1413
   77MOL   H21942931   3.756   5.790   2.285  2.6514 -2.5786  0.8963
   77MOL   H22042932   3.699   5.577   2.168 -1.0685 -2.1557  1.0290
   77MOL   H22142933   3.806   5.540   2.297 -0.0499 -0.5901  0.3900
   77MOL   H22242934   3.463   5.700   2.336  1.8911 -2.2381  0.3457
   77MOL   H22342935   3.519   5.797   2.205 -1.1908 -0.2447  0.2404
   77MOL   H22442936   3.404   5.931   2.369  0.4187  0.3523 -0.0289
   77MOL   H22542937   3.576   5.984   2.336  2.5025 -1.0420  1.3485
   77MOL   O22642938   3.616   5.471   2.319  0.6670 -0.2460  0.0365
   77MOL   C22742939   3.616   5.353   2.244  0.1915 -0.7806  0.1496
   77MOL   C22842940   3.533   5.250   2.314  0.4246  0.2954 -0.8713
   77MOL   O22942941   3.465   5.172   2.218 -0.2172  0.5458 -0.0644
   77MOL   C23042942   3.605   5.159   2.416  0.6825  0.2400 -0.3304
   77MOL   C23142943   3.502   5.085   2.512 -0.4494 -0.3379 -0.3303
   77MOL   C23242944   3.569   4.994   2.607 -0.0625 -0.9675  0.1648
   77MOL   O23342945   3.474   4.929   2.689  0.4069 -0.2527 -0.3313
   77MOL   C23442946   3.663   5.078   2.701 -0.3698  0.3071 -0.5122
   77MOL   C23542947   3.738   4.985   2.805  0.4729 -0.3638  0.2995
   77MOL   C23642948   3.759   5.171   2.625 -0.5330 -0.1288 -0.0982
   77MOL   C23742949   3.697   5.245   2.507 -0.3726  0.3144  0.2249
   77MOL   H23842950   3.721   5.327   2.246  0.7988  1.5620  0.1838
   77MOL   H23942951   3.585   5.367   2.140 -1.2980 -0.2004  0.6572
   77MOL   H24042952   3.460   5.308   2.372  2.1156  1.1010  0.4975
   77MOL   H24142953   3.532   5.153   2.154 -0.6322  4.2538 -1.7037
   77MOL   H24242954   3.661   5.084   2.362  0.8089  0.0336  0.0874
   77MOL   H24342955   3.450   5.161   2.571 -0.0256 -0.2236 -0.1042
   77MOL   H24442956   3.427   5.031   2.454 -0.5415 -0.1959 -0.3444
   77MOL   H24542957   3.621   4.922   2.545 -1.7852 -0.8763 -1.4173
   77MOL   H24642958   3.519   4.908   2.770  1.1364 -1.7318 -1.0979
   77MOL   H24742959   3.597   5.140   2.762 -0.9816  0.8375 -1.7035
   77MOL   H24842960   3.796   4.911   2.750  1.3159 -0.9040  1.8922
   77MOL   H24942961   3.798   5.053   2.866  0.5374  0.0550 -0.2264
   77MOL   H25042962   3.848   5.116   2.593 -0.7458 -2.0731  2.4622
   77MOL   H25142963   3.794   5.240   2.702  1.5306 -0.1128 -1.0220
   77MOL   H25242964   3.776   5.295   2.452 -0.2004 -0.4870 -0.2683
   77MOL   H25342965   3.645   5.331   2.548 -1.0158  0.1052 -0.1459
   77MOL   O25442966   3.638   4.920   2.888  0.2126 -0.5251  0.1505
   77MOL   C25542967   3.591   5.004   2.996  0.1461 -0.4913  0.4247
   77MOL   C25642968   3.456   4.938   3.040  0.3399  0.2457  0.3574
   77MOL   O25742969   3.479   4.803   3.078  0.1729  1.1906 -0.2708
   77MOL   C25842970   3.380   5.017   3.157 -0.0920  0.1848  0.0311
   77MOL   C25942971   3.371   5.167   3.132  0.3476  0.0769 -0.0534
   77MOL   C26042972   3.291   5.241   3.233  0.2204  0.6810 -0.9238
   77MOL   O26142973   3.320   5.383   3.203 -0.2003  0.8585 -0.2183
   77MOL   C26242974   3.343   5.215   3.373  0.8606  0.7767  0.0636
   77MOL   C26342975   3.278   5.290   3.485 -0.2861 -0.2905  0.0308
   77MOL   C26442976   3.358   5.058   3.407 -0.3241  0.1144  0.4662
   77MOL   C26542977   3.439   4.982   3.291  0.4842 -0.3272 -0.7019
   77MOL   H26642978   3.572   5.108   2.966  0.1884 -0.9579 -1.2862
   77MOL   H26742979   3.638   4.990   3.093 -4.8121  0.2091  3.1039
   77MOL   H26842980   3.389   4.938   2.954  1.6309 -0.2079 -0.6568
   77MOL   H26942981   3.502   4.762   2.996 -0.2562  0.1010  0.1410
   77MOL   H27042982   3.280   4.978   3.180  0.0079 -0.1950 -0.1610
   77MOL   H27142983   3.472   5.207   3.133  0.0423  0.8994  2.3945
   77MOL   H27242984   3.338   5.182   3.029 -0.7007 -0.3154  0.2186
   77MOL   H27342985   3.185   5.222   3.217  0.4690 -2.0552  0.3577
   77MOL   H27442986   3.414   5.393   3.208 -0.1134 -0.5022  0.9554
   77MOL   H27542987   3.446   5.250   3.369  1.1522  0.2720  2.2859
   77MOL   H27642988   3.175   5.260   3.505 -1.4439  1.9852 -2.1807
   77MOL   H27742989   3.337   5.273   3.575  0.4082  0.3904 -0.2939
   77MOL   H27842990   3.255   5.022   3.411  0.0827 -0.9473  1.3824
   77MOL   H27942991   3.411   5.034   3.498 -2.5696  2.8647  2.6018
   77MOL   H28042992   3.429   4.876   3.314  2.4434 -0.3059  0.3112
   77MOL   H28142993   3.545   5.000   3.309  0.5464 -0.5573 -0.8234
   77MOL   O28242994   3.283   5.426   3.481  0.2663 -0.1502 -1.0000
   77MOL   C28342995   3.158   5.483   3.459  0.3471 -0.0110  0.0124
   77MOL   C28442996   3.173   5.636   3.429 -0.4622 -0.4539 -0.4237
   77MOL   O28542997   3.209   5.640   3.297  0.2373 -0.5092  0.0640
   77MOL   C28642998   3.044   5.717   3.465  0.6980  1.1009  0.7786
   77MOL   C28742999   3.055   5.858   3.397 -0.8456  0.0995  0.0615
   77MOL   C28843000   2.930   5.943   3.415 -0.0447 -0.1505 -0.4185
   77MOL   O28943001   2.956   6.070   3.360  0.2338 -0.2285 -0.1087
   77MOL   C29043002   2.895   5.962   3.568 -0.1637 -0.3880  0.0941
   77MOL   C29143003   2.763   6.029   3.597  0.2722  0.0113 -0.0774
   77MOL   C29243004   2.903   5.826   3.644 -0.7120 -0.1281  0.2341
   77MOL   C29343005   3.029   5.743   3.614 -0.1837  0.2492  0.0254
   77MOL   H29443006   3.097   5.473   3.548 -0.2667 -0.1409 -0.4201
   77MOL   H29543007   3.112   5.433   3.374 -0.7534 -0.3618  0.8053
   77MOL   H29643008   3.257   5.670   3.490 -1.6266 -0.7418  1.3816
   77MOL   H29743009   3.244   5.555   3.273 -0.8570 -0.0648 -3.3067
   77MOL   H29843010   2.960   5.670   3.414 -0.1209  2.0066  1.2818
   77MOL   H29943011   3.134   5.920   3.440 -0.0704  0.8058 -2.2838
   77MOL   H30043012   3.077   5.833   3.293  0.3821 -1.0290  0.5806
   77MOL   H30143013   2.841   5.904   3.366 -1.1975 -1.1376  2.4053
   77MOL   H30243014   2.926   6.070   3.271 -1.1204 -0.7439  0.3473
   77MOL   H30343015   2.971   6.031   3.604 -0.5174  0.1278 -0.1416
   77MOL   H30443016   2.750   6.034   3.705 -1.5690  0.1159 -0.2997
   77MOL   H30543017   2.761   6.130   3.556  1.1826  0.5477  1.1682
   77MOL   H30643018   2.817   5.763   3.620 -1.8988  1.0675  1.2614
   77MOL   H30743019   2.896   5.847   3.751  1.2461  0.3312  0.2856
   77MOL   H30843020   3.012   5.654   3.674  1.2891  0.5896  0.9755
   77MOL   H30943021   3.114   5.785   3.668 -0.3458  0.2137  0.3062
   77MOL   O31043022   2.670   5.936   3.551  0.0154  0.1240 -0.0437
   77MOL   C31143023   2.536   5.958   3.593 -0.1930 -0.2904 -0.3014
   77MOL   C31243024   2.437   5.873   3.505 -0.4229  0.2853  0.1284
   77MOL   O31343025   2.307   5.890   3.554 -0.0797  0.3007 -0.1542
   77MOL   C31443026   2.447   5.899   3.349  0.5462 -0.2491 -0.3949
   77MOL   C31543027   2.389   6.030   3.304 -0.4056  0.2412  0.1435
   77MOL   C31643028   2.437   6.053   3.164 -0.2611 -0.1019 -0.8723
   77MOL   O31743029   2.393   6.181   3.129 -0.3838  0.1252  0.1282
   77MOL   C31843030   2.385   5.948   3.064 -0.1048  0.2828  0.3511
   77MOL   C31943031   2.449   5.971   2.928  0.4269 -0.0939 -0.1367
   77MOL   C32043032   2.433   5.807   3.108  0.3501 -0.1971 -0.2393
   77MOL   C32143033   2.399   5.784   3.258  0.1277  0.5613  0.1941
   77MOL   H32243034   2.514   6.063   3.579 -0.5733 -0.5103 -1.4518
   77MOL   H32343035   2.529   5.933   3.699  2.7864  0.2293  0.0888
   77MOL   H32443036   2.454   5.766   3.513  0.9440  0.5167  0.5028
   77MOL   H32543037   2.314   5.865   3.645  1.4192  0.4708 -0.1970
   77MOL   H32643038   2.555   5.903   3.331  1.2683  0.4194  3.5032
   77MOL   H32743039   2.281   6.016   3.310 -0.6781  1.8652 -0.6630
   77MOL   H32843040   2.418   6.109   3.374 -1.7480 -0.5104  1.5717
   77MOL   H32943041   2.543   6.077   3.172 -0.9665  3.2684 -1.0574
   77MOL   H33043042   2.436   6.246   3.183  0.1640  0.0028 -0.1555
   77MOL   H33143043   2.276   5.949   3.053 -0.0272 -1.4857 -0.7299
   77MOL   H33243044   2.426   6.070   2.890  0.2805  0.0554  0.3404
   77MOL   H33343045   2.558   5.967   2.930  0.4192  0.4634  1.7010
   77MOL   H33443046   2.539   5.794   3.087 -0.2095 -2.1763 -1.9216
   77MOL   H33543047   2.371   5.738   3.052 -0.9504  1.7231 -1.2556
   77MOL   H33643048   2.446   5.690   3.288 -0.8452  0.0544  0.1349
   77MOL   H33743049   2.291   5.779   3.273 -0.0379  0.0246 -1.1142
   77MOL   O33843050   2.407   5.866   2.835 -0.4729 -0.5718  0.2024
   77MOL   C33943051   2.494   5.848   2.724  1.2524  0.6780  0.6816
   77MOL   C34043052   2.447   5.728   2.644  0.6226  0.1798  0.6005
   77MOL   O34143053   2.329   5.756   2.566  0.3738  0.4807 -0.6055
   77MOL   C34243054   2.561   5.660   2.562 -0.5875 -0.3057  0.3501
   77MOL   C34343055   2.582   5.727   2.423 -0.3108 -0.5007  0.9475
   77MOL   C34443056   2.700   5.673   2.343  0.3749 -0.8288  0.4869
   77MOL   O34543057   2.724   5.755   2.227  0.2257  0.0055  0.2824
   77MOL   C34643058   2.667   5.525   2.313 -0.8824  0.3412  0.5438
   77MOL   C34743059   2.774   5.454   2.237 -0.2577  0.4520  0.2907
   77MOL   C34843060   2.645   5.438   2.443 -0.0182  0.8558 -0.1444
   77MOL   C34943061   2.535   5.500   2.535 -0.7099 -0.6006  1.1144
   77MOL   H35043062   2.591   5.815   2.762  0.1837 -1.2103  1.8309
   77MOL   H35143063   2.513   5.939   2.666 -2.0279  0.2499 -1.1867
   77MOL   H35243064   2.413   5.653   2.715  0.1260 -0.1460  0.0185
   77MOL   H35343065   2.272   5.808   2.622  0.7931 -1.0943  1.3398
   77MOL   H35443066   2.656   5.666   2.616 -1.0052  2.7500  0.8251
   77MOL   H35543067   2.493   5.736   2.361  2.1661  0.2050 -2.6641
   77MOL   H35643068   2.609   5.829   2.449  2.1028 -1.0325  0.6049
   77MOL   H35743069   2.791   5.691   2.400  0.8292  1.0915 -0.7841
   77MOL   H35843070   2.642   5.790   2.196 -0.6872 -3.2663 -1.2256
   77MOL   H35943071   2.579   5.524   2.249 -0.4173 -0.5878 -0.1065
   77MOL   H36043072   2.799   5.492   2.137 -0.9957  0.5695  0.1466
   77MOL   H36143073   2.863   5.458   2.300  1.6553 -0.4723 -2.2571
   77MOL   H36243074   2.738   5.427   2.498  0.6859  0.5578 -1.3561
   77MOL   H36343075   2.618   5.337   2.415 -2.1257  0.2907  3.6158
   77MOL   H36443076   2.521   5.459   2.635 -0.3870 -0.0961  1.3709
   77MOL   H36543077   2.435   5.489   2.492 -1.1867  2.6997  1.2594
   77MOL   O36643078   2.748   5.314   2.211 -0.5373  0.1677 -0.2393
   77MOL   C36743079   2.864   5.252   2.158 -0.5965  0.3412  0.2667
   77MOL   C36843080   2.853   5.101   2.178 -0.4745 -0.1517 -0.4649
   77MOL   O36943081   2.780   5.050   2.066  0.0583 -0.2426 -0.3916
   77MOL   C37043082   2.989   5.036   2.187 -0.0330 -0.1668  0.3858
   77MOL   C37143083   3.059   5.045   2.049 -0.0747  0.3080  0.5263
   77MOL   C37243084   3.208   4.999   2.065  0.5352 -0.2609 -0.0337
   77MOL   O37343085   3.260   5.002   1.935 -0.0922 -0.0435 -0.1267
   77MOL   C37443086   3.224   4.857   2.119  0.6595  0.0961 -0.1822
   77MOL   C37543087   3.372   4.823   2.157  0.3556 -0.2935  0.7717
   77MOL   C37643088   3.140   4.844   2.246  0.2013  0.4862 -0.2421
   77MOL   C37743089   2.996   4.888   2.235  0.3220 -0.2453 -0.3327
   77MOL   H37843090   2.964   5.284   2.184  0.2431 -1.9939  0.0611
   77MOL   H37943091   2.850   5.275   2.053 -1.2478 -1.9492 -0.1680
   77MOL   H38043092   2.802   5.066   2.268  0.0064 -0.1202 -0.1810
   77MOL   H38143093   2.688   5.054   2.088  0.1256 -0.6252 -0.0360
   77MOL   H38243094   3.043   5.093   2.262 -0.3691  1.9828 -0.9494
   77MOL   H38343095   2.995   4.992   1.979  0.2924 -1.6991  1.6764
   77MOL   H38443096   3.073   5.144   2.004  1.2150 -0.2474 -0.3020
   77MOL   H38543097   3.271   5.064   2.125 -0.9409  1.7759 -0.6384
   77MOL   H38643098   3.238   5.082   1.891  0.4648 -1.1654 -2.4942
   77MOL   H38743099   3.197   4.785   2.043 -2.7876 -0.3591  1.3867
   77MOL   H38843100   3.446   4.836   2.078  0.0088 -2.0085  0.1440
   77MOL   H38943101   3.411   4.895   2.229  0.1977 -0.6221  1.1851
   77MOL   H39043102   3.185   4.909   2.321 -0.0281  0.3845 -0.0166
   77MOL   H39143103   3.137   4.741   2.282  1.9562  1.2559  2.2291
   77MOL   H39243104   2.943   4.871   2.329  0.6312 -1.0739 -0.3049
   77MOL   H39343105   2.954   4.822   2.160 -1.4762 -1.1367  1.4053
   77MOL   O39443106   3.372   4.685   2.204  0.0484 -0.2819 -0.0490
   77MOL   C39543107   3.478   4.662   2.300  0.3655  0.5704  0.3395
   77MOL   C39643108   3.468   4.515   2.364 -0.0050  0.2606  0.2487
   77MOL   O39743109   3.518   4.415   2.282  0.3545 -0.0037  0.1375
   77MOL   C39843110   3.545   4.501   2.499  0.5348 -0.0385  0.3003
   77MOL   C39943111   3.454   4.537   2.613  0.6644  0.1840 -1.1544
   77MOL   C40043112   3.516   4.525   2.755  0.7103 -0.0224  0.3635
   77MOL   O40143113   3.422   4.577   2.837 -0.1880  0.5323 -0.1311
   77MOL   C40243114   3.644   4.610   2.768  0.1584  0.3062  0.1091
   77MOL   C40343115   3.714   4.590   2.899 -0.1634 -0.2429 -0.0082
   77MOL   C40443116   3.737   4.558   2.649  0.1774 -0.7965  0.1322
   77MOL   C40543117   3.674   4.583   2.515 -0.3192 -0.3346  0.5692
   77MOL   H40643118   3.450   4.724   2.385 -0.2866  1.9461 -0.8610
   77MOL   H40743119   3.575   4.691   2.260  0.2258 -1.3808 -1.5070
   77MOL   H40843120   3.362   4.491   2.370  0.6694 -2.7760  0.7930
   77MOL   H40943121   3.445   4.396   2.225 -1.5308  1.2634  2.0345
   77MOL   H41043122   3.572   4.397   2.514  1.4170 -0.2124 -2.2533
   77MOL   H41143123   3.405   4.634   2.602 -0.5828 -0.3559 -0.4854
   77MOL   H41243124   3.364   4.476   2.614 -1.2023  2.8590  0.2582
   77MOL   H41343125   3.544   4.422   2.777  1.6783  0.4423  1.3456
   77MOL   H41443126   3.442   4.530   2.916  0.0959  0.3431 -0.3124
   77MOL   H41543127   3.622   4.716   2.753  1.0975  0.3163 -1.2161
   77MOL   H41643128   3.644   4.613   2.981 -0.7624 -0.6993 -0.3884
   77MOL   H41743129   3.744   4.487   2.915  0.3044 -0.4736 -2.3251
   77MOL   H41843130   3.752   4.452   2.667 -0.0652 -1.1240 -1.5231
   77MOL   H41943131   3.835   4.606   2.656  0.7665 -1.8883 -0.6759
   77MOL   H42043132   3.740   4.578   2.429 -1.6895  0.8244 -0.5803
   77MOL   H42143133   3.637   4.685   2.515  1.1994  0.2119 -0.3142
   77MOL   O42243134   3.819   4.688   2.902  0.0431  0.3402 -0.3436
   77MOL   C42343135   3.897   4.667   3.025 -0.7815  0.6300 -0.1475
   77MOL   C42443136   3.995   4.789   3.053 -0.1370  0.0263  0.0240
   77MOL   O42543137   3.904   4.896   3.081  0.5117 -0.0735  1.1359
   77MOL   C42643138   4.104   4.767   3.166 -0.5322  0.7650 -0.3184
   77MOL   C42743139   4.042   4.722   3.299 -0.0380 -0.2614  0.1746
   77MOL   C42843140   4.154   4.708   3.410  0.2890  0.2760 -0.3995
   77MOL   O42943141   4.085   4.688   3.535  0.2357  0.1119  0.0232
   77MOL   C43043142   4.246   4.828   3.422 -0.1984  0.6014 -0.1693
   77MOL   C43143143   4.355   4.816   3.530  0.3585 -0.0042 -0.2731
   77MOL   C43243144   4.307   4.862   3.285  0.3753  0.0405  0.7250
   77MOL   C43343145   4.206   4.882   3.173  0.0172  0.9061 -0.2882
   77MOL   H43443146   3.967   4.584   3.022  1.3092  2.3807 -1.0320
   77MOL   H43543147   3.831   4.662   3.112 -0.3839  2.4314  0.2778
   77MOL   H43643148   4.037   4.808   2.954  0.8532 -0.2437  0.3923
   77MOL   H43743149   3.833   4.881   3.019 -0.5411 -0.6536  2.4575
   77MOL   H43843150   4.153   4.675   3.135  0.3667 -0.5439  4.4748
   77MOL   H43943151   3.982   4.805   3.337  1.1425  0.8134 -0.2837
   77MOL   H44043152   3.988   4.628   3.295 -2.1342  0.8905  0.4912
   77MOL   H44143153   4.198   4.612   3.385 -2.8285 -1.0268 -1.1020
   77MOL   H44243154   4.142   4.636   3.590 -2.0216 -0.8216  1.5383
   77MOL   H44343155   4.180   4.911   3.446 -0.7323  0.2462 -0.4096
   77MOL   H44443156   4.340   4.723   3.586 -0.7842  1.3890  1.8052
   77MOL   H44543157   4.448   4.823   3.473  0.9785 -0.6866  0.6357
   77MOL   H44643158   4.386   4.791   3.261 -0.9381 -1.3769  0.5530
   77MOL   H44743159   4.367   4.953   3.289 -0.3070  0.4369  2.3718
   77MOL   H44843160   4.254   4.903   3.078 -0.9738  0.6582 -0.8609
   77MOL   H44943161   4.148   4.967   3.210 -0.5785  0.5678 -0.4260
   77MOL   O45043162   4.344   4.925   3.625  0.2391 -0.4599 -0.0770
   77MOL   C45143163   4.405   4.880   3.750  0.3679  0.4560 -0.6077
   77MOL   C45243164   4.433   5.005   3.828 -0.2972  0.0857 -0.0706
   77MOL   O45343165   4.494   5.086   3.725  0.2560  0.2034  0.0737
   77MOL   C45443166   4.305   5.075   3.879 -0.5596 -0.3713 -0.3742
   77MOL   C45543167   4.335   5.220   3.936 -0.3128 -0.4203 -0.1135
   77MOL   C45643168   4.199   5.285   3.970 -0.4877 -0.0054 -0.3126
   77MOL   O45743169   4.229   5.416   4.009 -0.8967  0.7225 -0.3629
   77MOL   C45843170   4.124   5.212   4.080 -0.7301  0.3970 -0.3903
   77MOL   C45943171   3.977   5.264   4.104 -0.2365  0.2365  0.1209
   77MOL   C46043172   4.119   5.061   4.054 -0.3982  0.9735 -0.1426
   77MOL   C46143173   4.242   4.997   3.998 -0.0164 -0.4519 -0.1141
   77MOL   H46243174   4.505   4.842   3.728 -0.0019 -1.7729  1.2539
   77MOL   H46343175   4.353   4.801   3.804  1.1036  0.6319  0.3794
   77MOL   H46443176   4.501   4.994   3.913  2.6537  1.5473 -2.1341
   77MOL   H46543177   4.441   5.075   3.648 -2.3833 -0.2956  1.8835
   77MOL   H46643178   4.236   5.072   3.795 -1.2473  1.3567  0.1018
   77MOL   H46743179   4.410   5.215   4.016  1.4090  0.0892 -1.6772
   77MOL   H46843180   4.384   5.286   3.866  1.5646 -3.3975 -1.7301
   77MOL   H46943181   4.135   5.289   3.881  0.0482 -1.5826 -0.7997
   77MOL   H47043182   4.266   5.418   4.095  1.3709  1.2500 -1.3206
   77MOL   H47143183   4.182   5.218   4.173  0.8295  0.7956 -1.3782
   77MOL   H47243184   3.987   5.371   4.121  1.8204 -0.0382  0.6570
   77MOL   H47343185   3.905   5.244   4.024 -1.0887 -4.3860  1.8787
   77MOL   H47443186   4.038   5.048   3.981 -0.6636 -1.5624  0.5377
   77MOL   H47543187   4.088   5.002   4.141 -0.3074  0.2744 -0.5789
   77MOL   H47643188   4.217   4.894   3.973 -0.2343 -0.6656  0.9660
   77MOL   H47743189   4.327   4.989   4.065 -0.7782 -0.8854  0.8208
   77MOL   O47843190   3.937   5.212   4.236  0.4252  0.5565  0.0500
   77MOL   C47943191   3.810   5.270   4.261  0.7755 -0.1056 -0.4391
   77MOL   C48043192   3.786   5.253   4.415 -0.0666 -0.1124 -0.2329
   77MOL   O48143193   3.889   5.324   4.476  0.2592  0.3928 -0.1976
   77MOL   C48243194   3.647   5.304   4.478  0.3101  0.7044  0.4732
   77MOL   C48343195   3.628   5.247   4.624  0.2718 -0.0274 -0.0898
   77MOL   C48443196   3.489   5.281   4.677 -0.5654 -0.7435 -0.0808
   77MOL   O48543197   3.470   5.208   4.797 -0.2331  0.4006  0.2406
   77MOL   C48643198   3.378   5.252   4.575 -0.4264  0.0283 -0.4572
   77MOL   C48743199   3.242   5.290   4.626 -0.0255  0.1821 -0.3780
   77MOL   C48843200   3.404   5.320   4.445 -0.7811  0.2757  0.0174
   77MOL   C48943201   3.533   5.266   4.389  0.6011  0.3677  0.0113
   77MOL   H49043202   3.744   5.210   4.198  0.2160  0.6025 -0.5253
   77MOL   H49143203   3.803   5.376   4.238 -1.8797  0.0246  0.7939
   77MOL   H49243204   3.808   5.147   4.428 -2.0940 -0.4451  0.6204
   77MOL   H49343205   3.964   5.313   4.420  1.1297  0.8736  0.8425
   77MOL   H49443206   3.648   5.412   4.482  1.0275  0.7034  0.3211
   77MOL   H49543207   3.628   5.138   4.624 -1.1725 -0.0603  2.8559
   77MOL   H49643208   3.704   5.282   4.694 -1.4288  0.5132  1.5244
   77MOL   H49743209   3.486   5.388   4.701 -0.9325 -0.5658 -0.9021
   77MOL   H49843210   3.494   5.261   4.871  2.5609 -1.2102  0.5330
   77MOL   H49943211   3.382   5.145   4.551 -1.1072  0.0055 -0.4893
   77MOL   H50043212   3.225   5.237   4.720 -0.3070 -0.9930 -1.0849
   77MOL   H50143213   3.231   5.393   4.659 -0.9085  0.1319 -0.4936
   77MOL   H50243214   3.409   5.428   4.457  1.1169  0.1702  0.3682
   77MOL   H50343215   3.321   5.288   4.382 -0.3063 -1.3541  0.1781
   77MOL   H50443216   3.550   5.306   4.289 -0.8895 -1.7872 -1.1284
   77MOL   H50543217   3.523   5.158   4.379  0.1827  0.4210 -0.1288
   77MOL   O50643218   3.138   5.238   4.539 -0.2357  0.1570  0.8314
   77MOL   C50743219   3.003   5.239   4.598 -0.0876 -0.7390  0.7446
   77MOL   C50843220   2.915   5.179   4.488  0.3186 -0.2889  0.0174
   77MOL   O50943221   2.974   5.054   4.466 -0.1755 -0.2372  0.2188
   77MOL   C51043222   2.774   5.156   4.523  0.1753 -0.2886  0.2684
   77MOL   C51143223   2.736   5.091   4.665 -0.0996 -0.6671  0.1851
   77MOL   C51243224   2.589   5.095   4.693 -0.1884 -1.1576  0.4743
   77MOL   O51343225   2.573   5.039   4.822 -0.4058 -0.1750  0.2332
   77MOL   C51443226   2.511   5.019   4.579 -0.5440  0.5166  0.3316
   77MOL   C51543227   2.364   4.984   4.611 -0.5437 -0.5608  0.9423
   77MOL   C51643228   2.535   5.098   4.454  0.5763 -0.1171  0.1503
   77MOL   C51743229   2.685   5.095   4.417  0.2387 -0.5713  0.4435
   77MOL   H51843230   2.963   5.337   4.624  2.2137  0.0808  1.2926
   77MOL   H51943231   3.002   5.186   4.693  0.6923 -1.5582  0.3025
   77MOL   H52043232   2.922   5.242   4.399  1.1304  1.4857  1.3334
   77MOL   H52143233   3.062   5.069   4.498 -1.0781  0.4629  2.5375
   77MOL   H52243234   2.736   5.257   4.537  0.7219 -0.2094  1.1891
   77MOL   H52343235   2.754   4.985   4.649  0.2066 -0.6243  0.2367
   77MOL   H52443236   2.792   5.130   4.750 -1.7695  0.0358  0.9867
   77MOL   H52543237   2.562   5.201   4.701 -1.2668 -1.2381 -1.7155
   77MOL   H52643238   2.583   5.111   4.883 -0.1856  0.2339 -0.2852
   77MOL   H52743239   2.561   4.922   4.576 -0.3755  0.6594 -1.5961
   77MOL   H52843240   2.342   4.899   4.546  0.4242 -0.1762  0.0950
   77MOL   H52943241   2.363   4.942   4.711  2.5972 -2.5811  0.2025
   77MOL   H53043242   2.509   5.203   4.463  0.9097  0.0197 -0.4363
   77MOL   H53143243   2.487   5.044   4.372 -0.3847  1.3503 -0.2619
   77MOL   H53243244   2.710   5.152   4.328 -1.4604 -0.8482 -0.2424
   77MOL   H53343245   2.714   4.991   4.399 -2.0787 -1.2156  0.2101
   77MOL   O53443246   2.268   5.087   4.602  0.1534 -0.1221 -0.2314
   77MOL   C53543247   2.258   5.173   4.716 -0.4112 -0.0511  0.4012
   77MOL   C53643248   2.108   5.229   4.713 -0.5467 -0.6434 -0.2587
   77MOL   O53743249   2.028   5.125   4.762 -0.1176  0.0519 -0.1536
   77MOL   C53843250   2.095   5.350   4.811  0.5642 -0.1106  0.1517
   77MOL   C53943251   1.945   5.384   4.843 -0.6988 -0.4297 -0.0593
   77MOL   C54043252   1.924   5.492   4.945 -0.0382 -0.0446  0.2292
   77MOL   O54143253   1.786   5.530   4.948  0.6806  0.3061 -0.6387
   77MOL   C54243254   2.011   5.617   4.907 -0.6765 -0.4304  0.3105
   77MOL   C54343255   2.002   5.728   5.020 -0.2630  0.3236  0.8922
   77MOL   C54443256   2.154   5.582   4.863  1.0378  0.6482  0.0569
   77MOL   C54543257   2.167   5.472   4.762 -0.2259 -0.4649  0.5636
   77MOL   H54643258   2.331   5.252   4.700  0.1836 -1.0352 -2.0151
   77MOL   H54743259   2.279   5.119   4.808 -0.8117 -2.2243 -0.7314
   77MOL   H54843260   2.071   5.252   4.613 -3.0709 -0.8682  0.5859
   77MOL   H54943261   2.088   5.053   4.779  0.1347 -0.1714 -1.9331
   77MOL   H55043262   2.145   5.325   4.904 -0.5995 -0.0980  0.7944
   77MOL   H55143263   1.901   5.409   4.747  0.9546  0.5240 -0.5897
   77MOL   H55243264   1.888   5.295   4.869 -0.1128 -1.4726 -2.1703
   77MOL   H55343265   1.960   5.457   5.041 -0.0808  0.4423  0.4235
   77MOL   H55443266   1.731   5.469   4.901 -0.9329  2.6384 -1.9156
   77MOL   H55543267   1.963   5.659   4.819  1.2264 -0.6571 -0.8614
   77MOL   H55643268   2.033   5.823   4.976  1.9023 -1.4107 -1.5228
   77MOL   H55743269   1.900   5.757   5.043  0.5826  3.2501  1.1628
   77MOL   H55843270   2.203   5.545   4.953  0.3691  0.3724  0.3077
   77MOL   H55943271   2.200   5.673   4.823 -2.4280  1.8256 -1.4434
   77MOL   H56043272   2.271   5.452   4.736 -0.1689  1.9969 -1.3834
   77MOL   H56143273   2.127   5.517   4.671 -3.4482 -1.1654  1.5642
   77MOL   H56243274   2.055   5.701   5.111 -0.3202 -2.6958  0.1044
   78MOL     O143275   7.518   0.552   3.076 -0.3041 -0.4817  0.0366
   78MOL     C243276   7.570   0.434   3.130  0.2677  0.1929  0.3329
   78MOL     C343277   7.472   0.398   3.242  0.3906  0.6104  0.7829
   78MOL     O443278   7.344   0.392   3.165 -0.0228 -0.3873  0.2339
   78MOL     C543279   7.483   0.259   3.318  0.0598 -0.6291  0.2727
   78MOL     C643280   7.417   0.266   3.456  0.0298  0.4530 -0.1632
   78MOL     C743281   7.420   0.130   3.534  0.1557 -0.7758  0.2202
   78MOL     O843282   7.349   0.148   3.657 -0.2750  0.3172  0.0092
   78MOL     C943283   7.561   0.078   3.551 -0.0432 -0.5315  0.1231
   78MOL    C1043284   7.550   7.571   3.617 -0.3267  0.0516 -0.1004
   78MOL    C1143285   0.006   0.073   3.415 -0.3538  0.3833 -0.3186
   78MOL    C1243286   7.627   0.212   3.341 -0.1447 -0.1538  0.4094
   78MOL    H1343287   0.038   0.456   3.173 -0.2765  0.3577  1.5180
   78MOL    H1443288   7.576   0.352   3.058  1.8758 -1.0506  1.8436
   78MOL    H1543289   7.469   0.490   3.300  0.0139  1.0009  0.1558
   78MOL    H1643290   7.335   0.470   3.114 -3.3357 -0.2682  0.8652
   78MOL    H1743291   7.434   0.187   3.252  1.2923 -2.1851  1.0023
   78MOL    H1843292   7.454   0.348   3.517  1.2413  0.1772 -0.5101
   78MOL    H1943293   7.314   0.300   3.455 -0.7160 -1.7152 -0.6958
   78MOL    H2043294   7.371   0.060   3.467  0.3807 -0.9528  0.2400
   78MOL    H2143295   7.404   0.184   3.724 -0.8923 -1.0770  1.3061
   78MOL    H2243296   7.609   0.140   3.627  0.6200 -2.3667  1.2449
   78MOL    H2343297   7.487   7.571   3.705  0.9520 -2.4698  0.8642
   78MOL    H2443298   7.504   7.500   3.548  0.1844  1.0574 -1.5059
   78MOL    H2543299   7.600   0.006   3.336  1.0914  0.2576 -0.8721
   78MOL    H2643300   0.106   0.033   3.434 -0.8128 -1.8324 -2.2760
   78MOL    H2743301   0.045   0.198   3.244  2.4146  1.5216  1.3462
   78MOL    H2843302   0.059   0.282   3.398 -1.1765  1.2082 -0.1073
   78MOL    H2943303   7.510   0.619   3.142  0.4595 -0.8013  0.4514
   78MOL    O3043304   0.049   7.514   3.643 -0.2303 -0.0742  0.4339
   78MOL    C3143305   0.041   7.388   3.707 -0.1596  0.6832  0.1135
   78MOL    C3243306   0.043   7.393   3.863 -0.2054 -0.5070  0.1581
   78MOL    O3343307   7.540   7.410   3.917 -0.0076 -0.3146 -0.0387
   78MOL    C3443308   0.102   7.260   3.932 -0.0181  0.3825  0.4291
   78MOL    C3543309   0.026   7.137   3.898  0.9044  0.0253  0.1317
   78MOL    C3643310   0.068   7.008   3.972  0.9422  0.5879 -0.2378
   78MOL    O3743311   7.581   6.925   3.962 -0.2951  0.0011 -0.3717
   78MOL    C3843312   0.095   7.026   4.121 -0.2707 -0.7437  0.4102
   78MOL    C3943313   0.153   6.897   4.184 -0.3715 -0.0688 -0.3313
   78MOL    C4043314   0.190   7.147   4.135  0.0201  0.2842  0.1276
   78MOL    C4143315   0.118   7.273   4.085 -0.8007  0.1748 -0.1735
   78MOL    H4243316   0.130   7.336   3.670  0.2763 -0.0848  2.1333
   78MOL    H4343317   7.587   7.326   3.675  1.2971 -1.1104 -0.2982
   78MOL    H4443318   0.109   7.471   3.901 -0.7538 -0.3889  0.8725
   78MOL    H4543319   7.552   7.481   3.978  0.2611 -1.2269  0.9871
   78MOL    H4643320   0.208   7.251   3.907 -0.0228  0.1844  0.4827
   78MOL    H4743321   7.557   7.157   3.941  1.3283  1.7259  0.3225
   78MOL    H4843322   0.027   7.109   3.793  1.6561 -0.2359  0.2094
   78MOL    H4943323   0.157   6.969   3.922 -0.2540 -0.4315 -1.5978
   78MOL    H5043324   7.547   6.918   3.875 -1.4969  0.9253  0.0129
   78MOL    H5143325   0.003   7.047   4.175  0.5802  2.3233  0.7532
   78MOL    H5243326   0.071   6.825   4.182  0.5029 -1.2449  3.1619
   78MOL    H5343327   0.242   6.848   4.145  1.5779  2.9281  0.2050
   78MOL    H5443328   0.279   7.123   4.077 -1.9441  0.0564 -2.8906
   78MOL    H5543329   0.214   7.151   4.241  0.5713  1.0752 -0.0235
   78MOL    H5643330   0.184   7.355   4.112  0.7449 -1.0181 -0.2265
   78MOL    H5743331   0.022   7.283   4.136  1.3163 -2.3258  4.6451
   78MOL    O5843332   0.184   6.919   4.319 -0.1402 -0.0379  0.1532
   78MOL    C5943333   0.232   6.814   4.393  0.1020 -0.7447 -0.7213
   78MOL    C6043334   0.199   6.848   4.547  0.5740 -0.2950  0.8901
   78MOL    O6143335   0.290   6.950   4.590  0.2552 -0.1489 -0.2985
   78MOL    C6243336   0.050   6.884   4.561  0.6307  0.3757 -0.6804
   78MOL    C6343337   0.010   6.874   4.708  0.0282  0.1669  0.1513
   78MOL    C6443338   7.489   6.893   4.745  0.3308 -0.2300  0.8307
   78MOL    O6543339   7.475   6.839   4.869 -0.3561 -0.5955 -0.0508
   78MOL    C6643340   7.384   6.829   4.646 -0.4851  0.0014  0.0604
   78MOL    C6743341   7.240   6.872   4.672  1.0881 -0.6095  0.8405
   78MOL    C6843342   7.425   6.848   4.500  0.3075 -0.0742  0.2941
   78MOL    C6943343   7.571   6.803   4.481 -0.8523 -0.3304  0.0721
   78MOL    H7043344   0.331   6.784   4.358  0.2141  0.5485 -1.5788
   78MOL    H7143345   0.175   6.729   4.357 -2.6596 -0.1070  1.8809
   78MOL    H7243346   0.224   6.763   4.610 -0.6548  0.3733  2.3433
   78MOL    H7343347   0.262   7.026   4.541 -0.7285 -0.6160 -0.4689
   78MOL    H7443348   0.038   6.988   4.532  0.6509  0.5615 -0.0380
   78MOL    H7543349   0.036   6.776   4.750 -0.1786  0.2752  0.5365
   78MOL    H7643350   0.064   6.948   4.766  0.0122  0.3204 -0.0311
   78MOL    H7743351   7.471   7.000   4.746  1.7948  0.0193  1.2725
   78MOL    H7843352   7.508   6.750   4.868 -0.3444 -0.5860 -1.1468
   78MOL    H7943353   7.384   6.721   4.664  0.0499  0.2038  1.2799
   78MOL    H8043354   7.205   6.831   4.767 -2.7743  2.4915  0.8952
   78MOL    H8143355   7.239   6.981   4.669  0.6791 -0.5816  1.7139
   78MOL    H8243356   7.424   6.950   4.463 -0.0485  0.4586  1.7438
   78MOL    H8343357   7.366   6.785   4.433  0.4703  0.6857 -0.5734
   78MOL    H8443358   7.590   6.795   4.374  0.2242 -3.7294  0.4350
   78MOL    H8543359   7.569   6.700   4.518  0.4705 -1.5250 -3.0489
   78MOL    O8643360   7.144   6.835   4.566  0.1069  0.2549  0.8867
   78MOL    C8743361   7.110   6.695   4.553 -0.0870 -0.0376  0.1716
   78MOL    C8843362   7.002   6.701   4.447  0.8338 -0.1325 -0.2458
   78MOL    O8943363   6.979   6.570   4.392 -0.3614 -0.0477 -0.6210
   78MOL    C9043364   6.873   6.760   4.497  0.3249 -0.8129  0.1323
   78MOL    C9143365   6.793   6.677   4.593 -0.0584 -0.7403 -0.1308
   78MOL    C9243366   6.664   6.742   4.634  0.0156  0.0935 -0.3668
   78MOL    O9343367   6.597   6.670   4.743 -0.5347 -0.5285 -0.5821
   78MOL    C9443368   6.576   6.765   4.503 -0.2746 -0.4546 -0.3190
   78MOL    C9543369   6.445   6.828   4.551  0.1255  0.3924 -0.3565
   78MOL    C9643370   6.651   6.860   4.409 -0.2227 -0.6532 -0.4688
   78MOL    C9743371   6.786   6.797   4.374  0.7486  0.1837 -0.1831
   78MOL    H9843372   7.087   6.640   4.645  0.7268 -2.4680 -1.0241
   78MOL    H9943373   7.199   6.643   4.518 -0.2900  0.0690 -0.4905
   78MOL   H10043374   7.033   6.765   4.366 -1.1132 -2.4206 -2.8969
   78MOL   H10143375   6.913   6.580   4.325  1.5768  1.6732 -2.3439
   78MOL   H10243376   6.898   6.853   4.548  1.1000 -0.5272 -0.7651
   78MOL   H10343377   6.760   6.589   4.536 -0.5465  1.1116 -2.7874
   78MOL   H10443378   6.851   6.650   4.682  1.3179 -1.0846 -1.1136
   78MOL   H10543379   6.677   6.844   4.672 -1.6985 -0.0739  0.7147
   78MOL   H10643380   6.533   6.615   4.701 -1.4091 -0.9427  1.2461
   78MOL   H10743381   6.558   6.669   4.454 -0.0252 -1.0618  0.7626
   78MOL   H10843382   6.398   6.778   4.635 -0.2434 -1.3652 -1.5917
   78MOL   H10943383   6.460   6.934   4.573  1.0712  0.4352 -1.1805
   78MOL   H11043384   6.677   6.951   4.462 -0.4914 -0.5446 -0.5207
   78MOL   H11143385   6.595   6.895   4.322  0.2727  0.2864 -0.4153
   78MOL   H11243386   6.837   6.865   4.306  1.5134  0.1971  0.4097
   78MOL   H11343387   6.768   6.710   4.309  3.4325 -1.6745  1.4947
   78MOL   O11443388   6.351   6.803   4.441  0.6193  0.3644 -0.2695
   78MOL   C11543389   6.216   6.839   4.470 -0.5502 -0.5812  0.2445
   78MOL   C11643390   6.202   6.992   4.440 -0.1642  0.9937 -0.5579
   78MOL   O11743391   6.234   7.004   4.305  0.3853  0.3540  0.2912
   78MOL   C11843392   6.067   7.067   4.464  0.3432  0.3671 -0.2752
   78MOL   C11943393   5.955   7.021   4.371  0.0884 -0.3218 -0.1526
   78MOL   C12043394   5.832   7.111   4.381  0.8771 -0.3197  0.7257
   78MOL   O12143395   5.750   7.072   4.270 -0.0243  0.1413 -0.4104
   78MOL   C12243396   5.854   7.260   4.380 -0.4697 -0.7528  0.4782
   78MOL   C12343397   5.726   7.346   4.398  0.3829 -0.5710  0.7601
   78MOL   C12443398   5.970   7.293   4.482 -0.7454  0.0178 -0.7292
   78MOL   C12543399   6.099   7.213   4.454  0.9243  0.0793 -0.1641
   78MOL   H12643400   6.187   6.817   4.573 -0.9198 -1.0889  0.0353
   78MOL   H12743401   6.162   6.789   4.389  0.6882  1.0736 -1.6574
   78MOL   H12843402   6.282   7.045   4.493  0.4457  0.2549 -0.7300
   78MOL   H12943403   6.310   6.949   4.297  1.3530  1.7170 -0.0093
   78MOL   H13043404   6.029   7.046   4.564  0.2869  0.7433 -0.2164
   78MOL   H13143405   5.989   7.032   4.268 -0.7841 -0.6204 -0.4756
   78MOL   H13243406   5.942   6.914   4.382  1.4996 -0.7449 -2.2060
   78MOL   H13343407   5.782   7.082   4.474  1.0330 -0.9556  0.6112
   78MOL   H13443408   5.795   7.088   4.189  1.1418 -3.0372 -0.4876
   78MOL   H13543409   5.893   7.279   4.280 -0.4553 -1.2685  0.3816
   78MOL   H13643410   5.749   7.451   4.382 -1.5220  0.2917  3.3055
   78MOL   H13743411   5.652   7.303   4.331  0.2570  0.1630  0.4210
   78MOL   H13843412   5.934   7.272   4.582 -0.4659  0.1551 -0.6002
   78MOL   H13943413   5.990   7.400   4.478  4.2545 -0.6530  1.9138
   78MOL   H14043414   6.175   7.242   4.526 -0.4804  0.4678  1.1949
   78MOL   H14143415   6.135   7.252   4.359 -0.4209  2.4508  0.2474
   78MOL   O14243416   5.683   7.324   4.530 -0.7009 -0.1378 -0.0376
   78MOL   C14343417   5.587   7.415   4.573 -0.7578  0.4713  0.1959
   78MOL   C14443418   5.490   7.342   4.671 -0.0424  0.2432 -0.2246
   78MOL   O14543419   5.395   7.273   4.597  0.7929 -0.0628  0.2323
   78MOL   C14643420   5.556   7.239   4.765 -0.2527 -0.3548  0.1588
   78MOL   C14743421   5.453   7.160   4.852  0.0937  0.4191 -0.6615
   78MOL   C14843422   5.520   7.065   4.953 -0.8267 -0.3197 -0.0905
   78MOL   O14943423   5.429   7.005   5.041 -0.0653  0.0322 -0.0416
   78MOL   C15043424   5.634   7.135   5.031 -0.3903  0.1448  0.5865
   78MOL   C15143425   5.702   7.024   5.111  0.8817  0.6286 -0.1844
   78MOL   C15243426   5.735   7.202   4.930  0.3674  0.3350  0.4283
   78MOL   C15343427   5.660   7.307   4.859  0.7085  0.6774  0.0225
   78MOL   H15443428   5.541   7.473   4.493 -0.1489  1.7584  0.7675
   78MOL   H15543429   5.654   7.482   4.628  0.6472 -0.2143 -0.6605
   78MOL   H15643430   5.430   7.415   4.725 -0.0864  0.8295 -1.0545
   78MOL   H15743431   5.437   7.226   4.527  1.8373 -1.1316  1.5422
   78MOL   H15843432   5.606   7.159   4.709 -1.1731  0.2764 -1.6106
   78MOL   H15943433   5.389   7.227   4.910 -1.7959 -1.8245 -0.0664
   78MOL   H16043434   5.385   7.097   4.795  0.5385 -0.6783  0.0216
   78MOL   H16143435   5.562   6.984   4.894 -0.2348 -1.7272  2.2243
   78MOL   H16243436   5.411   7.067   5.110 -0.1659  2.2625 -1.9914
   78MOL   H16343437   5.593   7.205   5.104 -0.2693 -0.9793  1.7622
   78MOL   H16443438   5.631   6.969   5.173 -0.1094  1.4849 -0.5346
   78MOL   H16543439   5.738   6.948   5.041 -1.0853  1.6731 -2.3916
   78MOL   H16643440   5.769   7.118   4.869 -0.0985  0.1812  0.3794
   78MOL   H16743441   5.827   7.235   4.979 -0.2134  1.9621  0.4349
   78MOL   H16843442   5.727   7.368   4.799  2.0454 -0.7535  0.0227
   78MOL   H16943443   5.611   7.378   4.926 -0.6834  0.0857 -0.3394
   78MOL   O17043444   5.806   7.077   5.189 -0.5654  0.1084 -0.6131
   78MOL   C17143445   5.894   6.980   5.249 -0.0526 -0.2869 -0.8950
   78MOL   C17243446   6.004   7.057   5.333 -0.1393  0.5541 -0.5172
   78MOL   O17343447   5.955   7.051   5.472  0.1983 -0.3515  0.1493
   78MOL   C17443448   6.144   7.005   5.306  0.5553  0.1147  0.9479
   78MOL   C17543449   6.164   6.857   5.323 -0.7054  0.0571 -0.4250
   78MOL   C17643450   6.191   6.809   5.469 -0.1097 -1.4185 -0.5199
   78MOL   O17743451   6.072   6.811   5.547 -0.0276  0.4569  0.0365
   78MOL   C17843452   6.299   6.883   5.547  0.4174  0.4611  0.1571
   78MOL   C17943453   6.445   6.856   5.493  0.4952  0.2386  0.3491
   78MOL   C18043454   6.272   7.034   5.539 -0.1223  0.0013 -0.2771
   78MOL   C18143455   6.253   7.085   5.387 -0.8319  0.4665  0.2122
   78MOL   H18243456   5.957   6.941   5.169  2.0927  0.7989  0.2253
   78MOL   H18343457   5.838   6.899   5.294  0.0068  0.2218  0.1239
   78MOL   H18443458   5.996   7.159   5.298 -1.4586  1.0645  1.1748
   78MOL   H18543459   5.865   7.080   5.464  0.0708 -0.2201  1.9636
   78MOL   H18643460   6.151   7.012   5.197 -3.1756 -1.0223  0.5452
   78MOL   H18743461   6.091   6.791   5.276  0.8875 -1.8809 -0.2407
   78MOL   H18843462   6.257   6.836   5.270  0.3946  0.1012  1.4406
   78MOL   H18943463   6.221   6.706   5.454  3.4045 -0.8915  2.2856
   78MOL   H19043464   6.017   6.886   5.535 -1.1526 -0.2567  0.6303
   78MOL   H19143465   6.296   6.856   5.653  1.7873  1.2802  0.4243
   78MOL   H19243466   6.451   6.892   5.390 -0.2621 -0.1962  0.1472
   78MOL   H19343467   6.519   6.918   5.543  2.2239 -0.8479 -0.7825
   78MOL   H19443468   6.344   7.100   5.588 -0.4154 -0.3112  0.5824
   78MOL   H19543469   6.184   7.057   5.598 -0.7611 -2.1766 -0.3569
   78MOL   H19643470   6.351   7.097   5.341  0.8461 -0.9157  3.2854
   78MOL   H19743471   6.219   7.188   5.386 -0.7233  0.4935 -1.0200
   78MOL   O19843472   6.474   6.714   5.490  0.7583 -0.1970  0.2492
   78MOL   C19943473   6.594   6.676   5.555 -0.0353  0.0919  0.2283
   78MOL   C20043474   6.729   6.736   5.499  0.9829  0.1542  0.9169
   78MOL   O20143475   6.831   6.708   5.595  0.4223  0.6643  0.0390
   78MOL   C20243476   6.772   6.689   5.364  0.2308  0.0566 -0.3692
   78MOL   C20343477   6.677   6.734   5.249 -1.0813 -0.2694 -0.1199
   78MOL   C20443478   6.761   6.702   5.124  0.5133 -0.4253  0.2566
   78MOL   O20543479   6.688   6.768   5.022 -0.1728  0.0553 -0.0683
   78MOL   C20643480   6.786   6.553   5.105 -0.4663  0.2171  0.8872
   78MOL   C20743481   6.856   6.515   4.969 -0.4081 -0.5361 -0.7999
   78MOL   C20843482   6.869   6.494   5.220  0.0811  0.6213 -0.4670
   78MOL   C20943483   6.810   6.538   5.360  0.1270 -0.1311  0.5160
   78MOL   H21043484   6.603   6.568   5.549  0.3119  0.0286  1.6591
   78MOL   H21143485   6.576   6.702   5.660 -0.0955 -2.5764  0.9032
   78MOL   H21243486   6.721   6.845   5.508 -1.0086  0.2990 -1.9839
   78MOL   H21343487   6.915   6.703   5.550  0.8090  0.4950  0.7697
   78MOL   H21443488   6.865   6.743   5.346  1.0307 -2.3891 -3.9419
   78MOL   H21543489   6.590   6.669   5.258 -1.6289  0.1273 -2.2467
   78MOL   H21643490   6.655   6.840   5.265  0.0758 -0.1904  1.0646
   78MOL   H21743491   6.856   6.754   5.113  0.4233 -0.4934 -0.9184
   78MOL   H21843492   6.675   6.716   4.944 -0.5345 -1.0417  0.7135
   78MOL   H21943493   6.688   6.506   5.101  0.4199 -1.5924 -0.2262
   78MOL   H22043494   6.826   6.412   4.953 -1.5143 -0.5910  1.3904
   78MOL   H22143495   6.828   6.578   4.885  2.0005  1.1792 -0.3820
   78MOL   H22243496   6.972   6.531   5.221 -0.2123  1.4436  0.1047
   78MOL   H22343497   6.875   6.386   5.204  0.7269  0.7862 -1.3687
   78MOL   H22443498   6.852   6.502   5.454 -0.6890 -0.9243  0.5833
   78MOL   H22543499   6.716   6.484   5.364 -2.8845  4.3341 -3.9757
   78MOL   O22643500   6.994   6.527   4.986  0.1219 -0.0608 -0.2208
   78MOL   C22743501   7.070   6.442   4.902 -0.1108  0.4414  0.0807
   78MOL   C22843502   7.216   6.461   4.933 -0.6678  0.1833  0.2465
   78MOL   O22943503   7.243   6.577   4.860 -0.9024  0.2259  0.0421
   78MOL   C23043504   7.262   6.464   5.084  0.1563 -0.1801  0.2728
   78MOL   C23143505   7.409   6.500   5.096  0.3364 -0.6717  0.2153
   78MOL   C23243506   7.474   6.481   5.228 -0.3701 -0.2969 -0.3979
   78MOL   O23343507   7.614   6.496   5.218 -0.4040  0.5047 -0.1065
   78MOL   C23443508   7.448   6.334   5.282 -0.1908 -0.4001 -0.8738
   78MOL   C23543509   7.532   6.305   5.414  0.3449 -0.7491 -0.1980
   78MOL   C23643510   7.289   6.319   5.292 -0.7504 -0.3032 -0.1356
   78MOL   C23743511   7.229   6.332   5.153  0.0378  0.1233  0.3063
   78MOL   H23843512   7.058   6.461   4.795  0.7049 -0.2157 -0.1310
   78MOL   H23943513   7.045   6.337   4.913  0.0667  0.1681 -2.0408
   78MOL   H24043514   7.276   6.385   4.883  0.9540  1.8682 -0.4376
   78MOL   H24143515   7.212   6.657   4.900  0.0365  0.3424  0.5743
   78MOL   H24243516   7.202   6.541   5.132  1.6733  1.2918 -0.1280
   78MOL   H24343517   7.467   6.440   5.026  0.0426 -0.9463  0.2054
   78MOL   H24443518   7.424   6.604   5.065 -1.9351 -0.9463 -2.0173
   78MOL   H24543519   7.440   6.554   5.302 -1.2886  1.1656 -2.2391
   78MOL   H24643520   7.625   6.590   5.222  0.6856  0.3339  1.0342
   78MOL   H24743521   7.481   6.263   5.206 -0.9806 -2.5948  0.7635
   78MOL   H24843522   0.008   6.299   5.389 -0.2900  0.8013 -3.5183
   78MOL   H24943523   7.519   6.389   5.482 -0.2939 -0.0812 -1.1151
   78MOL   H25043524   7.254   6.400   5.356  0.8685 -1.0674  1.7821
   78MOL   H25143525   7.255   6.233   5.350  0.7226 -0.0982  1.0851
   78MOL   H25243526   7.121   6.319   5.146  0.2031 -1.3448  0.3593
   78MOL   H25343527   7.266   6.253   5.087 -0.1209  0.1398  0.1991
   78MOL   O25443528   7.491   6.174   5.465  0.2870 -0.2875 -0.6034
   78MOL   C25543529   7.534   6.069   5.380  0.2262 -0.9939  0.6851
   78MOL   C25643530   7.573   5.943   5.464  0.7076 -0.5156  0.1267
   78MOL   O25743531   7.555   5.829   5.390 -0.3166  0.4243  0.4347
   78MOL   C25843532   0.091   5.944   5.516  0.4561  0.2360  0.2700
   78MOL   C25943533   0.121   6.064   5.605 -0.8053  0.3333 -0.0026
   78MOL   C26043534   0.256   6.055   5.680  0.8656  0.1188  0.1673
   78MOL   O26143535   0.264   6.167   5.770 -0.1920 -0.4241 -0.2054
   78MOL   C26243536   0.373   6.040   5.584  0.4113  0.7764 -0.2884
   78MOL   C26343537   0.508   6.021   5.660  0.2179  0.2030  0.6720
   78MOL   C26443538   0.344   5.924   5.490 -0.0948 -0.4328 -0.0233
   78MOL   C26543539   0.210   5.928   5.420 -0.3673 -0.3559 -0.3431
   78MOL   H26643540   7.624   6.092   5.324 -0.0416 -2.2609 -0.2818
   78MOL   H26743541   7.458   6.043   5.307  1.0852  1.6326 -1.2012
   78MOL   H26843542   7.509   5.930   5.552 -2.1866  0.3069 -1.7653
   78MOL   H26943543   7.606   5.839   5.311 -2.3353 -0.9781 -1.0864
   78MOL   H27043544   0.096   5.854   5.578  0.3717 -0.5445 -0.8505
   78MOL   H27143545   0.120   6.157   5.549 -0.6035  0.8336  0.8306
   78MOL   H27243546   0.037   6.069   5.674 -0.3917  0.7828  0.4728
   78MOL   H27343547   0.245   5.970   5.748 -0.6996  0.9264  0.9482
   78MOL   H27443548   0.345   6.166   5.817 -0.9938 -3.7925  1.2461
   78MOL   H27543549   0.378   6.129   5.522  0.4641 -0.4938 -2.1413
   78MOL   H27643550   0.537   6.113   5.712  0.3610 -0.2525  1.4142
   78MOL   H27743551   0.496   5.949   5.741  0.9841 -1.5273 -0.7109
   78MOL   H27843552   0.349   5.834   5.551 -1.9708 -0.4586  0.1255
   78MOL   H27943553   0.423   5.912   5.416 -1.6784  0.9843 -2.0141
   78MOL   H28043554   0.195   5.835   5.366  0.1565 -0.2742 -0.6268
   78MOL   H28143555   0.209   6.009   5.347  0.4511 -0.4801 -0.4903
   78MOL   O28243556   0.603   5.984   5.566 -0.1445 -0.0746 -0.4873
   78MOL   C28343557   0.738   6.002   5.612 -0.1558 -0.1643 -0.1946
   78MOL   C28443558   0.823   5.927   5.515 -0.3605  0.2813 -0.3849
   78MOL   O28543559   0.772   5.793   5.508  0.6376 -0.1599 -0.1121
   78MOL   C28643560   0.837   5.991   5.375 -0.0371  0.1065 -0.3530
   78MOL   C28743561   0.707   6.014   5.283  0.0636  0.2539  0.2145
   78MOL   C28843562   0.745   6.080   5.146  0.2612  0.0819  0.3011
   78MOL   O28943563   0.620   6.100   5.076 -0.4841 -0.1869 -0.5454
   78MOL   C29043564   0.842   5.989   5.076  0.3195  0.0700  0.3612
   78MOL   C29143565   0.883   6.048   4.936  0.5507 -0.6534  0.5526
   78MOL   C29243566   0.971   5.974   5.165 -0.3284 -0.0051  0.1860
   78MOL   C29343567   0.936   5.906   5.298  0.3302 -0.1497  0.2888
   78MOL   H29443568   0.740   5.970   5.716 -1.9177  3.7115  1.1311
   78MOL   H29543569   0.769   6.106   5.611 -2.1486  0.4684  0.3488
   78MOL   H29643570   0.917   5.907   5.566 -0.4928  0.2045 -0.1712
   78MOL   H29743571   0.679   5.810   5.508  0.5720 -0.5167  0.1485
   78MOL   H29843572   0.889   6.087   5.386 -1.9502  1.4296 -2.3195
   78MOL   H29943573   0.655   5.921   5.260  0.0365  0.5689 -0.9972
   78MOL   H30043574   0.629   6.067   5.338 -0.1931 -0.9504  1.0378
   78MOL   H30143575   0.795   6.176   5.154  0.0443  0.3950 -1.9248
   78MOL   H30243576   0.575   6.162   5.131 -0.3814  0.4661 -1.1860
   78MOL   H30343577   0.786   5.898   5.058  1.0409 -0.2797 -0.1319
   78MOL   H30443578   0.936   5.974   4.876  0.7931 -1.0274  1.2244
   78MOL   H30543579   0.788   6.063   4.885  0.9847  1.8749  0.4079
   78MOL   H30643580   1.013   6.072   5.187  1.8669 -1.0149  0.5630
   78MOL   H30743581   1.048   5.928   5.103  0.4216  1.8070 -0.2475
   78MOL   H30843582   1.031   5.888   5.348  1.8756  1.4947 -1.9421
   78MOL   H30943583   0.890   5.808   5.284 -0.7952  0.2569  1.0856
   78MOL   O31043584   0.964   6.163   4.922  0.4884  0.1019 -0.7952
   78MOL   C31143585   0.973   6.224   4.801  0.1531 -0.0524  0.4943
   78MOL   C31243586   0.859   6.322   4.792  0.4968 -0.0334  0.5881
   78MOL   O31343587   0.902   6.428   4.875  0.0408 -0.7362 -0.0664
   78MOL   C31443588   0.823   6.351   4.637  0.9803 -0.0312 -0.4630
   78MOL   C31543589   0.927   6.450   4.573  0.6304  0.5423  0.1855
   78MOL   C31643590   0.911   6.471   4.425 -0.0658 -0.9947  0.5464
   78MOL   O31743591   0.996   6.577   4.387  0.0428  0.4531  0.2415
   78MOL   C31843592   0.768   6.519   4.392 -0.5336  0.6004 -0.4633
   78MOL   C31943593   0.745   6.500   4.247  0.1014  0.0044  0.0395
   78MOL   C32043594   0.660   6.435   4.453 -0.2562  0.0583  0.3280
   78MOL   C32143595   0.688   6.417   4.599 -0.4577  0.3132  0.1618
   78MOL   H32243596   0.980   6.141   4.729  4.5236  0.2308  0.4587
   78MOL   H32343597   1.069   6.275   4.796 -0.5232  1.1932 -0.0192
   78MOL   H32443598   0.771   6.270   4.830  0.2598  0.1923  0.3447
   78MOL   H32543599   0.994   6.438   4.857 -0.1029  3.9634  1.0948
   78MOL   H32643600   0.832   6.256   4.585  2.2202 -0.7335  0.9953
   78MOL   H32743601   0.920   6.549   4.620  0.3136  0.4070  0.4262
   78MOL   H32843602   1.020   6.400   4.599  0.2907 -0.0762  0.2112
   78MOL   H32943603   0.940   6.379   4.376 -1.5490 -1.5925  0.7448
   78MOL   H33043604   1.085   6.547   4.398  0.9922  3.2383  0.4657
   78MOL   H33143605   0.751   6.624   4.418  1.9043  0.5149  1.7264
   78MOL   H33243606   0.835   6.539   4.199  1.2857 -0.0430  2.1729
   78MOL   H33343607   0.753   6.395   4.221 -0.2301  0.1727 -0.7522
   78MOL   H33443608   0.640   6.335   4.415  0.4955  0.5080 -1.2703
   78MOL   H33543609   0.567   6.492   4.455  0.3050  0.9655  0.8798
   78MOL   H33643610   0.608   6.360   4.644 -1.2735  2.5378  1.6331
   78MOL   H33743611   0.677   6.506   4.662  0.2242 -1.6166  3.1402
   78MOL   O33843612   0.623   6.562   4.216 -0.4330 -0.3557 -0.7006
   78MOL   C33943613   0.620   6.609   4.080  0.1065 -0.7488 -0.7798
   78MOL   C34043614   0.474   6.650   4.056 -0.6261 -0.0729  0.6184
   78MOL   O34143615   0.472   6.734   3.947 -0.1657 -0.0793  0.2650
   78MOL   C34243616   0.380   6.521   4.041 -0.1954  0.6874  0.3980
   78MOL   C34343617   0.237   6.556   3.995 -0.6340 -0.4108 -0.1242
   78MOL   C34443618   0.144   6.432   3.974 -0.6052 -0.4031  0.2696
   78MOL   O34543619   0.020   6.467   3.929 -0.1694 -0.1664  0.2935
   78MOL   C34643620   0.144   6.340   4.103  0.2273  0.1548 -0.0941
   78MOL   C34743621   0.054   6.219   4.084 -0.2724  0.6335  0.5520
   78MOL   C34843622   0.289   6.300   4.132 -0.1087  0.9745  0.2904
   78MOL   C34943623   0.370   6.426   4.160  0.1474  0.3486 -0.6676
   78MOL   H35043624   0.640   6.534   4.004 -0.8302 -0.2144 -1.5599
   78MOL   H35143625   0.681   6.697   4.060 -0.7852 -0.4469 -2.2791
   78MOL   H35243626   0.438   6.715   4.136 -1.2282  1.7185 -1.0587
   78MOL   H35343627   0.548   6.790   3.947 -0.7791  0.7504  1.2248
   78MOL   H35443628   0.415   6.467   3.954 -1.4160 -0.3892  0.5594
   78MOL   H35543629   0.206   6.605   4.087 -1.6213 -0.6742 -0.3125
   78MOL   H35643630   0.235   6.623   3.909 -2.0983 -1.7647 -1.1880
   78MOL   H35743631   0.186   6.378   3.889  0.3532  2.3802 -1.0606
   78MOL   H35843632   0.001   6.543   3.982  0.8097 -0.6127  1.3295
   78MOL   H35943633   0.115   6.408   4.183  2.1311  0.1796  0.6078
   78MOL   H36043634   7.578   6.245   4.082 -0.6091 -0.7945 -0.9944
   78MOL   H36143635   0.067   6.170   3.988 -0.4839 -0.9519  1.3129
   78MOL   H36243636   0.334   6.254   4.044  0.7697 -1.2841  1.8700
   78MOL   H36343637   0.299   6.231   4.216  4.1629 -1.3766 -2.0221
   78MOL   H36443638   0.467   6.387   4.188 -0.4390 -1.9793 -1.8123
   78MOL   H36543639   0.338   6.482   4.248  0.6430 -0.9909  0.3842
   78MOL   O36643640   0.083   6.128   4.193  0.4209 -0.0019 -0.5133
   78MOL   C36743641   7.620   6.024   4.202 -0.5952  0.2623 -0.3812
   78MOL   C36843642   0.045   5.940   4.324 -0.3593 -0.0464  0.0851
   78MOL   O36943643   0.020   6.031   4.429  0.4382 -0.6333 -0.6916
   78MOL   C37043644   7.586   5.822   4.372  0.0947  0.2262 -0.1225
   78MOL   C37143645   0.002   5.765   4.516 -0.0959 -0.3281 -0.6877
   78MOL   C37243646   7.559   5.641   4.570  1.4982 -0.1960 -0.5252
   78MOL   O37343647   0.008   5.599   4.682 -0.7576 -0.0509  0.0515
   78MOL   C37443648   7.541   5.531   4.458 -0.3688 -0.4700 -0.3604
   78MOL   C37543649   7.458   5.418   4.520  0.1440 -0.5335 -0.3763
   78MOL   C37643650   7.489   5.589   4.328  0.1348 -0.6428  0.3933
   78MOL   C37743651   7.582   5.703   4.271  0.0121  0.3625  0.0217
   78MOL   H37843652   7.619   5.958   4.115 -0.3473 -0.3563  0.0815
   78MOL   H37943653   7.522   6.063   4.231 -0.9332 -0.6218 -0.3049
   78MOL   H38043654   0.148   5.907   4.313 -0.3683  0.3170 -1.1168
   78MOL   H38143655   0.085   6.100   4.428 -0.3148  0.0991  0.2457
   78MOL   H38243656   7.483   5.853   4.382 -0.6758 -1.2049 -3.1814
   78MOL   H38343657   0.111   5.754   4.519 -0.1715 -1.0646 -0.5053
   78MOL   H38443658   7.615   5.842   4.591 -0.7609 -1.9990  0.9044
   78MOL   H38543659   7.460   5.677   4.595  1.1636 -0.2377 -1.7878
   78MOL   H38643660   0.079   5.544   4.654 -1.2001 -0.5731 -0.0572
   78MOL   H38743661   0.010   5.489   4.435 -0.2840  0.9438 -2.6778
   78MOL   H38843662   7.506   5.383   4.611 -0.7010  0.5676  0.4936
   78MOL   H38943663   7.354   5.446   4.537  0.8608  2.3986 -0.6034
   78MOL   H39043664   7.394   5.641   4.338  1.4000  1.2598  3.0293
   78MOL   H39143665   7.478   5.514   4.250 -1.2046 -0.5792  0.5122
   78MOL   H39243666   7.537   5.728   4.175 -0.6576  0.6524  0.4044
   78MOL   H39343667   0.056   5.677   4.250  0.2529 -0.4962  2.1298
   78MOL   O39443668   7.443   5.312   4.421 -0.1651  0.0641  0.3372
   78MOL   C39543669   7.492   5.186   4.463 -0.1181  0.0918  0.5504
   78MOL   C39643670   0.007   5.159   4.412 -0.3574 -0.2264  0.7973
   78MOL   O39743671   0.067   5.061   4.490 -0.0668 -0.0823 -0.1340
   78MOL   C39843672   0.026   5.125   4.260 -0.8331 -0.9574  0.1597
   78MOL   C39943673   0.172   5.102   4.227  0.0259 -0.2597  0.1672
   78MOL   C40043674   0.209   5.078   4.079  0.2283  0.1582  0.2082
   78MOL   O40143675   0.347   5.102   4.075 -0.3018  0.3919 -0.3067
   78MOL   C40243676   0.129   5.179   3.984 -0.1651 -0.0566 -0.5897
   78MOL   C40343677   0.145   5.134   3.831 -0.0527 -0.6650  0.3212
   78MOL   C40443678   7.613   5.190   4.013  0.1152  0.5769 -0.4098
   78MOL   C40543679   7.591   5.224   4.159  0.5884 -0.0976 -0.1982
   78MOL   H40643680   7.433   5.103   4.425 -0.6718 -0.0395  1.6790
   78MOL   H40743681   7.484   5.168   4.570  0.7944  0.5516  0.6957
   78MOL   H40843682   0.065   5.250   4.428  0.6843 -0.5870 -0.8419
   78MOL   H40943683   0.026   4.979   4.465  0.8111 -1.3804  2.4535
   78MOL   H41043684   7.601   5.031   4.261  0.5308 -1.7614  0.4328
   78MOL   H41143685   0.228   5.191   4.257  0.7578 -0.7328  0.2415
   78MOL   H41243686   0.208   5.027   4.298  0.5177 -0.1767  0.0094
   78MOL   H41343687   0.177   4.977   4.052  0.4701  0.4532 -1.2334
   78MOL   H41443688   0.395   5.023   4.094 -1.8401  0.4128  4.1415
   78MOL   H41543689   0.177   5.276   3.997  0.3179 -0.4096  0.2988
   78MOL   H41643690   0.248   5.113   3.802 -1.3786 -5.6543 -1.3692
   78MOL   H41743691   0.081   5.047   3.812 -2.4721  1.6927 -2.9216
   78MOL   H41843692   7.557   5.098   3.993  0.8511 -0.4868  2.1873
   78MOL   H41943693   7.560   5.264   3.953  2.2569  0.8399 -2.0422
   78MOL   H42043694   7.484   5.231   4.179 -0.0348 -0.4530 -3.1167
   78MOL   H42143695   0.006   5.321   4.180  2.5253 -0.2299 -3.4021
   78MOL   O42243696   0.100   5.239   3.740  0.0902 -0.1345 -0.1647
   78MOL   C42343697   0.111   5.217   3.600  0.2261 -0.2663 -0.8063
   78MOL   C42443698   7.623   5.119   3.551 -0.2045 -0.5718  0.6236
   78MOL   O42543699   7.504   5.164   3.614  0.3809 -0.1043  0.2025
   78MOL   C42643700   7.602   5.111   3.401 -0.5834 -1.2799  0.0965
   78MOL   C42743701   7.479   5.030   3.367  0.0216  0.1423 -0.3075
   78MOL   C42843702   7.449   5.026   3.218 -0.1446 -0.0185  0.0417
   78MOL   O42943703   7.343   4.936   3.213  0.3217 -0.1548  0.0721
   78MOL   C43043704   7.575   4.976   3.147 -0.5649  0.3911 -0.9589
   78MOL   C43143705   7.553   4.975   2.992  0.1473 -0.0076 -0.2107
   78MOL   C43243706   0.068   5.056   3.185  0.2954  0.6831  0.1667
   78MOL   C43343707   0.094   5.060   3.331  0.1704  0.2002  0.3185
   78MOL   H43443708   0.207   5.179   3.564  0.9717  2.0709 -1.3704
   78MOL   H43543709   0.100   5.314   3.551 -1.5456  0.0622  0.2177
   78MOL   H43643710   0.023   5.020   3.586  0.9077  0.1228  1.6819
   78MOL   H43743711   7.535   5.205   3.693 -0.8144 -0.4930  0.8811
   78MOL   H43843712   7.571   5.210   3.369  1.6714 -0.8189 -0.7002
   78MOL   H43943713   7.486   4.932   3.414  1.3911 -0.2962 -1.3651
   78MOL   H44043714   7.395   5.077   3.418 -0.6383 -0.3338 -0.9501
   78MOL   H44143715   7.424   5.126   3.184 -0.1788 -0.3810 -1.0023
   78MOL   H44243716   7.268   4.987   3.242  0.5080  0.1213  0.0674
   78MOL   H44343717   7.583   4.872   3.179 -0.6143  0.4394 -0.7891
   78MOL   H44443718   7.487   4.900   2.950  0.7054 -0.7326  0.1960
   78MOL   H44543719   7.525   5.076   2.962  0.9559 -0.3295 -2.0674
   78MOL   H44643720   0.038   5.158   3.161  0.0159  0.5978  0.1436
   78MOL   H44743721   0.159   5.053   3.126 -0.6366 -0.4905 -1.2339
   78MOL   H44843722   0.177   5.126   3.358 -2.7218  3.6671  1.0555
   78MOL   H44943723   0.128   4.959   3.354 -0.2684 -0.1798 -0.6863
   78MOL   O45043724   0.049   4.930   2.938 -0.5425 -0.2515 -0.6287
   78MOL   C45143725   0.036   4.924   2.800  0.3576  0.5909  0.2497
   78MOL   C45243726   0.171   4.907   2.736  0.5330 -0.0018 -0.5232
   78MOL   O45343727   0.269   4.981   2.808 -0.8959  0.2417  0.3878
   78MOL   C45443728   0.198   4.752   2.710 -0.0139 -0.6746  0.5320
   78MOL   C45543729   0.248   4.678   2.837 -0.5026  0.7292  0.0710
   78MOL   C45643730   0.254   4.525   2.796 -0.6224  0.6498  0.1174
   78MOL   O45743731   0.316   4.462   2.908  0.4132  0.0022 -0.0324
   78MOL   C45843732   0.344   4.493   2.672  0.4001 -0.6544  0.5008
   78MOL   C45943733   0.331   4.348   2.631 -0.1285  0.2076  0.2943
   78MOL   C46043734   0.302   4.579   2.557  0.3348  0.9617  0.6102
   78MOL   C46143735   0.297   4.727   2.589 -0.1073 -0.8435  0.2173
   78MOL   H46243736   7.614   5.010   2.756 -0.7930  1.0481  2.4139
   78MOL   H46343737   7.603   4.837   2.785  0.1707  0.5036  1.4523
   78MOL   H46443738   0.154   4.947   2.636 -2.5128 -1.1368 -0.5311
   78MOL   H46543739   0.274   4.933   2.890 -1.6300 -0.5401 -0.0208
   78MOL   H46643740   0.108   4.700   2.678  0.1363 -0.6903  0.1311
   78MOL   H46743741   0.346   4.719   2.858 -0.2747 -0.6027  1.6324
   78MOL   H46843742   0.189   4.699   2.926 -0.2278  0.3683  0.3393
   78MOL   H46943743   0.154   4.483   2.795 -0.1175 -0.6823  2.2509
   78MOL   H47043744   0.400   4.503   2.919  0.7105 -0.6417  0.1203
   78MOL   H47143745   0.442   4.524   2.707 -0.1093  0.4649  0.9727
   78MOL   H47243746   0.385   4.326   2.539 -1.7729  1.9789 -1.1609
   78MOL   H47343747   0.372   4.286   2.710  1.4713  0.4791 -0.3076
   78MOL   H47443748   0.204   4.541   2.529  0.0901  0.5313  2.0230
   78MOL   H47543749   0.367   4.562   2.470 -1.3434 -0.6736 -0.3565
   78MOL   H47643750   0.258   4.787   2.508 -0.6723 -0.2405  0.9320
   78MOL   H47743751   0.397   4.762   2.617 -0.7889  2.8069 -1.7207
   78MOL   O47843752   0.188   4.312   2.599  0.0756 -0.3304 -0.4381
   78MOL   C47943753   0.159   4.170   2.610  0.3865  0.8664  0.6729
   78MOL   C48043754   0.019   4.151   2.676  0.0773 -0.7266 -0.1458
   78MOL   O48143755   7.602   4.020   2.671 -0.6028 -0.5007 -0.1554
   78MOL   C48243756   0.002   4.220   2.813  0.7031 -0.6689 -0.2817
   78MOL   C48343757   0.107   4.182   2.914  0.0956  0.3164 -0.2714
   78MOL   C48443758   0.091   4.055   2.999 -0.0735 -0.8911 -0.0625
   78MOL   O48543759   0.092   3.937   2.917 -0.1076  0.3470  0.1040
   78MOL   C48643760   7.582   4.060   3.069  0.3742  0.1514  0.4999
   78MOL   C48743761   7.584   4.162   3.178 -0.3392  0.0041  0.3284
   78MOL   C48843762   7.469   4.076   2.962  0.4504  0.3354 -0.3513
   78MOL   C48943763   7.493   4.204   2.878 -0.2313  0.3241 -0.2113
   78MOL   H49043764   0.239   4.108   2.651  0.7516  0.5965 -0.4227
   78MOL   H49143765   0.162   4.128   2.510  0.0692 -2.4839  1.9928
   78MOL   H49243766   7.574   4.203   2.616 -0.3911 -2.4212 -1.0699
   78MOL   H49343767   0.005   3.976   2.748 -0.2122  0.2441  0.1036
   78MOL   H49443768   0.008   4.328   2.799  2.8961 -0.5188  1.5186
   78MOL   H49543769   0.207   4.185   2.871  0.5079 -0.7682  0.5706
   78MOL   H49643770   0.123   4.263   2.986 -0.8692  0.3481 -0.0854
   78MOL   H49743771   0.166   4.039   3.076  1.6966  1.2613 -1.2750
   78MOL   H49843772   0.178   3.930   2.878 -1.0915 -1.3833 -1.8021
   78MOL   H49943773   7.575   3.960   3.113 -0.5797 -0.7539 -1.6165
   78MOL   H50043774   0.040   4.140   3.242 -0.4975  0.0804  0.5629
   78MOL   H50143775   7.598   4.262   3.138 -0.0789  0.3651  1.3102
   78MOL   H50243776   7.378   4.097   3.018  1.1748  2.4860  0.0683
   78MOL   H50343777   7.453   3.978   2.917 -0.1797 -1.1309  2.8892
   78MOL   H50443778   7.453   4.293   2.928 -1.4065  2.1155 -4.1049
   78MOL   H50543779   7.420   4.216   2.798  0.8799 -0.0844 -1.2966
   78MOL   O50643780   7.472   4.145   3.253  0.0977 -0.1933 -0.1095
   78MOL   C50743781   7.458   4.231   3.355 -0.3388  0.2128  0.5554
   78MOL   C50843782   7.337   4.187   3.435  0.1998 -0.4686 -0.5784
   78MOL   O50943783   7.370   4.083   3.514  0.1509 -0.2906 -0.2116
   78MOL   C51043784   7.287   4.301   3.525 -0.4593  0.0591  0.0777
   78MOL   C51143785   7.376   4.340   3.635 -0.0353 -0.5431  0.2907
   78MOL   C51243786   7.326   4.462   3.711  0.3299 -0.5213 -0.1861
   78MOL   O51343787   7.422   4.488   3.806  0.4404 -0.1383 -0.1032
   78MOL   C51443788   7.183   4.451   3.772 -0.0838  0.0522  0.9109
   78MOL   C51543789   7.138   4.576   3.845  0.2057  0.2642 -0.5818
   78MOL   C51643790   7.083   4.406   3.667  0.2922 -0.4627  0.3173
   78MOL   C51743791   7.136   4.279   3.580 -0.4389  0.1206 -0.0888
   78MOL   H51843792   7.457   4.331   3.312 -1.6526  0.4070  1.0088
   78MOL   H51943793   7.536   4.232   3.431 -0.1042  3.4813  0.3408
   78MOL   H52043794   7.258   4.150   3.370 -1.6643  0.8421  0.9227
   78MOL   H52143795   7.410   4.014   3.464 -0.5215 -0.0747 -1.0559
   78MOL   H52243796   7.282   4.392   3.465 -0.8658  0.1309  0.2137
   78MOL   H52343797   7.376   4.252   3.700 -2.0322 -1.3414 -0.7610
   78MOL   H52443798   7.482   4.347   3.610  0.1333  0.3196  1.1980
   78MOL   H52543799   7.326   4.543   3.638  1.3738 -1.0343 -0.7591
   78MOL   H52643800   7.377   4.514   3.886 -1.8700  1.5366 -1.8920
   78MOL   H52743801   7.176   4.367   3.842 -2.1701  0.3773  1.1427
   78MOL   H52843802   7.118   4.650   3.768 -1.4652  0.2867 -0.1415
   78MOL   H52943803   7.039   4.561   3.888  0.1165  1.1025 -0.4770
   78MOL   H53043804   7.083   4.481   3.587  0.0700 -0.6186  0.1709
   78MOL   H53143805   6.985   4.390   3.710  0.7783 -1.2253  1.1628
   78MOL   H53243806   7.073   4.267   3.492  0.5656  0.3082 -0.8476
   78MOL   H53343807   7.139   4.187   3.638  0.9290 -0.2437 -0.7148
   78MOL   O53443808   7.233   4.615   3.939 -0.9005 -0.5230 -0.0695
   78MOL   C53543809   7.217   4.747   3.986  0.5107 -0.0800  0.1536
   78MOL   C53643810   7.277   4.770   4.128 -0.0596 -0.0687  0.0127
   78MOL   O53743811   7.188   4.716   4.215 -0.1263  0.1835  0.0014
   78MOL   C53843812   7.412   4.708   4.154 -0.3754  0.1027 -0.2487
   78MOL   C53943813   7.475   4.758   4.293  0.5791  0.5256 -0.7359
   78MOL   C54043814   7.622   4.705   4.325  1.7204 -0.1199 -0.2182
   78MOL   O54143815   0.036   4.784   4.429 -0.1658 -0.6445  0.3089
   78MOL   C54243816   0.078   4.736   4.208 -0.7565 -0.3095 -0.1533
   78MOL   C54343817   0.224   4.689   4.237 -0.3129  0.1429 -0.7854
   78MOL   C54443818   0.028   4.673   4.072 -0.2044 -0.2111  0.0873
   78MOL   C54543819   7.514   4.725   4.032  0.2408 -0.1760  0.0072
   78MOL   H54643820   7.114   4.781   3.994  1.0172  2.1730 -2.1737
   78MOL   H54743821   7.272   4.799   3.907  0.6857 -1.1418 -0.4337
   78MOL   H54843822   7.273   4.875   4.153 -1.2172 -0.1946  0.3579
   78MOL   H54943823   7.195   4.732   4.308 -0.4261 -1.9648  0.4260
   78MOL   H55043824   7.408   4.599   4.155  2.0493 -0.0469 -2.1959
   78MOL   H55143825   7.474   4.867   4.305 -0.2184  0.7958 -3.0988
   78MOL   H55243826   7.402   4.723   4.366  0.2033 -0.1606 -1.4420
   78MOL   H55343827   7.615   4.601   4.356 -0.9951  0.4868  1.4067
   78MOL   H55443828   0.120   4.753   4.459 -0.0423 -0.5890  0.0302
   78MOL   H55543829   0.094   4.843   4.193 -0.0396 -0.4544 -0.4337
   78MOL   H55643830   0.280   4.681   4.144  0.9126 -0.6450  0.0044
   78MOL   H55743831   0.270   4.754   4.312 -1.2746  0.2706 -0.2846
   78MOL   H55843832   0.008   4.567   4.083  0.5431 -0.6015 -2.0596
   78MOL   H55943833   0.096   4.690   3.989 -0.3972 -1.4716 -0.3312
   78MOL   H56043834   7.487   4.667   3.944  0.0943  0.5586 -0.4386
   78MOL   H56143835   7.521   4.831   4.008  1.2245 -0.3504 -0.4781
   78MOL   H56243836   0.224   4.593   4.288 -0.5608  0.4290 -0.2288
   79MOL     O143837   1.461   2.779   3.397 -0.4871  0.1114  0.2624
   79MOL     C243838   1.581   2.781   3.477  0.4976  0.0244 -0.0977
   79MOL     C343839   1.572   2.675   3.584 -0.2342  0.2123 -0.2063
   79MOL     O443840   1.432   2.671   3.624  0.4039 -0.0413  0.0919
   79MOL     C543841   1.605   2.528   3.530 -0.5495  0.8227 -0.1418
   79MOL     C643842   1.510   2.451   3.437  0.0919  0.1646 -0.2644
   79MOL     C743843   1.547   2.309   3.401 -0.1393 -0.5585  0.4062
   79MOL     O843844   1.433   2.256   3.347 -0.1517 -0.4610  0.2463
   79MOL     C943845   1.594   2.218   3.516  0.3091  0.2854 -0.4132
   79MOL    C1043846   1.652   2.086   3.476  0.5099  0.0542  0.5721
   79MOL    C1143847   1.693   2.297   3.618 -0.9635 -0.0177  0.4719
   79MOL    C1243848   1.638   2.437   3.656 -0.0904 -0.5525  0.2516
   79MOL    H1343849   1.586   2.871   3.538  1.0193  0.4001 -0.6896
   79MOL    H1443850   1.671   2.773   3.416  0.3234  2.2735 -0.7170
   79MOL    H1543851   1.639   2.708   3.662  1.8373 -0.9979 -1.4119
   79MOL    H1643852   1.415   2.624   3.704 -2.2060  0.9864  0.2267
   79MOL    H1743853   1.703   2.533   3.482  0.0731  0.7645  1.0751
   79MOL    H1843854   1.409   2.462   3.476  0.4802 -1.2754  1.2007
   79MOL    H1943855   1.497   2.497   3.339 -0.3043  1.1713  0.2575
   79MOL    H2043856   1.625   2.315   3.326  0.2114  0.2124  0.8325
   79MOL    H2143857   1.367   2.242   3.413  1.0353 -0.2727  1.4928
   79MOL    H2243858   1.505   2.212   3.579  2.2047  0.4563  2.3966
   79MOL    H2343859   1.671   2.017   3.557 -1.2785 -0.2597  0.7433
   79MOL    H2443860   1.578   2.029   3.420  0.2641  1.0516 -0.1564
   79MOL    H2543861   1.790   2.317   3.574 -0.5904 -0.1373  1.2456
   79MOL    H2643862   1.695   2.232   3.705 -1.7218  0.3558  0.7811
   79MOL    H2743863   1.707   2.482   3.727 -0.8175  0.0406  0.5895
   79MOL    H2843864   1.541   2.420   3.702 -0.3293  1.2171  0.4335
   79MOL    H2943865   1.392   2.749   3.453  0.1388 -1.1711  0.3821
   79MOL    O3043866   1.776   2.104   3.402 -0.3193 -0.2082  0.0378
   79MOL    C3143867   1.825   1.985   3.342  0.1328  0.4634  0.0886
   79MOL    C3243868   1.969   2.008   3.295 -0.6055 -0.0342  0.0890
   79MOL    O3343869   1.965   2.135   3.230  0.3314 -0.0541  0.0674
   79MOL    C3443870   2.084   2.017   3.401  0.1897 -0.4368  0.1323
   79MOL    C3543871   2.071   2.121   3.511  0.3238  0.0064  0.9470
   79MOL    C3643872   2.175   2.116   3.626 -0.5738  0.1750 -0.4329
   79MOL    O3743873   2.158   2.222   3.718  0.4681 -0.3282 -0.2291
   79MOL    C3843874   2.315   2.134   3.555  0.1295 -0.5505 -0.4657
   79MOL    C3943875   2.429   2.103   3.660  0.6753 -0.2201  0.3452
   79MOL    C4043876   2.332   2.025   3.447  0.0246 -0.1761  0.3746
   79MOL    C4143877   2.225   2.030   3.338  0.4562  0.2114 -0.6544
   79MOL    H4243878   1.764   1.942   3.263  2.5443  0.6791 -1.9580
   79MOL    H4343879   1.834   1.906   3.417 -1.4406  1.9529  1.8817
   79MOL    H4443880   1.999   1.925   3.231  0.7085  1.3627 -1.1369
   79MOL    H4543881   1.901   2.177   3.284  0.9839 -0.7045  1.3791
   79MOL    H4643882   2.069   1.927   3.461  0.7841 -0.5730  0.0840
   79MOL    H4743883   2.077   2.223   3.475  0.0995  0.0019  0.9012
   79MOL    H4843884   1.972   2.101   3.553 -0.0868  1.4021  0.6501
   79MOL    H4943885   2.171   2.022   3.682 -0.9428 -0.4173 -1.4450
   79MOL    H5043886   2.216   2.288   3.684  0.0179  1.6256  2.6050
   79MOL    H5143887   2.326   2.235   3.517 -0.7749 -0.0700  0.5096
   79MOL    H5243888   2.400   2.023   3.728  0.3789  0.7207  1.3270
   79MOL    H5343889   2.519   2.059   3.617  0.4595  0.0725 -0.4124
   79MOL    H5443890   2.332   1.925   3.489  1.7610  0.6366  2.3870
   79MOL    H5543891   2.426   2.021   3.391 -0.8266 -0.8263 -1.0411
   79MOL    H5643892   2.236   1.937   3.284 -0.5371 -0.6540  0.5901
   79MOL    H5743893   2.241   2.113   3.270 -0.9849  1.0836  0.0423
   79MOL    O5843894   2.459   2.213   3.749 -0.0112  0.3859  0.2531
   79MOL    C5943895   2.596   2.205   3.794  0.1581 -0.2976  0.4908
   79MOL    C6043896   2.621   2.322   3.901 -0.0109 -0.2867  0.0863
   79MOL    O6143897   2.744   2.285   3.971  0.3406 -0.1465  0.2427
   79MOL    C6243898   2.650   2.469   3.853  0.0046 -0.5052  0.3894
   79MOL    C6343899   2.671   2.566   3.969  0.0540  0.2751 -0.2489
   79MOL    C6443900   2.722   2.702   3.915 -0.0480 -0.7511  0.4497
   79MOL    O6543901   2.725   2.795   4.026  0.1658 -0.5402  0.7693
   79MOL    C6643902   2.611   2.760   3.819 -0.1453  0.1888  0.2784
   79MOL    C6743903   2.649   2.891   3.751  0.6880  0.1168 -0.1343
   79MOL    C6843904   2.586   2.660   3.704 -0.5169 -0.0353  0.0109
   79MOL    C6943905   2.548   2.522   3.758  0.1571  0.1541 -0.0696
   79MOL    H7043906   2.662   2.204   3.707 -1.5429 -0.4199 -0.8336
   79MOL    H7143907   2.616   2.109   3.840 -0.1646 -0.8057 -0.4148
   79MOL    H7243908   2.541   2.320   3.975 -0.3092  1.0328 -0.1843
   79MOL    H7343909   2.812   2.280   3.905  1.7807 -0.7119  1.7351
   79MOL    H7443910   2.751   2.466   3.812  0.0606  1.0455  0.4053
   79MOL    H7543911   2.585   2.563   4.036 -1.7707 -0.9381 -2.5691
   79MOL    H7643912   2.754   2.527   4.027  0.3868  1.8009  0.3303
   79MOL    H7743913   2.823   2.706   3.876 -1.2310 -1.7677 -2.9220
   79MOL    H7843914   2.806   2.791   4.075  0.5240  0.1110  0.2316
   79MOL    H7943915   2.515   2.768   3.871 -1.4627  0.3784 -2.0957
   79MOL    H8043916   2.692   2.961   3.823  1.2871 -1.5321  1.1539
   79MOL    H8143917   2.735   2.864   3.690  0.4799 -2.8829  0.8401
   79MOL    H8243918   2.679   2.647   3.648 -0.4163  1.6627 -0.2302
   79MOL    H8343919   2.506   2.688   3.636  1.4631 -0.8086 -2.7042
   79MOL    H8443920   2.526   2.455   3.675 -0.8827  0.2933  0.0843
   79MOL    H8543921   2.450   2.530   3.807 -0.8675  1.1133 -2.2353
   79MOL    O8643922   2.542   2.955   3.679  0.3505  0.3060 -0.6339
   79MOL    C8743923   2.445   3.016   3.761 -0.1245  0.0587 -0.0072
   79MOL    C8843924   2.340   3.099   3.681 -0.2072  0.0135  0.2513
   79MOL    O8943925   2.246   3.014   3.606 -0.7771 -0.2532  0.1079
   79MOL    C9043926   2.272   3.216   3.754  0.2214  0.8079 -0.3257
   79MOL    C9143927   2.205   3.157   3.883  0.3757  0.0834  0.0699
   79MOL    C9243928   2.122   3.270   3.951  0.3294  0.2536 -1.2285
   79MOL    O9343929   2.069   3.205   4.062  0.4525 -0.4519 -0.0481
   79MOL    C9443930   2.024   3.334   3.864  0.8136 -0.8313  0.2066
   79MOL    C9543931   1.944   3.439   3.950  0.2519 -0.5565 -0.7006
   79MOL    C9643932   2.090   3.390   3.740  0.4524  0.5946  0.7089
   79MOL    C9743933   2.164   3.282   3.665 -0.4828  1.5754 -0.2764
   79MOL    H9843934   2.478   3.088   3.836  2.9000 -0.5003 -0.7451
   79MOL    H9943935   2.393   2.936   3.815  2.2669 -1.3130  0.3533
   79MOL   H10043936   2.404   3.148   3.607  0.4236  0.0540  0.8247
   79MOL   H10143937   2.298   2.958   3.550 -0.2867  0.4410 -0.1446
   79MOL   H10243938   2.354   3.285   3.776  2.6201 -1.3481 -2.2377
   79MOL   H10343939   2.129   3.085   3.852  0.4584  0.0536 -0.0662
   79MOL   H10443940   2.278   3.106   3.946  2.4798  1.4465 -1.1821
   79MOL   H10543941   2.193   3.349   3.975  0.1973  0.4995 -1.6359
   79MOL   H10643942   2.141   3.154   4.096  0.9091 -0.5762 -1.1968
   79MOL   H10743943   1.952   3.254   3.849 -0.6332  0.6767 -1.0237
   79MOL   H10843944   1.891   3.384   4.027 -1.6659  0.7351 -1.0453
   79MOL   H10943945   2.001   3.516   4.001 -2.8823  0.1001  2.0119
   79MOL   H11043946   2.162   3.470   3.756 -0.1589  0.8222  2.3069
   79MOL   H11143947   2.018   3.435   3.671 -0.0187  1.1104  1.5414
   79MOL   H11243948   2.218   3.322   3.579 -1.9529  1.6858 -1.1693
   79MOL   H11343949   2.094   3.215   3.614  0.0046  0.5256  0.4213
   79MOL   O11443950   1.845   3.501   3.863  0.0870 -0.3895  0.6513
   79MOL   C11543951   1.750   3.581   3.929 -0.1538  0.0042  0.0484
   79MOL   C11643952   1.642   3.644   3.839 -0.4107  0.1888  0.9656
   79MOL   O11743953   1.610   3.776   3.888  0.1183  0.3701  0.5921
   79MOL   C11843954   1.686   3.639   3.695 -0.3989 -0.1308  0.5276
   79MOL   C11943955   1.802   3.740   3.665  0.2584  0.0423 -0.3894
   79MOL   C12043956   1.849   3.736   3.526  1.2039 -0.3423  0.4477
   79MOL   O12143957   1.950   3.830   3.515 -0.6849 -0.1296 -0.5349
   79MOL   C12243958   1.735   3.757   3.414 -0.2648  0.2027 -0.6769
   79MOL   C12343959   1.795   3.746   3.272  0.4717 -0.1024  0.4222
   79MOL   C12443960   1.620   3.660   3.444 -0.9030 -0.1016  0.0485
   79MOL   C12543961   1.568   3.667   3.599 -0.3407 -0.8776  0.5821
   79MOL   H12643962   1.821   3.656   3.965 -0.8564  0.6553  0.0810
   79MOL   H12743963   1.697   3.531   4.010 -2.9214 -0.1852 -1.8099
   79MOL   H12843964   1.558   3.575   3.846 -0.1225 -0.2491  0.1916
   79MOL   H12943965   1.601   3.771   3.982 -0.2851 -0.4826  0.5176
   79MOL   H13043966   1.717   3.536   3.675 -0.3185 -0.0131  0.0382
   79MOL   H13143967   1.778   3.844   3.688 -1.4962 -0.5045  0.2801
   79MOL   H13243968   1.885   3.721   3.733 -0.8093  1.1142  1.2448
   79MOL   H13343969   1.889   3.635   3.511 -0.4548 -0.9241 -0.1240
   79MOL   H13443970   2.034   3.789   3.530 -1.1301 -1.0068 -0.3999
   79MOL   H13543971   1.695   3.854   3.441  1.2122  0.7817 -0.5024
   79MOL   H13643972   1.889   3.800   3.264  0.2740  0.2011  0.0982
   79MOL   H13743973   1.813   3.640   3.253  0.5600  0.2528 -1.5571
   79MOL   H13843974   1.656   3.562   3.412  0.5123  1.3061 -2.8498
   79MOL   H13943975   1.541   3.687   3.374 -0.0965  1.5905 -0.2348
   79MOL   H14043976   1.488   3.592   3.604  0.2136 -1.4002  1.6344
   79MOL   H14143977   1.526   3.766   3.616  0.9457  0.1145 -1.8218
   79MOL   O14243978   1.696   3.793   3.190 -0.1516  0.2565  0.6655
   79MOL   C14343979   1.728   3.802   3.046  0.0210 -0.3010  0.1712
   79MOL   C14443980   1.630   3.722   2.959 -0.2977  0.7938 -0.7697
   79MOL   O14543981   1.507   3.790   2.979  0.6926  0.3090 -0.1601
   79MOL   C14643982   1.642   3.716   2.806 -0.4314 -0.2589  0.1873
   79MOL   C14743983   1.769   3.642   2.764 -0.4817  0.9602  0.7982
   79MOL   C14843984   1.782   3.620   2.607  0.3289 -0.0923  0.3841
   79MOL   O14943985   1.905   3.560   2.588 -0.7456 -0.3026  0.2039
   79MOL   C15043986   1.769   3.756   2.530  0.0583 -0.0242  0.1699
   79MOL   C15143987   1.783   3.744   2.380 -0.0109  0.3670  0.2035
   79MOL   C15243988   1.639   3.824   2.576  0.1219 -0.6392  0.5490
   79MOL   C15343989   1.630   3.848   2.724  0.1296  0.2043  0.5716
   79MOL   H15443990   1.829   3.777   3.015  0.8360  0.4962  2.1154
   79MOL   H15543991   1.738   3.909   3.027  1.2972 -0.7539 -1.8829
   79MOL   H15643992   1.615   3.621   2.997  1.3654  0.1491 -1.7681
   79MOL   H15743993   1.506   3.807   3.072 -1.4088 -1.1565  0.1337
   79MOL   H15843994   1.554   3.661   2.770  0.3937 -1.9134  0.6563
   79MOL   H15943995   1.852   3.702   2.801 -0.7689  1.5067  0.5589
   79MOL   H16043996   1.791   3.550   2.819 -3.7957  0.5091  1.4473
   79MOL   H16143997   1.706   3.546   2.581  0.8023 -1.9858  4.0240
   79MOL   H16243998   1.902   3.473   2.623  2.7255 -1.1821 -1.5369
   79MOL   H16343999   1.841   3.826   2.571  0.1923  1.0787 -1.8549
   79MOL   H16444000   1.890   3.746   2.357 -0.2199  3.3259 -0.7958
   79MOL   H16544001   1.743   3.650   2.343 -2.0864 -0.1229  3.5146
   79MOL   H16644002   1.550   3.775   2.538 -0.0431 -0.0466  0.1715
   79MOL   H16744003   1.618   3.915   2.521 -1.4281 -1.8574 -0.9320
   79MOL   H16844004   1.542   3.908   2.749 -0.6475 -0.0254 -1.5880
   79MOL   H16944005   1.712   3.911   2.759  1.1352 -1.7618  1.8434
   79MOL   O17044006   1.730   3.862   2.318  0.4040  0.2653 -0.8737
   79MOL   C17144007   1.744   3.849   2.173 -0.0911 -0.2475 -0.8597
   79MOL   C17244008   1.715   3.981   2.111  0.8915 -0.4319 -0.5820
   79MOL   O17344009   1.576   3.990   2.156 -0.0235 -0.2063 -0.1362
   79MOL   C17444010   1.786   4.108   2.163  0.4697  0.2443  0.7805
   79MOL   C17544011   1.746   4.239   2.090 -0.0812 -0.5839  0.1091
   79MOL   C17644012   1.824   4.373   2.125 -0.1311  0.0474 -0.3937
   79MOL   O17744013   1.784   4.469   2.030 -0.2132  0.1858 -0.5538
   79MOL   C17844014   1.976   4.336   2.118 -0.9338 -0.2110 -0.4093
   79MOL   C17944015   2.060   4.462   2.149  0.4282 -0.2160  0.0378
   79MOL   C18044016   2.009   4.206   2.196 -0.3556 -0.7745 -0.4566
   79MOL   C18144017   1.932   4.090   2.139 -0.9242  0.0245 -0.0539
   79MOL   H18244018   1.673   3.774   2.141  1.4460 -1.6369 -1.0525
   79MOL   H18344019   1.845   3.815   2.150  0.4958  1.5990 -1.1744
   79MOL   H18444020   1.722   3.972   2.003  0.1121 -0.1912 -0.6579
   79MOL   H18544021   1.569   3.931   2.229 -2.7752 -1.6883 -1.5115
   79MOL   H18644022   1.757   4.120   2.268 -0.2452  0.2941  0.5774
   79MOL   H18744023   1.772   4.214   1.988  1.0642  0.2721  0.1813
   79MOL   H18844024   1.637   4.247   2.097 -0.1598 -0.7737 -0.9239
   79MOL   H18944025   1.785   4.403   2.222  2.1707  1.3824  0.1346
   79MOL   H19044026   1.690   4.474   2.025 -0.3788 -1.3963  0.5649
   79MOL   H19144027   1.987   4.310   2.012 -1.4835  1.2518 -0.8297
   79MOL   H19244028   2.164   4.455   2.115 -0.0150 -2.0187 -0.9840
   79MOL   H19344029   2.025   4.557   2.108  2.7473  0.4086 -0.5627
   79MOL   H19444030   1.975   4.221   2.298 -2.7762  0.2281 -1.3881
   79MOL   H19544031   2.116   4.184   2.192 -0.4575 -0.9976 -2.1728
   79MOL   H19644032   1.980   4.005   2.187 -0.8288 -0.8109 -1.6261
   79MOL   H19744033   1.955   4.083   2.033 -2.1883 -1.1090 -0.2684
   79MOL   O19844034   2.066   4.471   2.290  0.0082 -0.1006 -0.1918
   79MOL   C19944035   2.141   4.587   2.337 -0.1042 -0.3631 -0.5494
   79MOL   C20044036   2.218   4.560   2.465 -0.0116 -0.8717 -0.0945
   79MOL   O20144037   2.150   4.541   2.585 -0.5559 -0.1492 -0.6724
   79MOL   C20244038   2.322   4.444   2.459 -0.0769 -0.1398  0.4229
   79MOL   C20344039   2.427   4.455   2.572  0.0374  0.6727 -0.4475
   79MOL   C20444040   2.533   4.566   2.557  0.0209  0.3489 -0.5728
   79MOL   O20544041   2.482   4.699   2.575 -0.0637 -0.3213 -0.2001
   79MOL   C20644042   2.615   4.550   2.422 -0.1279 -0.0889 -0.0220
   79MOL   C20744043   2.720   4.436   2.426 -0.1057  0.2994  0.5310
   79MOL   C20844044   2.510   4.542   2.312  0.0796 -0.1114  0.0326
   79MOL   C20944045   2.402   4.429   2.328  0.2131  0.6312  0.4437
   79MOL   H21044046   2.079   4.676   2.346 -0.5310 -0.6299 -0.8410
   79MOL   H21144047   2.215   4.606   2.260 -0.0388 -1.7271 -0.8300
   79MOL   H21244048   2.270   4.652   2.494 -1.1012 -0.3344  0.1629
   79MOL   H21344049   2.087   4.474   2.563  0.3775 -1.3388  0.2111
   79MOL   H21444050   2.271   4.348   2.468  0.1156 -0.3354 -0.5718
   79MOL   H21544051   2.380   4.455   2.670 -0.6156 -0.8008 -0.7397
   79MOL   H21644052   2.473   4.357   2.572  0.3538  0.7739 -3.6010
   79MOL   H21744053   2.604   4.552   2.639  0.5171  3.4628 -0.3870
   79MOL   H21844054   2.429   4.683   2.651 -0.5446 -0.1504 -0.5010
   79MOL   H21944055   2.666   4.645   2.408  0.4634  0.1685  3.3980
   79MOL   H22044056   2.791   4.457   2.506  1.8548  0.6347 -1.2713
   79MOL   H22144057   2.665   4.345   2.451  1.8606 -0.8420  0.7615
   79MOL   H22244058   2.563   4.533   2.217 -0.2959 -1.5759 -0.0580
   79MOL   H22344059   2.469   4.642   2.302  1.2347  0.4984  1.3060
   79MOL   H22444060   2.455   4.334   2.330 -1.8313 -0.5494 -0.2364
   79MOL   H22544061   2.332   4.420   2.245 -0.6461  2.0770  0.9889
   79MOL   O22644062   2.789   4.426   2.304  0.1304  0.7580  0.2445
   79MOL   C22744063   2.889   4.527   2.273  0.1022 -0.0816  0.5353
   79MOL   C22844064   2.937   4.496   2.134  0.1313 -0.1132  0.1526
   79MOL   O22944065   2.971   4.360   2.149  0.3553 -0.3015 -0.5437
   79MOL   C23044066   2.815   4.506   2.033  0.4079 -0.4222 -0.6900
   79MOL   C23144067   2.845   4.451   1.889 -0.3497 -0.3658  0.0451
   79MOL   C23244068   2.721   4.459   1.800 -0.6444 -0.0843  0.3411
   79MOL   O23344069   2.781   4.435   1.669 -0.5052  0.0876  0.1689
   79MOL   C23444070   2.656   4.599   1.787 -0.3872 -0.2061 -0.7243
   79MOL   C23544071   2.534   4.591   1.699  0.2236  0.2496 -0.8952
   79MOL   C23644072   2.637   4.664   1.932  0.4677 -0.3450  0.2369
   79MOL   C23744073   2.757   4.654   2.024  0.8092  0.5540 -0.1324
   79MOL   H23844074   2.973   4.521   2.341  0.9252  2.0896 -0.2519
   79MOL   H23944075   2.851   4.628   2.288  1.0021  0.2897  0.3603
   79MOL   H24044076   3.023   4.550   2.095  1.0625 -0.9058  1.0856
   79MOL   H24144077   2.914   4.334   2.220 -0.0859  0.4698 -0.6134
   79MOL   H24244078   2.748   4.439   2.088 -0.0540 -0.1533 -0.9192
   79MOL   H24344079   2.936   4.501   1.859  0.4309  0.1514  3.0631
   79MOL   H24444080   2.869   4.345   1.884  2.0152  0.2191 -1.4678
   79MOL   H24544081   2.648   4.389   1.840 -0.3816  0.5130  1.9168
   79MOL   H24644082   2.839   4.504   1.642 -2.2507  1.2067 -0.7658
   79MOL   H24744083   2.728   4.661   1.733 -0.4675  1.2350  0.8125
   79MOL   H24844084   2.548   4.522   1.616 -0.6433  0.5489 -1.2962
   79MOL   H24944085   2.442   4.564   1.751  0.5561  1.6718  0.4707
   79MOL   H25044086   2.544   4.628   1.976 -0.0663  2.3745  1.4442
   79MOL   H25144087   2.602   4.765   1.911  0.7356 -0.8656 -3.0678
   79MOL   H25244088   2.708   4.688   2.115 -0.3372  3.3631 -1.7657
   79MOL   H25344089   2.829   4.728   1.990  0.1494  0.1434 -2.4573
   79MOL   O25444090   2.513   4.716   1.630 -0.1379  0.8818  0.3957
   79MOL   C25544091   2.387   4.778   1.615 -0.2234 -0.2379 -0.0658
   79MOL   C25644092   2.397   4.911   1.546 -0.0515 -0.1447 -0.1485
   79MOL   O25744093   2.263   4.953   1.518  0.8550 -0.3658  0.0245
   79MOL   C25844094   2.452   5.029   1.633 -0.3230 -0.4569 -0.5554
   79MOL   C25944095   2.459   5.159   1.553  0.0327 -0.8392  0.0259
   79MOL   C26044096   2.492   5.281   1.645  0.0121  0.6507  0.0996
   79MOL   O26144097   2.501   5.398   1.570  0.2449 -0.3431 -0.2039
   79MOL   C26244098   2.620   5.267   1.728  0.5155  0.3851  0.6167
   79MOL   C26344099   2.646   5.373   1.838 -0.1381  0.2643 -0.1837
   79MOL   C26444100   2.644   5.128   1.788 -0.5074  0.1736 -0.2012
   79MOL   C26544101   2.588   5.012   1.704 -0.8364 -0.4040  0.4377
   79MOL   H26644102   2.332   4.786   1.708 -1.3661 -0.5583 -0.6971
   79MOL   H26744103   2.326   4.715   1.549  1.3054  0.9870 -2.7147
   79MOL   H26844104   2.452   4.898   1.453 -1.3220  0.9306 -1.0626
   79MOL   H26944105   2.247   4.931   1.427  1.2302  0.5189 -0.2609
   79MOL   H27044106   2.384   5.065   1.709 -1.3630 -0.2848 -1.5610
   79MOL   H27144107   2.538   5.157   1.477  1.2201 -0.8432  1.2469
   79MOL   H27244108   2.366   5.174   1.499  0.4037 -0.4992 -0.5238
   79MOL   H27344109   2.408   5.286   1.714 -1.6854 -2.3237 -1.6116
   79MOL   H27444110   2.542   5.464   1.623  0.0230 -0.0420 -0.4071
   79MOL   H27544111   2.710   5.272   1.666  1.1061  2.9378  1.6152
   79MOL   H27644112   2.589   5.351   1.928 -0.0118 -1.2220 -0.4510
   79MOL   H27744113   2.752   5.373   1.867 -0.2742  2.0985  0.3736
   79MOL   H27844114   2.597   5.124   1.887 -2.9625 -0.6688 -1.3681
   79MOL   H27944115   2.748   5.117   1.819 -0.3999 -3.0690 -1.5297
   79MOL   H28044116   2.581   4.924   1.769 -0.4150 -0.6099  0.2095
   79MOL   H28144117   2.657   5.009   1.619  1.7196 -1.2525  2.4955
   79MOL   O28244118   2.625   5.505   1.788  0.1086  0.1324  0.3167
   79MOL   C28344119   2.636   5.601   1.895 -0.8264  0.8139 -0.7083
   79MOL   C28444120   2.586   5.740   1.854 -0.0075 -0.4856  0.0153
   79MOL   O28544121   2.622   5.826   1.967 -0.0993 -0.0100 -0.0351
   79MOL   C28644122   2.627   5.800   1.724 -0.1878 -0.4422  0.1528
   79MOL   C28744123   2.779   5.796   1.705  0.2596  1.1366 -0.2454
   79MOL   C28844124   2.825   5.868   1.577  0.0178 -0.1925 -0.0644
   79MOL   O28944125   2.961   5.851   1.584  0.9793 -0.0398 -0.5234
   79MOL   C29044126   2.779   6.019   1.576 -0.7983 -0.1375 -0.6492
   79MOL   C29144127   2.834   6.105   1.456  0.5390  0.1736 -0.0379
   79MOL   C29244128   2.625   6.018   1.584  0.3219  0.1139 -0.5766
   79MOL   C29344129   2.586   5.947   1.715  0.4777  0.3530  0.3039
   79MOL   H29444130   2.740   5.598   1.929 -0.7305 -0.2596 -1.0872
   79MOL   H29544131   2.579   5.586   1.987 -2.3168  2.9705 -1.2590
   79MOL   H29644132   2.477   5.738   1.853 -0.1741  3.7625  1.2306
   79MOL   H29744133   2.716   5.829   1.977 -0.3685  1.2190  2.3602
   79MOL   H29844134   2.578   5.746   1.642 -0.3043  1.6356 -1.1769
   79MOL   H29944135   2.832   5.843   1.788 -0.4135  1.2064  0.1534
   79MOL   H30044136   2.804   5.690   1.699 -0.4911  0.9834 -0.8745
   79MOL   H30144137   2.787   5.808   1.495  1.7482 -0.5027 -0.6610
   79MOL   H30244138   2.990   5.923   1.531 -3.0935  0.4641 -2.2475
   79MOL   H30344139   2.816   6.073   1.663 -0.7738  1.2817 -1.5113
   79MOL   H30444140   2.935   6.069   1.435  0.0613 -1.5847  0.5945
   79MOL   H30544141   2.775   6.072   1.370 -0.2714  1.2079  0.1216
   79MOL   H30644142   2.572   5.981   1.496 -1.6803  1.5932 -0.0261
   79MOL   H30744143   2.589   6.121   1.592  1.9322  0.8951 -2.5381
   79MOL   H30844144   2.480   5.958   1.737  0.0434 -0.6025 -1.1950
   79MOL   H30944145   2.623   6.001   1.802 -0.2178  0.6149  0.4380
   79MOL   O31044146   2.826   6.245   1.486 -1.0580  0.1037 -0.1247
   79MOL   C31144147   2.846   6.332   1.374 -0.4688 -0.1375  0.2606
   79MOL   C31244148   2.839   6.469   1.445 -0.0094  0.2113  0.3264
   79MOL   O31344149   2.963   6.527   1.438 -0.9534  0.4388  0.2675
   79MOL   C31444150   2.736   6.577   1.404 -0.2038  0.3070 -0.6799
   79MOL   C31544151   2.585   6.528   1.419  0.1438 -1.0091 -0.2642
   79MOL   C31644152   2.477   6.639   1.382  0.7378 -0.3759 -0.0142
   79MOL   O31744153   2.354   6.581   1.386  0.0234  0.7105 -0.3216
   79MOL   C31844154   2.510   6.699   1.239 -0.3603 -1.0394 -0.0084
   79MOL   C31944155   2.423   6.824   1.216  0.2343  0.4318  0.8204
   79MOL   C32044156   2.655   6.748   1.226  0.2458 -0.2213  0.3126
   79MOL   C32144157   2.752   6.633   1.264  0.2758  0.7230 -0.0109
   79MOL   H32244158   2.762   6.312   1.307 -0.0160  0.3172 -0.4353
   79MOL   H32344159   2.948   6.310   1.344 -0.1218 -0.5323  1.6966
   79MOL   H32444160   2.836   6.454   1.553 -1.1590  0.8390  0.3998
   79MOL   H32544161   2.957   6.621   1.437 -0.7199  0.4763 -2.3877
   79MOL   H32644162   2.747   6.666   1.466  0.3239 -0.5625  0.5169
   79MOL   H32744163   2.558   6.434   1.371 -0.4431 -1.0796  0.2017
   79MOL   H32844164   2.573   6.500   1.523  0.5063 -1.6700 -0.3982
   79MOL   H32944165   2.485   6.723   1.451  0.0048  0.6526 -1.1544
   79MOL   H33044166   2.353   6.507   1.326 -0.9528  0.6662 -0.2585
   79MOL   H33144167   2.487   6.625   1.162 -0.1943  1.6993 -2.7795
   79MOL   H33244168   2.315   6.811   1.217  0.0988  1.3076 -0.5782
   79MOL   H33344169   2.443   6.889   1.301  1.1515 -0.4591  1.3074
   79MOL   H33444170   2.673   6.824   1.301 -2.4854  1.6619 -0.8534
   79MOL   H33544171   2.680   6.782   1.126 -2.3829 -0.4973 -0.4966
   79MOL   H33644172   2.855   6.667   1.254  1.0007 -1.1693  0.6080
   79MOL   H33744173   2.745   6.557   1.186 -0.3243 -0.1055  0.8342
   79MOL   O33844174   2.467   6.891   1.102  0.2332  0.2319  0.5238
   79MOL   C33944175   2.454   7.030   1.107  0.2892 -0.6349 -0.1378
   79MOL   C34044176   2.529   7.099   0.991  0.8755 -0.5849  0.1220
   79MOL   O34144177   2.478   7.040   0.867 -0.0676  0.0012  0.1573
   79MOL   C34244178   2.499   7.246   0.970  0.7801  0.1775 -0.2659
   79MOL   C34344179   2.570   7.339   1.068 -0.5164 -0.6206  0.2030
   79MOL   C34444180   2.542   7.487   1.057  0.0836 -0.0846 -0.2715
   79MOL   O34544181   2.628   7.551   1.148 -0.6787  0.6652 -1.1190
   79MOL   C34644182   2.396   7.517   1.087 -0.8041 -0.0360 -0.2669
   79MOL   C34744183   2.354   0.038   1.115  0.7047  0.2639 -0.5983
   79MOL   C34844184   2.315   7.443   0.979  0.7914  0.1601 -0.0303
   79MOL   C34944185   2.342   7.289   0.974 -0.1613 -0.2682  0.3020
   79MOL   H35044186   2.503   7.065   1.198  1.5501 -1.1020 -0.6287
   79MOL   H35144187   2.347   7.050   1.111 -0.2495 -3.5181  1.0195
   79MOL   H35244188   2.636   7.086   1.002  1.2066  1.1802 -0.8034
   79MOL   H35344189   2.489   6.947   0.879  0.5941 -0.1756 -1.5693
   79MOL   H35444190   2.528   7.268   0.867  1.1956  0.3472 -0.1147
   79MOL   H35544191   2.560   7.302   1.170 -1.4007  1.1389  0.7641
   79MOL   H35644192   2.678   7.326   1.055 -0.4132 -1.4290  1.8100
   79MOL   H35744193   2.560   7.515   0.954  3.6245 -4.3428 -0.9724
   79MOL   H35844194   2.706   7.576   1.100  2.0049  2.7121  3.9873
   79MOL   H35944195   2.376   7.462   1.179  1.6146  3.0365  2.1964
   79MOL   H36044196   2.249   0.035   1.144  0.8737 -1.5597 -0.1401
   79MOL   H36144197   2.409   0.075   1.202 -1.5391 -0.4334  1.1670
   79MOL   H36244198   2.328   7.489   0.881 -0.2727 -1.4694 -0.9510
   79MOL   H36344199   2.215   7.468   1.015  1.5498 -0.5877  2.6852
   79MOL   H36444200   2.298   7.254   0.881 -0.0819  0.6082 -0.0689
   79MOL   H36544201   2.285   7.241   1.054  0.2301  1.9134  1.9373
   79MOL   O36644202   2.377   0.130   1.002  0.2523 -0.3422 -0.8448
   79MOL   C36744203   2.434   0.254   1.036  0.1225  0.0679  0.2834
   79MOL   C36844204   2.590   0.247   1.031  0.3204  0.2720  1.1530
   79MOL   O36944205   2.630   0.291   0.899 -0.3679  0.4589 -0.2951
   79MOL   C37044206   2.667   0.331   1.144 -0.4676  0.2002  0.3235
   79MOL   C37144207   2.635   0.304   1.293  0.1539 -0.2203 -0.3296
   79MOL   C37244208   2.725   0.388   1.383  0.3413 -0.7589 -0.0128
   79MOL   O37344209   2.683   0.375   1.519 -0.3309  0.1941 -0.2858
   79MOL   C37444210   2.735   0.541   1.347 -0.4614 -0.2895  0.2664
   79MOL   C37544211   2.849   0.611   1.426 -0.1664  1.0221  0.1585
   79MOL   C37644212   2.771   0.560   1.202 -0.3628  0.2722 -0.3556
   79MOL   C37744213   2.674   0.483   1.108 -0.3684 -0.7761  0.4133
   79MOL   H37844214   2.402   0.283   1.136  1.0169  0.9164  0.3313
   79MOL   H37944215   2.402   0.330   0.965  0.1513 -0.4978 -0.3438
   79MOL   H38044216   2.624   0.144   1.041  0.2508  0.2127  0.8044
   79MOL   H38144217   2.721   0.273   0.877  0.3886  2.6186  0.9444
   79MOL   H38244218   2.774   0.311   1.140 -0.1213  2.0137 -0.0591
   79MOL   H38344219   2.534   0.332   1.323  1.0208  1.7292  0.8590
   79MOL   H38444220   2.653   0.200   1.322 -4.4565 -0.9492  0.2666
   79MOL   H38544221   2.827   0.353   1.369  1.2233  1.4045  0.7277
   79MOL   H38644222   2.739   0.311   1.561  1.7515  1.7429 -0.6235
   79MOL   H38744223   2.650   0.601   1.380 -1.3429 -1.1198 -0.4569
   79MOL   H38844224   2.836   0.599   1.534 -2.7367 -2.5949 -0.4679
   79MOL   H38944225   2.951   0.577   1.406 -0.9964 -1.2125 -0.3435
   79MOL   H39044226   2.878   0.560   1.181 -0.4322 -1.9723 -0.8043
   79MOL   H39144227   2.750   0.665   1.182 -5.1831 -0.4239  0.4725
   79MOL   H39244228   2.703   0.507   1.006 -0.6881  1.8416  0.9118
   79MOL   H39344229   2.574   0.520   1.126 -0.1861 -0.2199  0.2794
   79MOL   O39444230   2.833   0.750   1.414 -0.1177  0.1718 -0.6653
   79MOL   C39544231   2.935   0.818   1.485 -0.1360  0.5825  0.2785
   79MOL   C39644232   2.902   0.971   1.463  0.4236 -0.0841  0.6156
   79MOL   O39744233   2.775   0.997   1.514 -0.0105  0.3638 -1.0580
   79MOL   C39844234   3.002   1.066   1.530 -0.2908 -0.7235  0.0879
   79MOL   C39944235   2.987   1.214   1.475 -0.2480  0.1947 -0.0683
   79MOL   C40044236   3.092   1.310   1.547  0.4371 -0.4633 -0.5358
   79MOL   O40144237   3.071   1.428   1.487  0.2197  0.3132 -0.3185
   79MOL   C40244238   3.236   1.261   1.520 -0.3915  0.2417  0.0805
   79MOL   C40344239   3.351   1.357   1.571  0.4441 -0.4175 -0.0288
   79MOL   C40444240   3.240   1.123   1.582 -0.5864 -0.1908  0.3207
   79MOL   C40544241   3.147   1.020   1.510  0.2008 -0.2258 -0.0499
   79MOL   H40644242   3.030   0.796   1.436 -0.1592 -1.2173  0.9736
   79MOL   H40744243   2.916   0.797   1.591 -0.0322  1.2856  0.4400
   79MOL   H40844244   2.897   0.982   1.355  0.4760  2.2856  0.8289
   79MOL   H40944245   2.721   0.921   1.499  0.0491 -0.2632  1.7643
   79MOL   H41044246   2.973   1.078   1.634 -0.4241 -0.1998 -0.0043
   79MOL   H41144247   2.994   1.218   1.366 -1.3797  0.3737 -0.1402
   79MOL   H41244248   2.886   1.237   1.507 -1.0141 -1.9955 -0.7602
   79MOL   H41344249   3.057   1.311   1.650 -1.3465 -0.4070 -1.1248
   79MOL   H41444250   3.155   1.460   1.459 -0.3445  3.6135  1.4025
   79MOL   H41544251   3.264   1.255   1.415 -0.5075  0.4013  0.0420
   79MOL   H41644252   3.359   1.361   1.679 -0.9288  0.5378  0.0459
   79MOL   H41744253   3.446   1.315   1.538 -0.3060 -1.8110 -0.4238
   79MOL   H41844254   3.212   1.121   1.688  1.5540  0.0480  0.9173
   79MOL   H41944255   3.343   1.087   1.585  0.5328  2.7680 -0.7302
   79MOL   H42044256   3.165   0.922   1.554  0.2501 -0.4996 -0.6824
   79MOL   H42144257   3.171   1.014   1.404  1.4713 -0.0712  0.2169
   79MOL   O42244258   3.350   1.476   1.495  0.6375  0.2311  0.3552
   79MOL   C42344259   3.464   1.562   1.536 -0.6752 -0.3726 -0.1471
   79MOL   C42444260   3.437   1.652   1.661 -0.1507  0.3332  0.6214
   79MOL   O42544261   3.445   1.573   1.776  0.6876 -0.1451  0.0765
   79MOL   C42644262   3.515   1.779   1.674  0.2693 -0.2100 -0.1743
   79MOL   C42744263   3.669   1.756   1.688  1.1026 -0.5162  0.2726
   79MOL   C42844264   3.748   1.885   1.709 -0.6115  0.8264 -0.2163
   79MOL   O42944265   3.878   1.847   1.745 -0.1683  0.1638 -0.3106
   79MOL   C43044266   3.689   1.971   1.821  0.2792 -0.0881 -0.2362
   79MOL   C43144267   3.762   2.098   1.857  0.0853 -0.1001  0.4747
   79MOL   C43244268   3.534   1.996   1.799 -0.2573 -0.5651 -0.1390
   79MOL   C43344269   3.454   1.873   1.781  0.0749  0.3563  0.3834
   79MOL   H43444270   3.481   1.632   1.454 -0.0510  0.1517  0.4210
   79MOL   H43544271   3.558   1.508   1.545 -0.8431 -0.8146 -0.9991
   79MOL   H43644272   3.334   1.683   1.645 -0.6525 -1.0673  1.1056
   79MOL   H43744273   3.353   1.551   1.781  0.6239 -0.1404 -1.0422
   79MOL   H43844274   3.499   1.833   1.580  0.7415  0.3399  0.0566
   79MOL   H43944275   3.685   1.689   1.772 -1.6979  0.4680  1.6835
   79MOL   H44044276   3.709   1.724   1.592  1.8787  0.3299  0.3084
   79MOL   H44144277   3.748   1.952   1.623 -0.2510 -0.4348 -1.2157
   79MOL   H44244278   3.879   1.817   1.834 -1.4311  2.3589  0.4789
   79MOL   H44344279   3.696   1.901   1.905 -0.6150 -0.6368 -0.6164
   79MOL   H44444280   3.859   2.078   1.902  0.4515  1.6386  0.4926
   79MOL   H44544281   3.773   2.155   1.765  2.0488 -0.4513  0.4748
   79MOL   H44644282   3.513   2.056   1.710 -0.4137 -1.7009 -0.8684
   79MOL   H44744283   3.493   2.066   1.873 -0.5464  0.9224 -1.6799
   79MOL   H44844284   3.353   1.897   1.749 -0.0676  0.8549  1.1836
   79MOL   H44944285   3.438   1.815   1.872 -2.0756 -0.7693 -0.6611
   79MOL   O45044286   3.692   2.171   1.955 -0.0431 -0.3265  0.1668
   79MOL   C45144287   3.765   2.280   2.016  0.4823 -0.1611 -0.1058
   79MOL   C45244288   3.660   2.365   2.095 -0.1953  0.3130  0.6364
   79MOL   O45344289   3.624   2.283   2.213 -0.3940 -0.0274  0.2547
   79MOL   C45444290   3.711   2.502   2.145  0.4211  0.2721  0.4792
   79MOL   C45544291   3.597   2.567   2.236 -0.0638 -0.0275 -0.5780
   79MOL   C45644292   3.626   2.709   2.275  0.9214 -0.4207 -0.0802
   79MOL   O45744293   3.503   2.747   2.337  0.2822 -0.6637 -0.2158
   79MOL   C45844294   3.663   2.798   2.159  0.1712 -0.0944 -0.7218
   79MOL   C45944295   3.693   2.940   2.208 -0.2756  1.0231 -0.1396
   79MOL   C46044296   3.781   2.744   2.080 -0.3366  0.4229 -0.0467
   79MOL   C46144297   3.747   2.601   2.028  0.2939 -0.0138 -0.1035
   79MOL   H46244298   3.815   2.333   1.935 -0.4652  3.0077  1.3014
   79MOL   H46344299   3.840   2.240   2.084 -0.2542 -0.4132  0.5654
   79MOL   H46444300   3.570   2.395   2.041 -0.1408  1.6767  1.2857
   79MOL   H46544301   3.619   2.197   2.175  0.1496 -0.3203  0.8517
   79MOL   H46644302   3.795   2.471   2.208 -0.2291 -1.8532  0.3510
   79MOL   H46744303   3.509   2.571   2.172 -1.7023  2.2899  1.7303
   79MOL   H46844304   3.572   2.510   2.325  1.0024  0.3611 -0.0156
   79MOL   H46944305   3.705   2.718   2.350  0.3807  2.9579  0.1670
   79MOL   H47044306   3.515   2.751   2.431 -1.9848 -0.1480  0.0840
   79MOL   H47144307   3.571   2.797   2.100 -1.1626  0.3541  1.2980
   79MOL   H47244308   3.632   2.965   2.295  0.4753  2.3895  0.0246
   79MOL   H47344309   3.792   2.937   2.253 -0.1027  0.5835 -0.5463
   79MOL   H47444310   3.866   2.744   2.147 -1.1985 -0.3730  1.0798
   79MOL   H47544311   3.806   2.814   2.001 -3.3351 -0.6462 -2.0433
   79MOL   H47644312   3.828   2.556   1.969  0.4342  0.8372 -0.5674
   79MOL   H47744313   3.672   2.605   1.949 -0.8617  0.6423  1.0111
   79MOL   O47844314   3.695   3.041   2.102  0.4419  0.3048 -0.3995
   79MOL   C47944315   3.569   3.079   2.045  0.2387  0.3283  0.9263
   79MOL   C48044316   3.547   3.016   1.906 -0.2263 -0.0543 -0.0077
   79MOL   O48144317   3.427   2.943   1.916  0.0223 -0.0328 -0.4596
   79MOL   C48244318   3.538   3.103   1.774 -0.2512 -0.5064 -0.4438
   79MOL   C48344319   3.395   3.167   1.746 -0.3418  0.2075 -0.3752
   79MOL   C48444320   3.389   3.230   1.604  0.3718  0.2983 -0.3817
   79MOL   O48544321   3.264   3.279   1.579  0.1567 -0.2163  0.0031
   79MOL   C48644322   3.434   3.130   1.491  0.1854 -0.0522  0.1344
   79MOL   C48744323   3.418   3.189   1.351  0.1876  0.7049 -0.1475
   79MOL   C48844324   3.575   3.100   1.515 -0.1309 -0.1178  0.0195
   79MOL   C48944325   3.594   3.030   1.654 -0.6109  0.3177 -0.6721
   79MOL   H49044326   3.549   3.186   2.034  0.6658  0.4360  1.1777
   79MOL   H49144327   3.496   3.045   2.119 -1.1842 -1.1079 -1.0850
   79MOL   H49244328   3.620   2.936   1.897 -0.3466 -0.3309  1.3874
   79MOL   H49344329   3.399   2.909   1.832  0.9030  1.2232 -1.2802
   79MOL   H49444330   3.612   3.180   1.799 -0.8210  0.0698 -0.5185
   79MOL   H49544331   3.318   3.089   1.749  0.9492 -1.0539  0.2927
   79MOL   H49644332   3.364   3.232   1.828  1.4068  0.3773  0.1709
   79MOL   H49744333   3.453   3.319   1.600 -1.3674  1.6612  1.2532
   79MOL   H49844334   3.257   3.359   1.629  2.0395 -0.0924  0.1038
   79MOL   H49944335   3.388   3.033   1.514  0.0129  0.0003  0.0143
   79MOL   H50044336   3.310   3.195   1.336 -0.0073 -1.0480  0.4233
   79MOL   H50144337   3.480   3.276   1.331 -0.7546  0.8395 -2.6653
   79MOL   H50244338   3.636   3.190   1.508 -0.5801  0.2634  0.9639
   79MOL   H50344339   3.612   3.024   1.446 -1.9177 -0.0051 -1.1024
   79MOL   H50444340   3.703   3.024   1.660 -0.7212  0.5522  2.0042
   79MOL   H50544341   3.568   2.924   1.657 -0.3943  0.1911 -2.6450
   79MOL   O50644342   3.462   3.080   1.266  0.2806 -0.0344 -0.8340
   79MOL   C50744343   3.446   3.104   1.129 -0.6576 -0.7743 -0.3946
   79MOL   C50844344   3.493   2.982   1.054  0.5584 -0.2872 -0.6334
   79MOL   O50944345   3.421   2.873   1.109  0.4579  0.0519 -0.3141
   79MOL   C51044346   3.479   2.998   0.900 -0.3970 -0.2703  0.1147
   79MOL   C51144347   3.341   2.976   0.846  0.0574 -0.2152  0.3790
   79MOL   C51244348   3.336   3.000   0.692 -0.1528  0.0374 -0.3928
   79MOL   O51344349   3.212   2.964   0.643  0.0523 -0.8987  0.1304
   79MOL   C51444350   3.436   2.916   0.616  0.5919  0.1866 -0.0002
   79MOL   C51544351   3.445   2.953   0.460 -0.3477  0.1901  0.1838
   79MOL   C51644352   3.576   2.933   0.684  0.5201  0.0811 -0.3277
   79MOL   C51744353   3.579   2.913   0.829  0.7710  0.1835 -0.2979
   79MOL   H51844354   3.521   3.178   1.103  0.3608 -0.3287  3.5272
   79MOL   H51944355   3.347   3.144   1.106 -0.5320 -0.7573 -0.9291
   79MOL   H52044356   3.598   2.974   1.083  0.9341 -1.1593 -2.1854
   79MOL   H52144357   3.438   2.877   1.201 -0.5621 -0.7360 -0.0823
   79MOL   H52244358   3.502   3.103   0.884 -2.3867  0.2989  0.8473
   79MOL   H52344359   3.314   2.873   0.871 -1.1546  0.5401  2.3608
   79MOL   H52444360   3.260   3.035   0.889 -0.1496  0.8896 -1.4583
   79MOL   H52544361   3.347   3.104   0.661 -0.1375 -0.4126 -1.9304
   79MOL   H52644362   3.220   2.943   0.551 -0.0446 -0.6598  0.0665
   79MOL   H52744363   3.400   2.813   0.615  2.4890 -0.4933 -0.5010
   79MOL   H52844364   3.464   3.058   0.435  1.6467  0.0506  1.0731
   79MOL   H52944365   3.523   2.895   0.412  0.8216  0.2956  1.9337
   79MOL   H53044366   3.612   3.035   0.670 -1.3515  0.5421 -1.9062
   79MOL   H53144367   3.645   2.867   0.633  2.0878  1.1629  0.3278
   79MOL   H53244368   3.678   2.941   0.867 -0.0534  2.0075  0.5445
   79MOL   H53344369   3.555   2.809   0.852 -2.5303  1.0783  0.6280
   79MOL   O53444370   3.317   2.924   0.402  0.1310 -0.7744  0.1019
   79MOL   C53544371   3.316   2.895   0.264  0.1769  0.2668 -0.0392
   79MOL   C53644372   3.187   2.810   0.244 -0.1416  0.2326 -0.3462
   79MOL   O53744373   3.145   2.817   0.108  0.2560 -0.3837  0.5062
   79MOL   C53844374   3.198   2.659   0.285 -0.2449  0.5402  0.2461
   79MOL   C53944375   3.055   2.596   0.311  0.6045 -0.0420 -0.4363
   79MOL   C54044376   3.066   2.444   0.340 -0.2941  0.3974  0.4239
   79MOL   O54144377   2.931   2.393   0.367 -0.1044  0.2233 -0.2218
   79MOL   C54244378   3.155   2.409   0.459 -0.4263  0.3287  0.2464
   79MOL   C54344379   3.170   2.257   0.492 -0.3219 -0.0685 -0.1247
   79MOL   C54444380   3.297   2.477   0.447 -0.1799 -0.3081 -0.2241
   79MOL   C54544381   3.279   2.628   0.407 -0.0207  0.6041 -0.2238
   79MOL   H54644382   3.406   2.848   0.224  0.7760  1.6418 -0.3296
   79MOL   H54744383   3.312   2.992   0.216  1.9812  1.3121  1.8066
   79MOL   H54844384   3.115   2.864   0.305  0.8461  0.4271  0.6724
   79MOL   H54944385   3.082   2.888   0.110  1.4983  0.6870  3.6207
   79MOL   H55044386   3.239   2.602   0.203  0.4146 -0.1370  1.0444
   79MOL   H55144387   2.996   2.630   0.396  0.4114  0.0807 -0.6188
   79MOL   H55244388   3.006   2.619   0.216  1.4784  0.8069 -0.6918
   79MOL   H55344389   3.106   2.395   0.251  0.8843 -0.5249  1.4422
   79MOL   H55444390   2.878   2.457   0.323 -0.5169  0.1351  0.1383
   79MOL   H55544391   3.115   2.460   0.546  0.0735 -0.0981  0.7272
   79MOL   H55644392   3.223   2.220   0.579  0.0623 -1.5220 -0.9652
   79MOL   H55744393   3.067   2.222   0.498 -0.5085  0.6869  1.1181
   79MOL   H55844394   3.354   2.412   0.381 -1.6476  0.0762 -1.8816
   79MOL   H55944395   3.344   2.476   0.546  2.2449  0.6405 -1.3225
   79MOL   H56044396   3.377   2.673   0.391  0.5738 -0.8258 -0.7164
   79MOL   H56144397   3.225   2.666   0.494  0.7775 -0.3156  0.6962
   79MOL   H56244398   3.218   2.200   0.412  0.5388  0.9983 -0.3806
   80MOL     O144399   1.633   3.385   6.658  0.3841  0.2078  1.1213
   80MOL     C244400   1.770   3.389   6.653  0.6921 -0.2251  0.6463
   80MOL     C344401   1.835   3.377   6.789 -0.0348 -0.3872 -0.0628
   80MOL     O444402   1.776   3.263   6.846 -0.1009  0.0447 -0.0327
   80MOL     C544403   1.986   3.388   6.813  0.4571 -0.2249 -0.3962
   80MOL     C644404   2.053   3.256   6.767  0.6355  0.6984  0.7060
   80MOL     C744405   2.207   3.247   6.802  0.0299  0.0231 -0.2689
   80MOL     O844406   2.244   3.116   6.751 -0.7120 -0.0469 -0.0046
   80MOL     C944407   2.230   3.260   6.950 -0.0476  0.6101  0.2233
   80MOL    C1044408   2.374   3.245   6.996  0.5686 -0.2886 -0.0446
   80MOL    C1144409   2.176   3.401   6.990  1.0314  0.0565 -0.0773
   80MOL    C1244410   2.021   3.414   6.966 -0.6412  0.3043  0.2335
   80MOL    H1344411   1.805   3.480   6.604  1.0207  0.0876  1.4467
   80MOL    H1444412   1.814   3.311   6.591 -0.5399  0.3754 -1.0064
   80MOL    H1544413   1.782   3.450   6.849  2.4869  0.3064  1.3569
   80MOL    H1644414   1.684   3.281   6.841 -0.2595 -0.5218  0.7103
   80MOL    H1744415   2.027   3.465   6.749  0.3527  1.3850  1.4370
   80MOL    H1844416   1.999   3.173   6.811 -0.6216 -0.1487 -2.3250
   80MOL    H1944417   2.025   3.234   6.664 -1.5871 -1.4735  1.7385
   80MOL    H2044418   2.266   3.329   6.762 -1.9220  1.1590 -0.8682
   80MOL    H2144419   2.324   3.102   6.798  0.2692 -0.7538 -1.8516
   80MOL    H2244420   2.175   3.176   6.993 -1.2958  0.4207 -1.6759
   80MOL    H2344421   2.423   3.331   6.950 -1.9782  1.3926  0.2634
   80MOL    H2444422   2.377   3.254   7.104 -1.4410  0.1407  0.0023
   80MOL    H2544423   2.235   3.477   6.939  1.6601 -2.3040 -2.9391
   80MOL    H2644424   2.205   3.436   7.090 -0.1876  4.8649 -1.2535
   80MOL    H2744425   1.988   3.513   6.997 -1.5888  0.4233 -1.1320
   80MOL    H2844426   1.961   3.344   7.026  0.1916 -0.4158  0.2397
   80MOL    H2944427   1.612   3.293   6.658 -1.5443  0.5643 -2.7056
   80MOL    O3044428   2.414   3.113   6.957 -0.1548 -0.2401 -0.4487
   80MOL    C3144429   2.552   3.083   6.984 -0.5311  0.5989  0.0457
   80MOL    C3244430   2.565   3.035   7.132  0.2372 -0.3756  0.2826
   80MOL    O3344431   2.543   2.890   7.130  0.0149 -0.3194 -0.9540
   80MOL    C3444432   2.698   3.086   7.205  0.1913  0.2189 -0.1954
   80MOL    C3544433   2.682   3.237   7.237  0.1231 -0.5485  0.2923
   80MOL    C3644434   2.795   3.279   7.334  0.6637 -0.4259 -0.8319
   80MOL    O3744435   2.782   3.416   7.348 -0.2176 -0.3203  0.5567
   80MOL    C3844436   2.932   3.250   7.278 -0.3520  0.1105  0.1077
   80MOL    C3944437   3.033   3.270   7.399  0.0120 -0.0250  0.0887
   80MOL    C4044438   2.940   3.109   7.221 -0.5899 -0.9665 -0.4669
   80MOL    C4144439   2.825   3.085   7.124 -0.6645  0.8702 -0.7286
   80MOL    H4244440   2.619   3.164   6.956 -0.8021  1.1418  0.9437
   80MOL    H4344441   2.577   2.997   6.922 -2.0441  0.7277 -0.7682
   80MOL    H4444442   2.475   3.064   7.185  0.5340 -1.6094  1.4782
   80MOL    H4544443   2.463   2.874   7.082 -0.2311 -0.4991 -0.4912
   80MOL    H4644444   2.711   3.039   7.302  0.3772  3.4543  1.4283
   80MOL    H4744445   2.685   3.292   7.143 -1.8091 -1.4973 -0.3509
   80MOL    H4844446   2.590   3.271   7.285 -0.2744  0.4505 -1.1259
   80MOL    H4944447   2.790   3.231   7.431  1.3009  1.5916  0.2200
   80MOL    H5044448   2.731   3.442   7.423  1.8542 -0.6814  2.1805
   80MOL    H5144449   2.955   3.320   7.198 -2.0751  0.0003 -0.5135
   80MOL    H5244450   3.049   3.374   7.426  0.7811 -0.0855 -0.1294
   80MOL    H5344451   3.012   3.225   7.497  2.8273 -0.0343  0.7066
   80MOL    H5444452   2.949   3.037   7.303  0.8194 -0.4521 -0.1554
   80MOL    H5544453   3.037   3.106   7.172 -1.9257 -0.5968 -3.2574
   80MOL    H5644454   2.848   2.990   7.076 -2.5783  0.5412 -1.0531
   80MOL    H5744455   2.826   3.154   7.040 -0.5641 -0.9038 -2.2155
   80MOL    O5844456   3.167   3.234   7.362  0.2878 -0.1585  0.4888
   80MOL    C5944457   3.256   3.239   7.472  0.0701  0.0331  0.2410
   80MOL    C6044458   3.396   3.208   7.418  0.6335  0.1251 -0.2393
   80MOL    O6144459   3.451   3.342   7.393 -0.0830 -0.3536 -0.2143
   80MOL    C6244460   3.500   3.141   7.503 -0.3044 -0.1444  0.0076
   80MOL    C6344461   3.482   2.989   7.534 -0.3010 -0.3243  0.0237
   80MOL    C6444462   3.608   2.938   7.610 -0.0688  0.5165  1.4365
   80MOL    O6544463   3.591   2.810   0.033 -0.5492  0.6891  0.1553
   80MOL    C6644464   3.654   3.015   0.107  0.2014 -0.1314 -0.0701
   80MOL    C6744465   3.793   2.963   0.164 -0.3602  0.7119  0.4598
   80MOL    C6844466   3.674   3.159   0.070 -0.6387  0.3264 -0.3705
   80MOL    C6944467   3.547   3.217   7.628  0.0998 -0.0284  0.2489
   80MOL    H7044468   3.229   3.165   7.547  1.6360 -1.8498 -0.9896
   80MOL    H7144469   3.241   3.337   7.517  0.9057 -0.3231  1.3248
   80MOL    H7244470   3.380   3.149   7.328  0.4111  1.3838 -1.0318
   80MOL    H7344471   3.403   3.405   7.444  1.6400  2.5523 -2.0784
   80MOL    H7444472   3.589   3.131   7.441 -0.1464  0.8072  0.0628
   80MOL    H7544473   3.387   2.967   7.582 -1.1002  0.5314 -1.1650
   80MOL    H7644474   3.463   2.936   7.441  1.2600 -2.9249  1.1382
   80MOL    H7744475   3.686   2.938   7.534  1.0184  1.5346  2.5375
   80MOL    H7844476   3.654   2.762   7.611 -0.8205  1.0310 -0.5107
   80MOL    H7944477   3.574   2.999   0.180  0.3357 -0.0506  0.0936
   80MOL    H8044478   3.797   2.854   0.161 -4.5919  0.4525  1.3485
   80MOL    H8144479   3.879   3.005   0.111  1.3421 -0.3414  2.2986
   80MOL    H8244480   3.761   3.157   0.004 -0.2253 -0.8874  0.1981
   80MOL    H8344481   3.701   3.214   0.161  0.2422  1.7920 -1.4964
   80MOL    H8444482   3.564   3.323   7.611 -1.4283 -0.0146 -1.2869
   80MOL    H8544483   3.468   3.209   0.074 -0.2689  0.7183 -0.0528
   80MOL    O8644484   3.801   2.984   0.298  0.4686 -0.1028  0.0792
   80MOL    C8744485   3.925   2.996   0.365 -0.7033  0.4304  0.4865
   80MOL    C8844486   3.926   2.974   0.517  0.7694  0.2702  0.1296
   80MOL    O8944487   3.876   2.844   0.536  0.1617  0.4894  0.2291
   80MOL    C9044488   4.064   2.980   0.584  0.7683  0.2528 -0.1295
   80MOL    C9144489   4.123   3.114   0.572  0.0959  0.8711  0.6868
   80MOL    C9244490   4.254   3.130   0.645 -0.0591 -0.0318 -0.1734
   80MOL    O9344491   4.304   3.262   0.649  0.3842 -0.1048  0.6870
   80MOL    C9444492   4.356   3.024   0.593 -0.1707  0.2001  0.2104
   80MOL    C9544493   4.494   3.035   0.655 -0.0567 -0.2284  0.1708
   80MOL    C9644494   4.294   2.884   0.610 -0.1268 -0.1760  0.0655
   80MOL    C9744495   4.157   2.860   0.539 -0.1833 -0.1549 -0.4092
   80MOL    H9844496   3.963   3.097   0.349  2.2764 -0.6627  0.2550
   80MOL    H9944497   3.991   2.923   0.317  0.5000  2.1328 -0.4997
   80MOL   H10044498   3.856   3.046   0.560 -0.3663  0.3800 -1.8249
   80MOL   H10144499   3.792   2.837   0.493  0.0549  0.8021  0.3887
   80MOL   H10244500   4.032   2.965   0.687  0.2883 -2.1094 -0.5827
   80MOL   H10344501   4.142   3.140   0.468  4.9695  0.9018  1.4570
   80MOL   H10444502   4.055   3.188   0.616  0.0070  1.0958  0.1678
   80MOL   H10544503   4.230   3.106   0.749  0.9863 -0.0842  0.0614
   80MOL   H10644504   4.379   3.266   0.706  1.6306  0.9759 -0.9786
   80MOL   H10744505   4.387   3.029   0.488 -0.9243  3.8911  0.0952
   80MOL   H10844506   4.533   3.136   0.647 -1.1247  0.1398 -0.4062
   80MOL   H10944507   4.479   3.023   0.762  1.0405  0.8686  0.4572
   80MOL   H11044508   4.285   2.867   0.717  0.9443 -0.6201  0.0904
   80MOL   H11144509   4.364   2.812   0.570  0.9727  1.4641 -1.0235
   80MOL   H11244510   4.127   2.760   0.570  0.5051 -0.4646 -0.7229
   80MOL   H11344511   4.186   2.863   0.434 -0.6946 -1.8051 -0.6155
   80MOL   O11444512   4.587   2.938   0.602  0.0682 -0.5201 -0.1635
   80MOL   C11544513   4.714   2.990   0.575  0.4860  0.0890  0.1520
   80MOL   C11644514   4.794   3.048   0.697 -0.6033 -0.7745 -0.1467
   80MOL   O11744515   4.838   2.942   0.786  0.1023 -0.3699  0.8656
   80MOL   C11844516   4.924   3.124   0.654 -0.2912  0.0217 -0.0665
   80MOL   C11944517   4.890   3.247   0.572  0.8972 -1.0644 -1.0572
   80MOL   C12044518   5.016   3.338   0.552  0.3955  0.3727  0.1293
   80MOL   O12144519   4.978   3.458   0.486 -0.1164 -0.0528 -0.3679
   80MOL   C12244520   5.116   3.249   0.472  0.5228 -0.0265  0.0087
   80MOL   C12344521   5.248   3.318   0.449 -0.4104 -0.7042 -0.3447
   80MOL   C12444522   5.140   3.113   0.544  0.3012  0.0115 -1.1731
   80MOL   C12544523   5.015   3.033   0.571  0.3112  0.1169 -0.4314
   80MOL   H12644524   4.698   3.060   0.493 -0.2497  1.1045  1.1434
   80MOL   H12744525   4.775   2.911   0.531 -0.7975 -0.5885 -0.4471
   80MOL   H12844526   4.724   3.112   0.752 -1.9154 -3.7641  1.7929
   80MOL   H12944527   4.762   2.887   0.797 -1.3891  1.7873  1.6838
   80MOL   H13044528   4.972   3.158   0.746 -0.7522 -0.1236  0.2343
   80MOL   H13144529   4.847   3.234   0.472 -1.8331  0.6412 -0.1538
   80MOL   H13244530   4.817   3.305   0.627  1.7074 -0.3850 -0.6921
   80MOL   H13344531   5.059   3.358   0.650  0.1181 -0.3658  0.4006
   80MOL   H13444532   5.045   3.512   0.448 -0.0351  0.2342  0.1694
   80MOL   H13544533   5.066   3.227   0.378  1.2125  1.1446 -0.6507
   80MOL   H13644534   5.224   3.414   0.404  4.1098  0.5197 -0.3948
   80MOL   H13744535   5.301   3.334   0.543 -1.7283 -0.0422  0.3022
   80MOL   H13844536   5.184   3.139   0.640  0.3244  1.1458 -1.4755
   80MOL   H13944537   5.226   3.063   0.501  0.1309 -0.0555 -1.4349
   80MOL   H14044538   5.043   2.938   0.617 -1.5568  0.2025  0.9445
   80MOL   H14144539   4.983   3.010   0.469  2.1971  1.3996 -1.3413
   80MOL   O14244540   5.326   3.258   0.353 -0.0140  0.3961  0.0585
   80MOL   C14344541   5.454   3.217   0.399 -0.3991 -0.1421 -0.4451
   80MOL   C14444542   5.502   3.121   0.291  0.4109 -0.1022  0.2580
   80MOL   O14544543   5.540   3.195   0.175  0.1804 -1.3621 -0.3269
   80MOL   C14644544   5.623   3.033   0.339 -0.7773 -0.2533 -0.5263
   80MOL   C14744545   5.752   3.109   0.356 -0.0596  0.6050  0.6013
   80MOL   C14844546   5.864   3.009   0.413 -0.7550  0.2613  0.7736
   80MOL   O14944547   5.974   3.097   0.419  0.2079  0.4542 -0.6369
   80MOL   C15044548   5.892   2.899   0.311 -0.7202  0.6218  0.2486
   80MOL   C15144549   5.985   2.797   0.373 -0.4117  0.1742 -0.9671
   80MOL   C15244550   5.765   2.830   0.263 -0.2341  0.3444  0.6899
   80MOL   C15344551   5.653   2.923   0.237  0.5901  0.1314  1.0728
   80MOL   H15444552   5.452   3.176   0.501  0.5530 -0.1475 -0.4156
   80MOL   H15544553   5.521   3.303   0.405 -0.2569 -0.1375 -2.0590
   80MOL   H15644554   5.426   3.050   0.258  0.3901 -0.5908  1.3465
   80MOL   H15744555   5.476   3.264   0.172 -1.7945 -3.1945 -1.0278
   80MOL   H15844556   5.604   2.987   0.436  0.2796 -0.4423 -0.3982
   80MOL   H15944557   5.788   3.159   0.266 -0.7586  1.8521  0.9901
   80MOL   H16044558   5.733   3.191   0.426 -3.6028 -0.7055  1.2480
   80MOL   H16144559   5.838   2.963   0.508  0.8292 -3.7858 -0.6709
   80MOL   H16244560   6.029   3.060   0.487  1.0561  2.1519 -0.3575
   80MOL   H16344561   5.947   2.933   0.223  2.6946 -2.0662  1.2464
   80MOL   H16444562   6.067   2.848   0.424 -0.3696  0.1383 -0.9988
   80MOL   H16544563   5.935   2.745   0.454  2.7846  2.8159  2.9185
   80MOL   H16644564   5.740   2.745   0.327  0.5429 -1.0232 -0.7788
   80MOL   H16744565   5.799   2.782   0.171 -0.1717  4.4537 -1.5773
   80MOL   H16844566   5.565   2.862   0.218  2.0916 -1.6150 -0.4597
   80MOL   H16944567   5.681   2.973   0.144 -0.3664 -1.5347 -0.1257
   80MOL   O17044568   6.041   2.704   0.280 -0.2142  0.2676  0.1374
   80MOL   C17144569   6.162   2.649   0.321  0.0015 -0.0783 -0.2836
   80MOL   C17244570   6.177   2.513   0.257  0.0680 -0.9473  0.2656
   80MOL   O17344571   6.315   2.470   0.250 -0.2247 -0.1668 -0.2447
   80MOL   C17444572   6.090   2.407   0.317 -0.3799 -0.5565 -0.7144
   80MOL   C17544573   6.156   2.349   0.441  0.0105  0.2284 -0.5222
   80MOL   C17644574   6.063   2.252   0.520 -0.9965  0.0762 -0.3441
   80MOL   O17744575   6.139   2.208   0.638  0.5241  0.6388 -0.0289
   80MOL   C17844576   6.035   2.134   0.418 -0.2042 -0.9436 -0.4993
   80MOL   C17944577   5.947   2.032   0.485  0.3441 -0.3388 -0.0677
   80MOL   C18044578   5.970   2.185   0.292  0.7341 -0.1419 -0.4312
   80MOL   C18144579   6.061   2.293   0.220  0.2721 -0.4601  0.1958
   80MOL   H18244580   6.168   2.642   0.429 -0.7464 -0.6810 -0.2741
   80MOL   H18344581   6.250   2.712   0.305  0.9305 -1.5947 -1.3725
   80MOL   H18444582   6.146   2.522   0.153 -1.6101 -0.6985  0.7778
   80MOL   H18544583   6.339   2.442   0.163  3.3860  1.8823  0.0190
   80MOL   H18644584   5.997   2.453   0.350  0.3317  0.3380  0.0914
   80MOL   H18744585   6.248   2.294   0.425 -0.6503  0.0339 -4.0506
   80MOL   H18844586   6.185   2.427   0.512 -1.6732  2.7657 -2.5330
   80MOL   H18944587   5.967   2.294   0.547 -0.0268  1.5843  0.8250
   80MOL   H19044588   6.143   2.264   0.714  0.0645 -2.1083  2.1062
   80MOL   H19144589   6.123   2.079   0.385  1.2985  1.1001  0.0347
   80MOL   H19244590   5.993   1.983   0.571 -1.2777 -0.9324  0.4911
   80MOL   H19344591   5.855   2.081   0.515  1.8222  0.5110  3.3215
   80MOL   H19444592   5.874   2.220   0.330 -0.1254 -2.8298 -0.0482
   80MOL   H19544593   5.940   2.104   0.226 -0.2732 -1.3868  1.5208
   80MOL   H19644594   6.015   2.323   0.126  0.7742  1.3013  0.4835
   80MOL   H19744595   6.161   2.255   0.198  1.1444 -0.4450  3.8656
   80MOL   O19844596   5.926   1.930   0.390 -0.0669  0.7905  0.0379
   80MOL   C19944597   5.797   1.862   0.418 -0.1888  0.2408 -0.1042
   80MOL   C20044598   5.814   1.723   0.339  0.3884 -0.5131  0.0734
   80MOL   O20144599   5.695   1.657   0.375  0.3607 -0.1426 -0.4088
   80MOL   C20244600   5.834   1.727   0.191 -0.3693  0.0670 -0.3232
   80MOL   C20344601   5.724   1.801   0.116  0.5529 -0.5343 -0.3150
   80MOL   C20444602   5.735   1.799   7.589 -0.9185 -0.3156 -0.0525
   80MOL   O20544603   5.604   1.820   7.533  0.6653 -0.1388  0.1119
   80MOL   C20644604   5.763   1.657   7.538 -0.3423  0.0577  1.0691
   80MOL   C20744605   5.797   1.659   7.387 -0.3059 -0.4894  0.3708
   80MOL   C20844606   5.883   1.594   7.615  0.6333 -0.1168  0.2435
   80MOL   C20944607   5.852   1.589   0.139 -0.5876  0.4996 -0.6562
   80MOL   H21044608   5.706   1.919   0.404 -0.1313  0.3108 -0.1891
   80MOL   H21144609   5.809   1.834   0.523  0.3905 -2.6669 -0.9006
   80MOL   H21244610   5.894   1.667   0.387  1.1449  1.6851  1.4441
   80MOL   H21344611   5.628   1.716   0.344  0.1378 -0.7756 -1.1592
   80MOL   H21444612   5.929   1.776   0.174 -0.2607  0.0818  0.3385
   80MOL   H21544613   5.635   1.740   0.134 -1.9901  3.2257  0.4859
   80MOL   H21644614   5.699   1.901   0.151  2.2348 -0.4473  0.7151
   80MOL   H21744615   5.812   1.871   7.560  0.4329 -0.3147  3.2349
   80MOL   H21844616   5.577   1.910   7.547  0.8541 -0.0723  0.0528
   80MOL   H21944617   5.676   1.595   7.559 -0.4946  0.4228  1.5093
   80MOL   H22044618   5.715   1.706   7.334  1.5906 -1.1941 -3.2980
   80MOL   H22144619   5.887   1.717   7.368  1.5665 -2.7351  2.0056
   80MOL   H22244620   5.976   1.648   7.603  1.8448 -1.2174  3.9769
   80MOL   H22344621   5.896   1.496   7.569  0.1874 -0.0022 -0.1289
   80MOL   H22444622   5.935   1.546   0.194 -0.2970  1.5115 -0.2946
   80MOL   H22544623   5.769   1.520   0.157  0.5600 -0.2506  2.0319
   80MOL   O22644624   5.809   1.536   7.326  0.2853  0.6658  0.0758
   80MOL   C22744625   5.804   1.535   7.178  0.1258  0.3801 -0.0366
   80MOL   C22844626   5.899   1.422   7.130  0.7781  0.0909  0.9084
   80MOL   O22944627   6.018   1.443   7.201 -0.0508  0.2284 -0.5508
   80MOL   C23044628   5.858   1.279   7.170  0.2460  0.3047  0.6254
   80MOL   C23144629   5.968   1.176   7.134  0.4746  0.3569  0.8328
   80MOL   C23244630   5.937   1.027   7.160 -0.3144  0.7624  0.4364
   80MOL   O23344631   6.032   0.940   7.114 -0.2190 -0.0778  0.3186
   80MOL   C23444632   5.801   0.973   7.108  0.5153  0.0936  0.0078
   80MOL   C23544633   5.771   0.829   7.135 -0.1593 -0.3185 -0.4190
   80MOL   C23644634   5.698   1.087   7.156  0.0573 -0.5892  0.1865
   80MOL   C23744635   5.729   1.227   7.109 -0.2425 -0.1593 -0.1868
   80MOL   H23844636   5.829   1.631   7.132 -0.4974  0.7125  0.3058
   80MOL   H23944637   5.699   1.521   7.154  0.0362 -1.0928  1.1631
   80MOL   H24044638   5.928   1.432   7.025 -1.9158 -0.1595  0.0968
   80MOL   H24144639   5.982   1.466   7.286  0.0750 -2.7086  0.3555
   80MOL   H24244640   5.840   1.289   7.277  1.2097  0.6565  0.7625
   80MOL   H24344641   5.990   1.184   7.028 -1.1230  2.1665  0.6182
   80MOL   H24444642   6.064   1.213   7.169  1.5628  0.6941 -2.3262
   80MOL   H24544643   5.934   1.018   7.269 -0.2742  0.9195  0.4501
   80MOL   H24644644   6.116   0.970   7.147 -1.1428  2.2462  0.6788
   80MOL   H24744645   5.809   0.981   7.000 -0.2271 -0.5433 -0.0997
   80MOL   H24844646   5.839   0.769   7.073 -0.5348  0.1076 -1.2499
   80MOL   H24944647   5.800   0.804   7.237 -2.9045  2.5275  1.1439
   80MOL   H25044648   5.699   1.082   7.265  1.4882 -0.2428  0.1898
   80MOL   H25144649   5.596   1.064   7.123  0.2745 -3.2572  1.1859
   80MOL   H25244650   5.646   1.294   7.132  2.0221  2.0339  1.9121
   80MOL   H25344651   5.743   1.223   7.001 -1.5866  1.9328 -0.4831
   80MOL   O25444652   5.642   0.794   7.091 -0.2976  0.2589  0.0530
   80MOL   C25544653   5.579   0.676   7.138  0.6374 -0.3820 -0.5933
   80MOL   C25644654   5.628   0.542   7.092 -0.3281 -0.0404  0.2348
   80MOL   O25744655   5.589   0.452   7.193  0.6419 -0.1798  0.1059
   80MOL   C25844656   5.563   0.499   6.948  0.1795 -0.2187  0.8298
   80MOL   C25944657   5.646   0.382   6.892  0.5759 -0.2854 -0.1092
   80MOL   C26044658   5.573   0.322   6.770 -0.0910  0.1352  0.4701
   80MOL   O26144659   5.659   0.223   6.714  0.1841 -0.0827 -0.0253
   80MOL   C26244660   5.561   0.426   6.664 -0.1598 -0.1447 -0.2837
   80MOL   C26344661   5.486   0.371   6.538 -0.4194 -0.4509 -0.3781
   80MOL   C26444662   5.496   0.553   6.717  0.3886 -0.2406  0.2937
   80MOL   C26544663   5.554   0.609   6.842 -0.6427 -0.2153  0.5241
   80MOL   H26644664   5.473   0.688   7.117  0.4745 -0.9006 -0.0909
   80MOL   H26744665   5.597   0.690   7.245 -1.0190  2.8247 -0.6612
   80MOL   H26844666   5.737   0.544   7.101 -0.3225 -2.3818  1.0687
   80MOL   H26944667   5.655   0.457   7.261 -0.1661  2.8053  0.7276
   80MOL   H27044668   5.465   0.452   6.958  0.7034 -1.2842  1.0316
   80MOL   H27144669   5.751   0.395   6.864  0.9198  0.5566  1.5236
   80MOL   H27244670   5.648   0.299   6.962 -1.7973  0.3823  0.7930
   80MOL   H27344671   5.479   0.270   6.793  0.7530 -0.7699  2.0065
   80MOL   H27444672   5.630   0.205   6.626  1.7289 -1.8169 -0.2164
   80MOL   H27544673   5.663   0.456   6.644  0.1474 -1.4818 -0.8107
   80MOL   H27644674   5.392   0.322   6.564  0.7272 -1.7206  1.4455
   80MOL   H27744675   5.464   0.454   6.471  0.2144 -0.1898 -0.2592
   80MOL   H27844676   5.389   0.557   6.736  0.3492 -1.7810  0.4643
   80MOL   H27944677   5.517   0.624   6.637 -1.1266 -0.9651 -0.7490
   80MOL   H28044678   5.500   0.700   6.870  0.0560  1.4378 -3.2920
   80MOL   H28144679   5.657   0.633   6.815 -0.7289  1.6879  1.7875
   80MOL   O28244680   5.576   0.280   6.468 -0.1558 -0.0057  0.3252
   80MOL   C28344681   5.510   0.198   6.383  0.8289 -0.4210 -0.2035
   80MOL   C28444682   5.623   0.141   6.294 -1.0319  0.2872 -0.0813
   80MOL   O28544683   5.571   0.023   6.238  0.6503  0.2462  0.4710
   80MOL   C28644684   5.659   0.236   6.181 -0.5465  0.8586 -0.1232
   80MOL   C28744685   5.757   0.167   6.085  0.1176  0.1881  0.7056
   80MOL   C28844686   5.805   0.254   5.968 -0.2027 -0.1393 -0.2290
   80MOL   O28944687   5.897   0.181   5.884 -0.2664 -0.5022 -0.3519
   80MOL   C29044688   5.878   0.370   6.020  0.3133  0.3304 -0.6922
   80MOL   C29144689   5.924   0.465   5.910  0.2744  0.1410  0.6680
   80MOL   C29244690   5.794   0.453   6.115  0.3538  0.5298 -0.3927
   80MOL   C29344691   5.728   0.366   6.236 -0.4969  0.3854 -0.8336
   80MOL   H29444692   5.437   0.251   6.322 -0.8646  0.1201  2.2109
   80MOL   H29544693   5.455   0.115   6.428  3.6387 -2.0964  0.2396
   80MOL   H29644694   5.709   0.108   6.352 -3.0020 -2.6313  1.3032
   80MOL   H29744695   5.481   0.043   6.221  0.5612  0.0309  0.6891
   80MOL   H29844696   5.567   0.273   6.136 -0.4831 -1.2702 -2.0841
   80MOL   H29944697   5.845   0.138   6.143  0.3286 -0.7298 -0.0760
   80MOL   H30044698   5.716   0.080   6.035 -0.1580  1.3045 -1.0282
   80MOL   H30144699   5.715   0.282   5.914  1.5231  2.5522 -1.7766
   80MOL   H30244700   5.948   0.129   5.944 -2.8086 -1.8395  0.7092
   80MOL   H30344701   5.968   0.332   6.068  0.8469 -1.2458 -2.8516
   80MOL   H30444702   5.982   0.408   5.838 -1.1266  0.3079 -0.6122
   80MOL   H30544703   5.841   0.504   5.852 -1.3763 -1.7382  1.7157
   80MOL   H30644704   5.702   0.492   6.072 -1.3006 -0.6949  1.9134
   80MOL   H30744705   5.849   0.535   6.161 -1.3800  0.3333  2.1364
   80MOL   H30844706   5.654   0.428   6.287 -0.9151 -0.4973 -0.3327
   80MOL   H30944707   5.801   0.318   6.302  0.4831 -0.1405 -2.2778
   80MOL   O31044708   6.006   0.572   5.972  0.3166  0.5717  0.2145
   80MOL   C31144709   6.065   0.653   5.864  0.2142  0.8641  0.3396
   80MOL   C31244710   6.154   0.765   5.929 -0.0219  0.5797  0.0520
   80MOL   O31344711   6.255   0.781   5.832 -0.0880 -0.1286  0.4555
   80MOL   C31444712   6.088   0.894   5.966  0.0609  0.8562 -0.0360
   80MOL   C31544713   5.963   0.863   6.050 -0.3059  0.6513  0.6558
   80MOL   C31644714   5.901   0.984   6.119  0.0200  0.8628  0.5208
   80MOL   O31744715   5.786   0.947   6.182  0.0494  0.0706 -0.5320
   80MOL   C31844716   5.867   1.093   6.012  0.0559 -0.4147 -0.4241
   80MOL   C31944717   5.825   1.227   6.076 -0.0031 -0.2753  0.0857
   80MOL   C32044718   5.982   1.117   5.917  0.1736 -0.5960  0.2181
   80MOL   C32144719   6.029   0.985   5.853 -0.0518  0.0536 -0.2429
   80MOL   H32244720   5.990   0.701   5.800  0.7128  1.3636  0.1252
   80MOL   H32344721   6.118   0.588   5.796 -0.4770 -0.2052  0.8193
   80MOL   H32444722   6.190   0.729   6.026  0.0674  1.5252  0.3668
   80MOL   H32544723   6.286   0.694   5.813  0.7400  0.1344  0.6038
   80MOL   H32644724   6.165   0.946   6.023 -1.1849  0.2123  2.2565
   80MOL   H32744725   5.886   0.811   5.992 -1.2704  0.2453  2.2726
   80MOL   H32844726   5.991   0.807   6.139 -2.6424 -0.9341  0.4328
   80MOL   H32944727   5.974   1.033   6.184 -0.4775  2.2446  0.0700
   80MOL   H33044728   5.810   0.912   6.266 -0.9230 -1.3717 -0.8321
   80MOL   H33144729   5.784   1.057   5.951 -0.6001 -0.0346  0.2409
   80MOL   H33244730   5.786   1.302   6.007  0.2897  1.8098  2.1232
   80MOL   H33344731   5.744   1.207   6.147 -1.0685  1.7772 -0.4947
   80MOL   H33444732   6.059   1.160   5.981 -0.9245  0.0759  1.1099
   80MOL   H33544733   5.947   1.183   5.837 -1.4581 -1.9508 -0.1911
   80MOL   H33644734   6.103   1.009   5.777  0.0260  0.1806 -0.1277
   80MOL   H33744735   5.943   0.933   5.811  0.7746 -1.0590 -0.5938
   80MOL   O33844736   5.931   1.278   6.154 -0.5848 -0.2506 -0.1323
   80MOL   C33944737   5.897   1.390   6.235  0.4404  0.0082 -0.1724
   80MOL   C34044738   5.847   1.338   6.374  0.0298  0.1105 -0.0412
   80MOL   O34144739   5.936   1.239   6.420  0.1172  0.0520  0.0269
   80MOL   C34244740   5.828   1.451   6.479  0.2545  0.3456 -0.2146
   80MOL   C34344741   5.807   1.389   6.628  0.5964  0.0592  0.1364
   80MOL   C34444742   5.770   1.491   6.734 -0.3290  0.1224 -0.2086
   80MOL   O34544743   5.741   1.421   6.850 -0.0947  0.1271 -0.3519
   80MOL   C34644744   5.661   1.588   6.690 -0.2989 -0.2060 -0.0046
   80MOL   C34744745   5.651   1.717   6.783 -0.3399  0.4920  0.7243
   80MOL   C34844746   5.682   1.643   6.548  0.0974 -0.1225  0.2050
   80MOL   C34944747   5.699   1.533   6.446 -0.3972  0.8167  0.2116
   80MOL   H35044748   5.824   1.452   6.181  1.4098  0.1904 -1.2839
   80MOL   H35144749   5.988   1.448   6.247 -0.2149  0.8074  1.1494
   80MOL   H35244750   5.749   1.290   6.365  0.0669  0.4969 -2.7890
   80MOL   H35344751   5.964   1.201   6.338  3.5990 -1.7419  1.9185
   80MOL   H35444752   5.915   1.515   6.469  0.5155 -0.3185 -2.4843
   80MOL   H35544753   5.731   1.313   6.614  0.1687  0.5339 -0.1623
   80MOL   H35644754   5.905   1.348   6.652  1.3422  1.3760 -0.5796
   80MOL   H35744755   5.864   1.538   6.763  1.1364 -2.1125 -1.1429
   80MOL   H35844756   5.661   1.372   6.845 -1.0986  1.8171 -1.0013
   80MOL   H35944757   5.565   1.537   6.698 -0.1948 -0.1313  2.2133
   80MOL   H36044758   5.660   1.686   6.887  3.4693 -1.9583 -0.2285
   80MOL   H36144759   5.716   1.797   6.748  1.4924 -0.6019  1.5395
   80MOL   H36244760   5.773   1.703   6.552  0.1555 -0.1559 -0.5542
   80MOL   H36344761   5.607   1.710   6.507 -1.4854 -0.9417  1.7198
   80MOL   H36444762   5.721   1.570   6.346  0.0369  1.2739  0.4751
   80MOL   H36544763   5.606   1.478   6.436  0.1454 -0.2128  0.7617
   80MOL   O36644764   5.517   1.755   6.764 -0.2057 -0.3389  0.2513
   80MOL   C36744765   5.481   1.866   6.832 -0.5562 -0.8209  0.5778
   80MOL   C36844766   5.329   1.877   6.839 -0.1392 -0.4025  0.1952
   80MOL   O36944767   5.279   1.919   6.707  0.2067 -0.1015  0.2586
   80MOL   C37044768   5.258   1.747   6.886 -0.0483  0.8821  0.0046
   80MOL   C37144769   5.119   1.778   6.937  0.6217  0.3880 -0.2049
   80MOL   C37244770   5.035   1.653   6.985 -0.1149 -0.1240 -0.2744
   80MOL   O37344771   4.909   1.701   7.038 -0.4299 -0.1279  0.2713
   80MOL   C37444772   5.113   1.571   7.093  0.1863  0.0744  1.0893
   80MOL   C37544773   5.042   1.442   7.146 -0.5786 -0.4054  0.2978
   80MOL   C37644774   5.249   1.546   7.040  0.4119 -0.2831 -0.2507
   80MOL   C37744775   5.333   1.668   6.997 -0.4048 -0.0200 -0.5074
   80MOL   H37844776   5.525   1.957   6.792 -0.2967 -1.4487 -0.5836
   80MOL   H37944777   5.512   1.860   6.936  1.9639  2.6629  0.0891
   80MOL   H38044778   5.295   1.946   6.916 -1.4739 -1.7737  0.8598
   80MOL   H38144779   5.304   1.864   6.634  1.9717 -0.7864  1.3581
   80MOL   H38244780   5.253   1.685   6.797 -1.7041 -3.0590  2.6955
   80MOL   H38344781   5.120   1.848   7.020 -2.0697 -0.4806  0.5927
   80MOL   H38444782   5.063   1.819   6.853  2.2827 -1.2227 -2.1506
   80MOL   H38544783   5.031   1.588   6.898 -3.0149 -0.7184  0.2393
   80MOL   H38644784   4.925   1.774   7.096  0.7536  0.2186 -0.4735
   80MOL   H38744785   5.125   1.637   7.179 -0.1514  0.4924  0.8171
   80MOL   H38844786   5.100   1.404   7.230 -0.4074 -2.3886 -0.6709
   80MOL   H38944787   4.945   1.480   7.176 -0.7510 -0.2473 -0.4467
   80MOL   H39044788   5.249   1.474   6.959  1.7290  1.3206 -1.7269
   80MOL   H39144789   5.308   1.485   7.108  1.9000  1.0702 -0.3054
   80MOL   H39244790   5.428   1.635   6.955 -0.3266 -1.7694  0.9302
   80MOL   H39344791   5.355   1.729   7.085 -2.5859 -3.1455  2.3519
   80MOL   O39444792   5.032   1.360   7.030  0.4565  0.3284 -0.0581
   80MOL   C39544793   4.965   1.226   7.057  0.4474  0.1259  0.4310
   80MOL   C39644794   5.011   1.123   6.953  0.1149 -0.2924  0.1525
   80MOL   O39744795   4.971   1.186   6.838  0.1612  0.2109 -0.4896
   80MOL   C39844796   5.164   1.084   6.946  0.0369  0.0511  0.6136
   80MOL   C39944797   5.267   1.198   6.927 -0.2987  0.1329 -0.3440
   80MOL   C40044798   5.410   1.166   6.896  0.0665 -0.1602 -0.0183
   80MOL   O40144799   5.493   1.276   6.866 -0.1403 -0.3379  0.0162
   80MOL   C40244800   5.424   1.055   6.789 -0.6283 -0.1518 -0.1232
   80MOL   C40344801   5.572   0.999   6.797 -0.1771 -0.0506  0.2297
   80MOL   C40444802   5.326   0.938   6.823 -0.0887 -0.2797  0.4804
   80MOL   C40544803   5.181   0.984   6.828 -0.3509  0.3508 -0.0770
   80MOL   H40644804   4.857   1.215   7.058  0.6777 -2.7471 -1.2325
   80MOL   H40744805   4.988   1.179   7.152 -1.2511 -1.3528  0.1435
   80MOL   H40844806   4.943   1.037   6.954  0.1568 -0.3143  2.0563
   80MOL   H40944807   5.026   1.263   6.837  0.2912  0.1849  1.5620
   80MOL   H41044808   5.195   1.036   7.039  0.8342 -0.1974  0.2278
   80MOL   H41144809   5.230   1.265   6.849 -0.1374 -0.0450 -0.5735
   80MOL   H41244810   5.270   1.259   7.017 -2.4594  0.0176 -0.1837
   80MOL   H41344811   5.455   1.122   6.985 -1.5566  0.3495  1.0752
   80MOL   H41444812   5.478   1.313   6.780 -0.6510 -0.0208  0.2354
   80MOL   H41544813   5.405   1.091   6.688 -1.1261  1.7754  0.6287
   80MOL   H41644814   5.641   1.083   6.807  0.3766 -0.5488  0.5800
   80MOL   H41744815   5.584   0.942   6.889  3.2795 -0.3403 -0.3162
   80MOL   H41844816   5.357   0.892   6.917  0.5775  1.2604  1.0181
   80MOL   H41944817   5.326   0.857   6.750 -1.5124  1.2840 -1.2948
   80MOL   H42044818   5.110   0.901   6.823  0.6029 -0.3726 -2.7923
   80MOL   H42144819   5.157   1.032   6.733  0.3895  1.2592  0.1894
   80MOL   O42244820   5.608   0.928   6.678  0.1936  0.3936  0.0164
   80MOL   C42344821   5.741   0.880   6.680  0.0023 -0.4657  0.7439
   80MOL   C42444822   5.773   0.789   6.555 -0.3095  0.4636  0.0250
   80MOL   O42544823   5.754   0.867   6.445  0.0879 -0.0019 -0.6629
   80MOL   C42644824   5.911   0.720   6.562  0.8018 -0.4954  0.3245
   80MOL   C42744825   5.925   0.618   6.445  0.1838  0.3064  0.2677
   80MOL   C42844826   6.049   0.525   6.443  0.2464  0.8774  0.1908
   80MOL   O42944827   6.051   0.436   6.333  0.1184  0.0323  0.5279
   80MOL   C43044828   6.068   0.454   6.582 -0.4165 -0.1893 -0.3842
   80MOL   C43144829   6.197   0.377   6.594  0.2328 -0.0369 -0.4487
   80MOL   C43244830   6.058   0.557   6.693  0.5141 -0.2765  0.1989
   80MOL   C43344831   5.935   0.642   6.691  0.4597  0.3835 -0.6890
   80MOL   H43444832   5.751   0.830   6.776 -0.7263 -1.5336  0.2910
   80MOL   H43544833   5.796   0.973   6.683  0.7472 -0.9174  1.0641
   80MOL   H43644834   5.699   0.708   6.557 -1.2165  1.2742 -0.2385
   80MOL   H43744835   5.678   0.921   6.455 -2.0149 -2.9195 -0.0670
   80MOL   H43844836   5.995   0.790   6.554 -0.4663  0.8559 -1.3632
   80MOL   H43944837   5.837   0.553   6.446 -1.0257  1.9155  2.9192
   80MOL   H44044838   5.929   0.669   6.348  0.8141 -1.8176 -0.8558
   80MOL   H44144839   6.139   0.586   6.436  0.1298  1.0443  0.1383
   80MOL   H44244840   6.025   0.486   6.257  0.4476  1.6877  1.4780
   80MOL   H44344841   5.992   0.377   6.597  0.0321 -0.3579  1.1904
   80MOL   H44444842   6.214   0.313   6.508  1.5797  0.0411 -0.2596
   80MOL   H44544843   6.275   0.453   6.599  0.7371 -0.4614 -1.7456
   80MOL   H44644844   6.141   0.627   6.682 -1.4920  2.4163  1.6596
   80MOL   H44744845   6.066   0.513   6.793  0.0639 -1.7570 -0.3893
   80MOL   H44844846   5.956   0.709   6.774  0.2502  1.9620 -1.8902
   80MOL   H44944847   5.846   0.585   6.718  0.1093  1.7379  1.0667
   80MOL   O45044848   6.213   0.319   6.727 -0.0318  0.1709 -0.5486
   80MOL   C45144849   6.170   0.183   6.745 -0.1208  0.1844 -0.2527
   80MOL   C45244850   6.012   0.153   6.768 -0.9644  0.5246  0.4546
   80MOL   O45344851   5.956   0.116   6.643  1.1051 -0.0023  0.1294
   80MOL   C45444852   5.995   0.035   6.875 -0.5679 -0.4941  0.3975
   80MOL   C45544853   6.041   0.080   7.018  0.5913  0.9532  0.1770
   80MOL   C45644854   6.032   7.597   7.118 -0.6431  0.4242  0.1495
   80MOL   O45744855   6.077   0.013   7.245 -0.2430 -0.2477  0.3060
   80MOL   C45844856   6.102   7.472   7.080 -0.2158  0.5468  0.4709
   80MOL   C45944857   6.088   7.358   7.184  0.5633  0.9130 -0.0595
   80MOL   C46044858   6.050   7.427   6.949 -1.3966  0.1643 -0.7442
   80MOL   C46144859   6.066   7.531   6.840  0.5740  0.0792  0.0531
   80MOL   H46244860   6.236   0.139   6.820  0.1561 -0.4251 -0.8493
   80MOL   H46344861   6.202   0.134   6.653 -3.7471 -0.9259 -0.9742
   80MOL   H46444862   5.967   0.245   6.807 -0.8081  1.1162 -0.7292
   80MOL   H46544863   5.863   0.119   6.661  0.5389  0.9437 -2.6017
   80MOL   H46644864   5.887   0.021   6.881 -0.4901 -0.5668  2.0428
   80MOL   H46744865   6.146   0.110   7.017  0.7589  0.3887 -1.6193
   80MOL   H46844866   5.982   0.162   7.058 -1.0385  0.0466 -0.3498
   80MOL   H46944867   5.926   7.574   7.133 -0.7397  0.2964 -0.7338
   80MOL   H47044868   6.163   0.049   7.227  0.4351 -1.3847  1.2614
   80MOL   H47144869   6.206   7.500   7.065  0.0997 -1.6464 -1.7280
   80MOL   H47244870   6.155   7.274   7.167  0.1304  0.1163  2.0501
   80MOL   H47344871   6.122   7.400   7.279  2.5461  0.9679 -0.7746
   80MOL   H47444872   5.950   7.384   6.951 -2.2046  2.0420 -0.1786
   80MOL   H47544873   6.109   7.336   6.934 -1.5131  0.1774 -1.2737
   80MOL   H47644874   6.023   7.496   6.747  0.5273  1.0240 -0.2875
   80MOL   H47744875   6.174   7.543   6.834  0.6836 -1.4284 -1.0349
   80MOL   O47844876   5.951   7.305   7.182 -0.2538 -0.1485 -0.0084
   80MOL   C47944877   5.934   7.237   7.308 -0.6590 -0.2110 -0.2201
   80MOL   C48044878   5.789   7.207   7.325  0.1374 -0.1887 -0.4534
   80MOL   O48144879   5.720   7.326   7.335 -0.0755  0.3150 -0.6003
   80MOL   C48244880   5.730   7.117   7.212 -0.4834  0.4421  0.6185
   80MOL   C48344881   5.574   7.111   7.220  0.4553  0.2277  0.5779
   80MOL   C48444882   5.518   7.018   7.109 -0.3093 -0.3866  0.1617
   80MOL   O48544883   5.373   7.007   7.114  0.0736 -0.4806 -0.5267
   80MOL   C48644884   5.569   6.878   7.117 -0.9369  0.4119  0.1895
   80MOL   C48744885   5.498   6.771   7.029 -0.0981 -0.3819  1.0033
   80MOL   C48844886   5.721   6.889   7.100  0.4912 -0.7295  0.2377
   80MOL   C48944887   5.789   6.975   7.207 -0.1786  0.5110 -0.3666
   80MOL   H49044888   5.968   7.288   7.399  0.6004 -1.9966  0.3478
   80MOL   H49144889   6.004   7.153   7.303  0.3580  0.6955 -1.5111
   80MOL   H49244890   5.794   7.146   7.415  1.8664 -0.4344 -0.7003
   80MOL   H49344891   5.780   7.398   7.346  1.5679 -1.1404  0.1246
   80MOL   H49444892   5.740   7.172   7.119 -0.8347  0.7755  0.7775
   80MOL   H49544893   5.558   7.072   7.320 -1.4688  1.7418  0.8836
   80MOL   H49644894   5.528   7.210   7.219 -0.9564 -0.4227 -0.7741
   80MOL   H49744895   5.547   7.068   7.017 -0.0309  1.4234  1.1959
   80MOL   H49844896   5.344   7.091   7.146 -0.6811 -0.7299 -0.5474
   80MOL   H49944897   5.548   6.844   7.219 -3.0893 -2.1207 -1.0297
   80MOL   H50044898   5.392   6.754   7.052 -0.3537 -2.7005 -1.5677
   80MOL   H50144899   5.494   6.815   6.930 -1.3046  1.7059  1.9635
   80MOL   H50244900   5.738   6.930   7.000 -1.2418  1.1296  0.6545
   80MOL   H50344901   5.767   6.791   7.102  0.3129 -0.7942  2.5348
   80MOL   H50444902   5.897   6.969   7.191 -0.1160  0.9695 -0.1020
   80MOL   H50544903   5.780   6.938   7.309  1.1816  2.2797  0.4004
   80MOL   O50644904   5.558   6.647   7.029 -0.7763 -0.7266  1.1125
   80MOL   C50744905   5.485   6.537   6.979 -0.0789  0.0261  0.3501
   80MOL   C50844906   5.579   6.431   6.922 -0.1023 -0.6292  1.2374
   80MOL   O50944907   5.656   6.381   7.031 -0.0440 -0.1015 -0.5290
   80MOL   C51044908   5.511   6.311   6.856 -0.1183  0.8866  0.2210
   80MOL   C51144909   5.620   6.213   6.801 -0.5290 -0.1643  0.0780
   80MOL   C51244910   5.557   6.081   6.750  0.1639 -0.0061  0.0610
   80MOL   O51344911   5.666   6.010   6.691  0.4719 -0.6320 -0.2155
   80MOL   C51444912   5.445   6.113   6.646  0.0076  0.2869  0.2674
   80MOL   C51544913   5.393   5.979   6.584  0.4158  0.4483 -0.5386
   80MOL   C51644914   5.333   6.209   6.705  0.1086  0.1279  0.1986
   80MOL   C51744915   5.401   6.339   6.748  0.6194 -0.1930  0.7129
   80MOL   H51844916   5.408   6.562   6.906  2.3187 -1.0423 -2.7148
   80MOL   H51944917   5.437   6.494   7.066 -1.3471  0.0283 -0.3368
   80MOL   H52044918   5.645   6.477   6.848 -1.2705 -0.7926  0.0634
   80MOL   H52144919   5.720   6.445   7.056  0.0208 -0.7178  0.9313
   80MOL   H52244920   5.461   6.263   6.940  0.1031 -0.3147 -0.3255
   80MOL   H52344921   5.670   6.264   6.720  0.2768  0.1887  0.7897
   80MOL   H52444922   5.704   6.185   6.865 -0.4510 -0.2807 -0.0758
   80MOL   H52544923   5.504   6.024   6.826  0.0187 -2.5312 -1.8650
   80MOL   H52644924   5.630   5.937   6.643 -1.1242 -0.2359  0.3410
   80MOL   H52744925   5.501   6.162   6.566 -1.4350  1.0178 -0.3051
   80MOL   H52844926   5.470   5.935   6.521  0.7366 -1.2416  0.9950
   80MOL   H52944927   5.373   5.914   6.669 -1.0666  0.5459 -0.7980
   80MOL   H53044928   5.283   6.143   6.776  0.0221  0.9243  0.8945
   80MOL   H53144929   5.259   6.240   6.632  1.5393  2.5483 -0.2921
   80MOL   H53244930   5.340   6.416   6.794 -0.5718 -2.0826  2.3385
   80MOL   H53344931   5.453   6.384   6.663  1.4524 -0.2463  1.1916
   80MOL   O53444932   5.287   6.011   6.488 -0.7532 -0.3864 -0.0464
   80MOL   C53544933   5.331   6.084   6.370  0.1860 -0.1836 -0.2608
   80MOL   C53644934   5.232   6.077   6.257  0.1476 -0.1391  0.9552
   80MOL   O53744935   5.116   6.156   6.292  0.0241 -0.0064 -0.1511
   80MOL   C53844936   5.290   6.138   6.128  0.2190 -0.2733 -0.6521
   80MOL   C53944937   5.348   6.283   6.141  0.2132 -0.5712  0.0914
   80MOL   C54044938   5.381   6.356   6.009 -0.4675  0.1245 -0.1118
   80MOL   O54144939   5.399   6.491   6.033  0.6279 -0.6788 -0.1334
   80MOL   C54244940   5.272   6.337   5.899  0.3769 -0.4128  0.5052
   80MOL   C54344941   5.325   6.391   5.771 -0.7181  0.2849  0.3477
   80MOL   C54444942   5.240   6.186   5.884  0.1748 -0.5103 -0.2816
   80MOL   C54544943   5.183   6.125   6.011 -0.1874  0.1947 -0.5304
   80MOL   H54644944   5.427   6.050   6.331 -0.3724 -1.4329 -0.5753
   80MOL   H54744945   5.341   6.190   6.395 -0.7973 -0.2779  0.5572
   80MOL   H54844946   5.190   5.978   6.239 -1.6185  1.0398 -1.7384
   80MOL   H54944947   5.099   6.133   6.383  1.5097 -1.0715 -0.1211
   80MOL   H55044948   5.370   6.073   6.095  0.7463  0.0525 -0.0397
   80MOL   H55144949   5.288   6.347   6.206  1.4565 -0.5135  1.2014
   80MOL   H55244950   5.447   6.282   6.187  1.1918 -1.7893 -1.9724
   80MOL   H55344951   5.476   6.319   5.969  1.4345  2.9660  1.5896
   80MOL   H55444952   5.492   6.505   6.039  0.2420  1.3956  1.6805
   80MOL   H55544953   5.179   6.389   5.922 -0.2795 -2.4112  2.4629
   80MOL   H55644954   5.337   6.499   5.781 -0.3913  0.2921 -0.1251
   80MOL   H55744955   5.412   6.332   5.743 -1.6094  0.3075 -2.6268
   80MOL   H55844956   5.331   6.129   5.865 -0.4339 -1.5703 -0.0795
   80MOL   H55944957   5.184   6.162   5.794 -1.1345 -1.2323  0.7020
   80MOL   H56044958   5.149   6.024   5.988 -0.8104  0.3042 -0.1066
   80MOL   H56144959   5.100   6.192   6.035 -2.0079 -1.2002 -2.7189
   80MOL   H56244960   5.257   6.371   5.689 -0.2081  0.0813 -0.0257
   81MOL     O144961   2.669   3.158   4.584 -0.3891 -0.0684 -0.1541
   81MOL     C244962   2.770   3.079   4.526  0.1599 -0.1851  0.8840
   81MOL     C344963   2.879   3.059   4.629  0.5065  0.6704  0.3471
   81MOL     O444964   2.814   2.997   4.735 -0.0745 -0.1525 -0.0754
   81MOL     C544965   3.008   2.972   4.593  0.7594 -0.1463 -0.5124
   81MOL     C644966   3.105   2.959   4.718  0.2460  0.4749 -0.3948
   81MOL     C744967   3.241   2.900   4.691 -0.3766 -0.7112  0.1166
   81MOL     O844968   3.327   2.890   4.803  0.3557 -0.2067 -0.1419
   81MOL     C944969   3.313   2.981   4.582  0.1337  0.5466  0.2955
   81MOL    C1044970   3.462   2.947   4.548 -0.3358 -0.0629 -0.5716
   81MOL    C1144971   3.230   2.964   4.450 -0.1690 -0.1127  0.4609
   81MOL    C1244972   3.090   3.030   4.467 -0.1361 -0.4556  0.5335
   81MOL    H1344973   2.812   3.142   4.447  2.1932 -2.8938 -0.2830
   81MOL    H1444974   2.729   2.990   4.478 -0.3938  0.0311  0.9526
   81MOL    H1544975   2.910   3.159   4.660  0.1679  0.9050 -0.0567
   81MOL    H1644976   2.725   3.029   4.731  0.5196  1.3148 -2.2802
   81MOL    H1744977   2.985   2.867   4.575  0.1886 -0.0400 -0.3854
   81MOL    H1844978   3.124   3.063   4.744 -2.0652  1.1383 -1.2273
   81MOL    H1944979   3.070   2.903   4.804  0.5842 -0.4710 -0.8633
   81MOL    H2044980   3.230   2.798   4.654  0.4364 -0.5499 -0.5732
   81MOL    H2144981   3.373   2.808   4.793 -0.3362 -0.3797 -2.0488
   81MOL    H2244982   3.314   3.087   4.605 -1.1043  0.7549 -0.5583
   81MOL    H2344983   3.521   2.952   4.640 -1.3982 -0.0748  0.1121
   81MOL    H2444984   3.476   2.844   4.514 -0.5593 -0.4587  0.5019
   81MOL    H2544985   3.210   2.859   4.430  1.4251 -0.2724 -0.3234
   81MOL    H2644986   3.288   3.005   4.367  0.6006 -3.2645 -0.6103
   81MOL    H2744987   3.039   2.999   4.376  1.0900 -2.7934  0.5837
   81MOL    H2844988   3.093   3.138   4.472 -1.0894 -0.3985 -0.0113
   81MOL    H2944989   2.693   3.248   4.568 -2.4583  0.4226 -0.6024
   81MOL    O3044990   3.525   3.041   4.465 -0.1470 -0.1700  0.5597
   81MOL    C3144991   3.663   3.023   4.442  0.2310  0.4096 -1.3554
   81MOL    C3244992   3.685   3.067   4.298 -0.3680  0.1171  0.3323
   81MOL    O3344993   3.812   3.116   4.266  0.1726  0.6108 -0.2937
   81MOL    C3444994   3.643   2.964   4.199  0.1951  1.3415 -0.0654
   81MOL    C3544995   3.742   2.853   4.171 -0.0931 -0.2487 -0.4272
   81MOL    C3644996   3.681   2.746   4.079  0.1693  0.2177  0.3404
   81MOL    O3744997   3.786   2.648   4.054 -0.2796 -0.4140 -0.2938
   81MOL    C3844998   3.649   2.814   3.947 -0.2058  0.3687  0.0922
   81MOL    C3944999   3.593   2.708   3.853 -0.0611  0.2306  0.1593
   81MOL    C4045000   3.540   2.916   3.978 -0.1020 -0.3141 -0.8480
   81MOL    C4145001   3.595   3.023   4.064  0.1549  0.0055  0.1736
   81MOL    H4245002   3.687   2.917   4.457 -2.7720 -0.2634 -0.9907
   81MOL    H4345003   3.709   3.077   4.524 -0.5195 -2.1257  0.7936
   81MOL    H4445004   3.630   3.158   4.274  1.5684  1.0229 -0.8749
   81MOL    H4545005   3.874   3.047   4.247  0.8042  0.9476  0.5415
   81MOL    H4645006   3.555   2.921   4.247  0.3165  1.6793  0.4621
   81MOL    H4745007   3.830   2.894   4.120  0.8949 -0.4685  1.0608
   81MOL    H4845008   3.785   2.814   4.264  1.9621  1.9523 -0.4072
   81MOL    H4945009   3.600   2.701   4.135  1.0732  1.2977  2.5855
   81MOL    H5045010   3.749   2.587   3.991 -0.2562 -1.3423  0.5826
   81MOL    H5145011   3.729   2.876   3.907 -0.8246  1.6114  0.7578
   81MOL    H5245012   3.560   2.748   3.757 -0.0211  1.4492  0.6368
   81MOL    H5345013   3.668   2.634   3.826 -0.4053 -0.5912  1.3809
   81MOL    H5445014   3.450   2.879   4.028  0.0541  1.9892  1.2264
   81MOL    H5545015   3.505   2.945   3.879 -0.2053 -2.8576 -1.5913
   81MOL    H5645016   3.528   3.106   4.085 -0.2279 -0.4040  0.5747
   81MOL    H5745017   3.677   3.071   4.010  0.6099 -0.6614  0.2635
   81MOL    O5845018   3.472   2.640   3.912 -0.0404 -0.4917  0.5932
   81MOL    C5945019   3.383   2.573   3.822  0.0268 -0.0156 -0.0734
   81MOL    C6045020   3.279   2.669   3.753  0.2299  0.4766 -0.4257
   81MOL    O6145021   3.165   2.588   3.696 -0.0822  0.1440  0.0942
   81MOL    C6245022   3.225   2.777   3.845 -0.2321  0.0630 -0.0746
   81MOL    C6345023   3.138   2.724   3.958  0.6116  0.2306  0.0338
   81MOL    C6445024   3.081   2.842   4.047  0.3095 -0.4658 -0.6892
   81MOL    O6545025   2.981   2.785   4.129 -0.0917  1.3270 -0.0071
   81MOL    C6645026   3.008   2.946   3.963 -0.4507 -0.5588  0.0377
   81MOL    C6745027   2.918   3.064   4.028  0.1074  0.0575  0.2373
   81MOL    C6845028   3.112   3.002   3.861  0.6915  0.5360  0.4655
   81MOL    C6945029   3.154   2.890   3.771  0.5856  0.4309  1.2324
   81MOL    H7045030   3.344   2.498   3.889  0.7491  0.6549  1.1158
   81MOL    H7145031   3.436   2.516   3.746  0.1120  0.3816 -0.3161
   81MOL    H7245032   3.329   2.717   3.669 -2.3805  1.6137 -1.3652
   81MOL    H7345033   3.120   2.530   3.755 -0.2169 -1.2502 -1.3667
   81MOL    H7445034   3.309   2.827   3.893 -1.6182  2.0908  0.2913
   81MOL    H7545035   3.054   2.677   3.907 -1.1959  1.8735  1.4297
   81MOL    H7645036   3.198   2.653   4.016  0.2430  0.3527  0.5669
   81MOL    H7745037   3.153   2.885   4.117  0.4352 -1.1312 -0.4077
   81MOL    H7845038   3.026   2.735   4.195  0.4616  1.2532 -0.4427
   81MOL    H7945039   2.935   2.894   3.901 -1.2879 -0.9198  1.3087
   81MOL    H8045040   2.829   3.065   3.966  1.1292 -0.7985 -1.2881
   81MOL    H8145041   2.884   3.032   4.126 -0.0484 -1.0302 -0.1707
   81MOL    H8245042   3.189   3.062   3.908 -0.0202  1.4725  0.4574
   81MOL    H8345043   3.053   3.069   3.798 -0.5072 -0.1293  0.8491
   81MOL    H8445044   3.219   2.935   3.696 -1.6074  0.3463 -0.7732
   81MOL    H8545045   3.068   2.849   3.717  1.6261  0.4282 -0.4241
   81MOL    O8645046   2.979   3.194   4.020 -0.4119  0.4415  0.0336
   81MOL    C8745047   3.070   3.226   4.130  0.1250 -0.0149  0.2299
   81MOL    C8845048   3.144   3.358   4.092 -0.3577  0.5464  0.1266
   81MOL    O8945049   3.039   3.446   4.082 -0.6267  0.6676 -0.6042
   81MOL    C9045050   3.234   3.416   4.197  0.5115 -0.1414 -0.2086
   81MOL    C9145051   3.310   3.538   4.138  0.4547  0.3719 -1.2255
   81MOL    C9245052   3.395   3.609   4.238 -0.0154 -0.3460 -0.3126
   81MOL    O9345053   3.454   3.715   4.170  0.1943  0.0277 -0.5464
   81MOL    C9445054   3.490   3.515   4.304  0.0638 -0.8284 -0.3499
   81MOL    C9545055   3.564   3.584   4.418 -0.1883 -0.1281 -0.1346
   81MOL    C9645056   3.424   3.385   4.349 -0.3453 -0.5581  0.1559
   81MOL    C9745057   3.350   3.325   4.234  0.5871  1.1484  0.2427
   81MOL    H9845058   3.148   3.151   4.143  1.7355  1.5438 -0.2190
   81MOL    H9945059   3.023   3.236   4.228 -0.4553  1.3632 -0.1707
   81MOL   H10045060   3.189   3.339   3.994  0.1127 -0.6583  0.5715
   81MOL   H10145061   2.986   3.393   4.024  0.0919 -0.1498 -0.5275
   81MOL   H10245062   3.173   3.437   4.285 -0.4644  1.4820 -1.2440
   81MOL   H10345063   3.359   3.501   4.048  0.0604 -3.9488  0.1962
   81MOL   H10445064   3.229   3.605   4.108 -1.1387 -0.2148  1.5697
   81MOL   H10545065   3.337   3.661   4.315  0.0944 -0.8358  0.0974
   81MOL   H10645066   3.481   3.779   4.234  1.0722 -0.6035 -0.2815
   81MOL   H10745067   3.557   3.484   4.225 -1.1965 -2.1491 -0.9100
   81MOL   H10845068   3.609   3.679   4.388 -1.1715 -0.1820 -1.8188
   81MOL   H10945069   3.495   3.611   4.498 -0.1443 -0.8398  0.1486
   81MOL   H11045070   3.352   3.402   4.429  1.1189  0.8351  1.2188
   81MOL   H11145071   3.498   3.308   4.374 -0.3074 -0.3247  0.7693
   81MOL   H11245072   3.311   3.225   4.258 -1.8203  1.5961 -1.6441
   81MOL   H11345073   3.421   3.300   4.155  0.5221 -2.1819  1.1420
   81MOL   O11445074   3.658   3.497   4.483 -0.0121 -0.3164  0.1221
   81MOL   C11545075   3.793   3.535   4.468  0.0546  0.0392 -0.8415
   81MOL   C11645076   3.894   3.436   4.536 -0.0929 -1.0093  0.1287
   81MOL   O11745077   3.898   3.309   4.477  0.4653  0.7097  0.3871
   81MOL   C11845078   4.036   3.499   4.535 -0.0243  0.6397 -0.1764
   81MOL   C11945079   4.110   3.539   4.397 -0.0139  0.5496 -0.2528
   81MOL   C12045080   4.245   3.601   4.420  0.3923  0.3594 -0.9154
   81MOL   O12145081   4.316   3.615   4.302 -0.2753 -0.2126  0.2810
   81MOL   C12245082   4.337   3.520   4.517 -0.6675 -0.1994  0.3398
   81MOL   C12345083   4.468   3.595   4.533 -0.4253 -0.5733  0.2893
   81MOL   C12445084   4.260   3.496   4.643  0.5218 -0.2464 -0.8978
   81MOL   C12545085   4.124   3.421   4.627 -0.9487  0.1102 -0.3882
   81MOL   H12645086   3.798   3.636   4.509  0.2698  0.4791 -1.9175
   81MOL   H12745087   3.820   3.545   4.363  1.0717  3.0099 -0.3632
   81MOL   H12845088   3.862   3.413   4.638 -0.4839  3.0439  1.0123
   81MOL   H12945089   3.806   3.300   4.456  0.8917 -0.2711 -1.1460
   81MOL   H13045090   4.017   3.594   4.585 -1.2804 -0.2680  1.0868
   81MOL   H13145091   4.114   3.445   4.340  0.5114  0.5842 -0.2688
   81MOL   H13245092   4.042   3.598   4.335 -0.2157  0.2796 -0.2937
   81MOL   H13345093   4.212   3.699   4.455 -1.4843 -0.6897  0.3055
   81MOL   H13445094   4.393   3.663   4.330 -1.1923  1.0242  0.7129
   81MOL   H13545095   4.357   3.426   4.465  0.3045  0.0816  0.2086
   81MOL   H13645096   4.515   3.547   4.619  0.1812 -0.2904  0.1127
   81MOL   H13745097   4.536   3.587   4.449 -0.9970  3.8036 -0.7327
   81MOL   H13845098   4.252   3.587   4.703 -0.8247 -1.3036  0.5957
   81MOL   H13945099   4.322   3.432   4.706  0.7689 -0.4157 -1.3112
   81MOL   H14045100   4.074   3.413   4.723 -0.1930 -0.6821 -0.0599
   81MOL   H14145101   4.131   3.316   4.602 -0.4082 -0.3963  1.7810
   81MOL   O14245102   4.456   3.728   4.563  0.2590  0.1017  0.3335
   81MOL   C14345103   4.584   3.792   4.548  0.0169 -0.0514  0.6671
   81MOL   C14445104   4.571   3.937   4.594 -0.4557  0.0197 -0.1657
   81MOL   O14545105   4.483   3.996   4.495  0.2726 -0.5072  0.0363
   81MOL   C14645106   4.527   3.952   4.743 -0.0408 -0.7480  0.6276
   81MOL   C14745107   4.526   4.103   4.766  0.5748  0.1362 -0.4904
   81MOL   C14845108   4.468   4.128   4.903  0.2648 -0.3520  0.0987
   81MOL   O14945109   4.476   4.274   4.917 -0.1300 -0.1143  0.0119
   81MOL   C15045110   4.542   4.057   5.018  0.3710  0.4742 -0.5565
   81MOL   C15145111   4.475   4.085   5.156  0.5757 -0.0499  0.2497
   81MOL   C15245112   4.546   3.905   4.989  0.5290 -0.4434  0.9046
   81MOL   C15345113   4.608   3.873   4.846  0.3119 -0.2279 -0.4881
   81MOL   H15445114   4.614   3.803   4.444  1.4808 -0.9610  0.9823
   81MOL   H15545115   4.663   3.736   4.597 -0.7426 -0.0066  1.9577
   81MOL   H15645116   4.669   3.979   4.572  0.1053  0.6045  3.2351
   81MOL   H15745117   4.403   3.946   4.492 -1.3493  1.8400  1.9523
   81MOL   H15845118   4.424   3.917   4.750 -0.6638  1.2033  1.6564
   81MOL   H15945119   4.627   4.140   4.753  0.4211  1.2416  1.3952
   81MOL   H16045120   4.464   4.153   4.691  0.0373  0.9615  0.5025
   81MOL   H16145121   4.360   4.111   4.904 -0.1090  1.7883  2.1829
   81MOL   H16245122   4.386   4.301   4.925 -0.1508 -0.3145  0.4990
   81MOL   H16345123   4.643   4.098   5.022 -0.2872  2.0952 -0.1675
   81MOL   H16445124   4.449   4.191   5.156 -2.0886 -0.6373 -2.3303
   81MOL   H16545125   4.380   4.031   5.160  0.2558  0.5727  1.1829
   81MOL   H16645126   4.443   3.870   4.994  0.5123 -1.8567 -5.4290
   81MOL   H16745127   4.610   3.849   5.058  2.0709 -0.5350 -0.5770
   81MOL   H16845128   4.609   3.765   4.828  0.2547 -0.2820 -0.1630
   81MOL   H16945129   4.711   3.907   4.835  0.4723 -0.8058 -0.8051
   81MOL   O17045130   4.560   4.050   5.267  0.2295 -0.1989 -0.5216
   81MOL   C17145131   4.661   4.144   5.309 -0.0442  0.6176 -0.1686
   81MOL   C17245132   4.717   4.085   5.438  0.2052 -0.2117 -0.2811
   81MOL   O17345133   4.799   3.981   5.392  0.5102  0.2209 -0.4311
   81MOL   C17445134   4.793   4.192   5.521 -0.9579 -0.2748 -0.2223
   81MOL   C17545135   4.913   4.248   5.450  0.0927  0.1241  0.2031
   81MOL   C17645136   4.970   4.373   5.520 -0.4243  0.1813  0.3293
   81MOL   O17745137   5.076   4.423   5.436  0.2795  0.2451  0.4157
   81MOL   C17845138   5.012   4.333   5.656 -0.2933  0.2366 -0.2382
   81MOL   C17945139   5.088   4.439   5.744 -0.4543  0.0768  0.0557
   81MOL   C18045140   4.895   4.264   5.737 -0.6978  0.4038 -0.0403
   81MOL   C18145141   4.837   4.141   5.657  0.8654  0.0893 -0.0362
   81MOL   H18245142   4.591   4.225   5.333 -0.9721  0.0402 -0.8851
   81MOL   H18345143   4.729   4.183   5.234  1.6327 -0.1618  0.9179
   81MOL   H18445144   4.630   4.049   5.492  1.2196 -2.6525 -0.1866
   81MOL   H18545145   4.744   3.935   5.330  0.8771 -3.1700  1.6130
   81MOL   H18645146   4.726   4.276   5.539  1.8464  1.4995  2.3867
   81MOL   H18745147   4.978   4.164   5.424 -0.0230 -0.0062  0.3357
   81MOL   H18845148   4.884   4.294   5.356 -0.3115  2.6988  1.5211
   81MOL   H18945149   4.890   4.447   5.529 -1.6872 -1.0069 -0.8820
   81MOL   H19045150   5.096   4.514   5.450 -2.1042  0.4952  2.5648
   81MOL   H19145151   5.089   4.257   5.640 -0.2468  0.2419 -0.0436
   81MOL   H19245152   5.127   4.391   5.834 -0.4790 -0.8868 -0.4443
   81MOL   H19345153   5.169   4.487   5.689 -2.3026  0.0871 -2.7426
   81MOL   H19445154   4.811   4.333   5.747 -0.2098  0.8586  0.9015
   81MOL   H19545155   4.919   4.243   5.841  0.1243  0.3540 -0.2372
   81MOL   H19645156   4.746   4.101   5.701 -0.1428  0.6304 -1.5827
   81MOL   H19745157   4.896   4.049   5.656  2.3681  1.0313 -0.0384
   81MOL   O19845158   4.996   4.539   5.783 -0.5499 -0.2328 -0.0670
   81MOL   C19945159   5.052   4.652   5.842 -0.0826 -0.1979  0.3982
   81MOL   C20045160   4.930   4.749   5.870  0.1637  0.3114 -0.0379
   81MOL   O20145161   4.867   4.757   5.742 -0.3108 -0.3881  0.0570
   81MOL   C20245162   4.817   4.713   5.966  0.1759 -0.2908 -0.3365
   81MOL   C20345163   4.774   4.560   5.960  0.0319 -0.4833 -0.0594
   81MOL   C20445164   4.677   4.530   6.076 -0.2150 -0.2261 -0.2641
   81MOL   O20545165   4.627   4.397   6.065  0.2526  0.5986 -0.5477
   81MOL   C20645166   4.557   4.625   6.083  0.0991 -0.4575 -0.1163
   81MOL   C20745167   4.445   4.586   6.182 -0.4806 -0.7363 -0.0091
   81MOL   C20845168   4.613   4.772   6.094  0.2979 -0.1058 -0.3375
   81MOL   C20945169   4.700   4.816   5.977  0.2677 -0.3456  0.4296
   81MOL   H21045170   5.122   4.697   5.771 -0.6873  0.6122  0.3125
   81MOL   H21145171   5.120   4.640   5.927 -0.2301 -1.3358  0.3608
   81MOL   H21245172   4.967   4.850   5.885  0.6897  0.0675  0.3206
   81MOL   H21345173   4.850   4.666   5.720  0.0377 -0.5580  0.5035
   81MOL   H21445174   4.873   4.728   6.059  1.0972  0.3214 -0.9846
   81MOL   H21545175   4.721   4.544   5.866  0.0665  0.5633 -0.2674
   81MOL   H21645176   4.863   4.497   5.961  0.5400  0.1951 -1.2661
   81MOL   H21745177   4.727   4.535   6.173  0.7797 -2.5900 -0.6221
   81MOL   H21845178   4.660   4.353   6.142 -0.2845 -3.9002 -2.7544
   81MOL   H21945179   4.522   4.630   5.980 -1.2621 -1.0677  0.3102
   81MOL   H22045180   4.431   4.478   6.189 -1.9157 -0.5805 -0.3117
   81MOL   H22145181   4.459   4.635   6.279  0.9195  0.6650 -0.9019
   81MOL   H22245182   4.664   4.781   6.190  0.9464 -0.5693 -0.6346
   81MOL   H22345183   4.530   4.842   6.102 -0.5529 -0.9629 -1.4027
   81MOL   H22445184   4.740   4.914   6.003  1.7649 -0.9141  0.3276
   81MOL   H22545185   4.647   4.823   5.882 -0.0941 -0.3533  0.6308
   81MOL   O22645186   4.331   4.631   6.112  0.4775  0.7625  0.5695
   81MOL   C22745187   4.208   4.611   6.181  0.2343 -1.0980 -0.3386
   81MOL   C22845188   4.121   4.498   6.114 -0.1654  0.1573 -0.5177
   81MOL   O22945189   4.025   4.467   6.216  0.0621 -0.0377 -0.7587
   81MOL   C23045190   4.040   4.533   5.991 -0.3117  0.6599  0.0033
   81MOL   C23145191   3.958   4.410   5.931 -0.7173  0.2725 -0.5697
   81MOL   C23245192   3.863   4.443   5.818 -0.0686  0.8351 -0.8750
   81MOL   O23345193   3.800   4.314   5.771  0.3165 -0.3355  0.1299
   81MOL   C23445194   3.942   4.515   5.705  0.7417  0.7254 -0.4576
   81MOL   C23545195   3.840   4.558   5.596 -0.2510  0.4762  0.4244
   81MOL   C23645196   4.032   4.630   5.758 -0.8853  0.2281 -0.2992
   81MOL   C23745197   4.122   4.597   5.881  0.4310 -0.4347  0.7858
   81MOL   H23845198   4.138   4.695   6.174 -2.5668 -3.3555 -0.2816
   81MOL   H23945199   4.225   4.584   6.285 -0.2864  2.8297  0.8510
   81MOL   H24045200   4.189   4.414   6.103  1.8315  1.5023  1.2364
   81MOL   H24145201   4.061   4.406   6.278 -0.6813  0.3131  0.0211
   81MOL   H24245202   3.968   4.610   6.019 -1.2702 -1.1421  2.6633
   81MOL   H24345203   4.034   4.342   5.892  1.1556  2.7545 -1.4206
   81MOL   H24445204   3.895   4.377   6.014 -0.0520  0.6595  0.1071
   81MOL   H24545205   3.783   4.508   5.854 -2.8691 -2.8808 -0.0624
   81MOL   H24645206   3.714   4.309   5.812  0.5772 -0.3383  0.6901
   81MOL   H24745207   4.019   4.447   5.666 -0.7942 -0.1032 -2.1329
   81MOL   H24845208   3.780   4.475   5.559  1.7086 -1.3368  1.2172
   81MOL   H24945209   3.773   4.634   5.638  0.6283  1.6287 -0.2621
   81MOL   H25045210   3.961   4.698   5.805 -1.4365 -0.8484  0.4560
   81MOL   H25145211   4.085   4.690   5.684 -1.4549 -1.0906 -1.8145
   81MOL   H25245212   4.176   4.687   5.912  2.5771 -1.2989 -0.3417
   81MOL   H25345213   4.189   4.515   5.856 -0.1096  0.1533 -2.8388
   81MOL   O25445214   3.920   4.608   5.488 -0.0291 -0.6371 -0.0602
   81MOL   C25545215   3.968   4.511   5.397  0.4171 -0.6908 -0.6018
   81MOL   C25645216   4.085   4.583   5.328  0.3913 -0.2029 -0.2252
   81MOL   O25745217   4.199   4.575   5.412  0.1616 -0.0083 -0.5515
   81MOL   C25845218   4.105   4.544   5.185 -0.7557  0.2376 -0.3876
   81MOL   C25945219   3.983   4.569   5.095  0.5716  0.0487  0.8507
   81MOL   C26045220   4.022   4.549   4.950 -0.3629  0.6747 -0.6068
   81MOL   O26145221   3.908   4.558   4.866  0.8651  0.1399  0.4239
   81MOL   C26245222   4.078   4.407   4.925 -0.0770 -0.1188  0.4481
   81MOL   C26345223   4.134   4.401   4.776 -0.1753  0.4826  0.4437
   81MOL   C26445224   4.184   4.361   5.028 -0.5260  0.7233  0.3587
   81MOL   C26545225   4.147   4.393   5.171  0.1269  0.1416 -0.1434
   81MOL   H26645226   3.890   4.486   5.325  0.9523  1.3000 -1.9212
   81MOL   H26745227   4.009   4.424   5.448  1.1774  1.1127  2.0173
   81MOL   H26845228   4.052   4.687   5.321  0.4229 -0.0958  1.1024
   81MOL   H26945229   4.172   4.597   5.500  1.7004  2.0637 -0.5516
   81MOL   H27045230   4.190   4.605   5.153  0.4886 -1.1839  0.1180
   81MOL   H27145231   3.912   4.490   5.115  2.1238 -1.1910  1.5571
   81MOL   H27245232   3.931   4.664   5.107  2.9255  1.7052 -1.3944
   81MOL   H27345233   4.094   4.626   4.922 -0.9305  0.1929 -3.5448
   81MOL   H27445234   3.897   4.649   4.842 -1.0172 -0.8886 -2.9059
   81MOL   H27545235   3.990   4.343   4.929 -0.0919 -0.1478 -0.2979
   81MOL   H27645236   4.063   4.444   4.705 -0.1540 -1.8217 -0.9951
   81MOL   H27745237   4.224   4.459   4.758  0.4765 -1.1280 -1.5662
   81MOL   H27845238   4.267   4.427   5.001  0.7289 -0.4372  1.2778
   81MOL   H27945239   4.226   4.262   5.010 -0.3453  0.8858 -0.1432
   81MOL   H28045240   4.224   4.372   5.246 -0.6485 -1.2235  0.2820
   81MOL   H28145241   4.066   4.325   5.196  0.2930 -0.2221 -0.6116
   81MOL   O28245242   4.158   4.263   4.743  0.2449 -0.4317 -0.4231
   81MOL   C28345243   4.220   4.241   4.609  0.8727 -0.6646 -0.2809
   81MOL   C28445244   4.118   4.248   4.495  0.7012  0.9482 -1.0633
   81MOL   O28545245   4.102   4.387   4.473 -0.1774 -0.4180  0.0467
   81MOL   C28645246   4.149   4.187   4.356 -0.2611  0.7251 -0.1603
   81MOL   C28745247   4.136   4.036   4.360 -0.2108  0.2155  0.3414
   81MOL   C28845248   4.158   3.975   4.222  0.2902  0.1216 -0.1420
   81MOL   O28945249   4.148   3.839   4.236  0.3687 -0.5134  0.5756
   81MOL   C29045250   4.299   4.019   4.177  0.6351 -0.5922  0.6177
   81MOL   C29145251   4.341   3.951   4.043  0.0663 -0.5408  0.1760
   81MOL   C29245252   4.302   4.172   4.162 -0.3874 -0.2262 -0.6803
   81MOL   C29345253   4.281   4.228   4.303  0.1238 -0.0187  0.4795
   81MOL   H29445254   4.269   4.144   4.616  1.2337 -0.3244  2.6373
   81MOL   H29545255   4.297   4.315   4.586 -1.5704  1.9058 -0.4143
   81MOL   H29645256   4.021   4.206   4.524  0.7414  0.5150 -1.5568
   81MOL   H29745257   4.019   4.411   4.511 -0.4193 -2.4159  0.8222
   81MOL   H29845258   4.067   4.215   4.290 -1.4833  1.3561  1.5654
   81MOL   H29945259   4.200   3.983   4.431 -1.2915 -1.4396  0.1106
   81MOL   H30045260   4.032   4.027   4.394 -1.0656 -1.8720 -2.6457
   81MOL   H30145261   4.095   4.001   4.137  0.0370 -2.1618 -0.6905
   81MOL   H30245262   4.218   3.786   4.201  0.2938 -0.5262  0.4446
   81MOL   H30345263   4.366   3.985   4.255 -1.4591  2.8882  4.1384
   81MOL   H30445264   4.274   3.979   3.962  2.6571 -0.9421 -2.2078
   81MOL   H30545265   4.438   3.990   4.012 -0.8212  2.2816  0.7583
   81MOL   H30645266   4.223   4.211   4.098 -1.4271 -1.8089 -0.4065
   81MOL   H30745267   4.400   4.205   4.129 -1.1090  0.2624 -2.3594
   81MOL   H30845268   4.292   4.336   4.303 -0.3044  0.0539 -1.5898
   81MOL   H30945269   4.363   4.182   4.358  0.0305 -1.0827 -0.2621
   81MOL   O31045270   4.357   3.809   4.070  0.1221 -0.4760 -0.1501
   81MOL   C31145271   4.360   3.736   3.949  0.1354  0.0479 -0.3701
   81MOL   C31245272   4.426   3.607   3.962 -0.6987 -0.0614  0.1395
   81MOL   O31345273   4.329   3.524   4.023 -0.8186  0.1714 -0.7178
   81MOL   C31445274   4.483   3.538   3.840  0.1333  0.3892 -0.1030
   81MOL   C31545275   4.399   3.536   3.714  0.6591 -0.2126  0.0250
   81MOL   C31645276   4.473   3.474   3.591  0.8876  0.1129  0.1147
   81MOL   O31745277   4.381   3.471   3.480  0.1034  0.3802  0.5150
   81MOL   C31845278   4.514   3.329   3.621  0.1107 -0.9722  0.0553
   81MOL   C31945279   4.598   3.271   3.502  0.1711 -0.3158 -0.5912
   81MOL   C32045280   4.587   3.324   3.757 -0.0968 -0.1212  0.4003
   81MOL   C32145281   4.519   3.391   3.877  0.1374  0.0702 -0.8239
   81MOL   H32245282   4.401   3.797   3.868 -0.5867  1.0534  0.0082
   81MOL   H32345283   4.259   3.715   3.912  0.3988 -0.2353 -0.9306
   81MOL   H32445284   4.504   3.609   4.037  1.3573 -0.6190 -1.9404
   81MOL   H32545285   4.306   3.574   4.100  0.7550  0.4402 -0.3985
   81MOL   H32645286   4.582   3.574   3.813  0.3452  0.2952  0.5437
   81MOL   H32745287   4.304   3.486   3.728  0.3331 -1.0487 -4.4913
   81MOL   H32845288   4.378   3.640   3.689 -0.0199  0.1490  2.0134
   81MOL   H32945289   4.560   3.530   3.557 -0.8676  2.6563 -0.3872
   81MOL   H33045290   4.308   3.417   3.507 -2.7615  3.5528 -0.4861
   81MOL   H33145291   4.416   3.281   3.626 -0.0013 -0.6823  0.7569
   81MOL   H33245292   4.575   3.319   3.407  1.4045  1.7776  0.1592
   81MOL   H33345293   4.699   3.285   3.539 -0.5410 -2.5756  2.4382
   81MOL   H33445294   4.685   3.373   3.753 -1.3029  2.2983 -0.3527
   81MOL   H33545295   4.609   3.221   3.784  1.5270 -0.1154 -0.8309
   81MOL   H33645296   4.574   3.375   3.969 -1.1098  1.6421  0.2343
   81MOL   H33745297   4.426   3.337   3.898  0.6469 -0.0164  1.3753
   81MOL   O33845298   4.579   3.133   3.501 -0.5178 -0.6751  0.2240
   81MOL   C33945299   4.684   3.058   3.443 -0.0368  0.3905  0.0385
   81MOL   C34045300   4.660   2.908   3.478  0.8298 -0.1260  0.4784
   81MOL   O34145301   4.533   2.886   3.423 -0.3403 -0.2312  0.0328
   81MOL   C34245302   4.756   2.796   3.437 -0.1036 -0.0120  1.1901
   81MOL   C34345303   4.691   2.659   3.449  0.4851 -0.5000 -0.0803
   81MOL   C34445304   4.795   2.551   3.410  0.0111  0.2672 -0.0533
   81MOL   O34545305   4.723   2.431   3.436 -0.1888  0.6286  0.4572
   81MOL   C34645306   4.938   2.559   3.480  0.0337  0.1387  1.1760
   81MOL   C34745307   5.039   2.455   3.432 -0.4613 -0.0879  0.7479
   81MOL   C34845308   5.000   2.700   3.461  0.2975 -0.3729 -0.2889
   81MOL   C34945309   4.893   2.803   3.516 -0.0714  0.6343  0.1437
   81MOL   H35045310   4.781   3.093   3.479 -0.2504 -2.3396  3.5823
   81MOL   H35145311   4.690   3.069   3.335  1.8517  1.2148  0.1962
   81MOL   H35245312   4.635   2.892   3.583 -2.3651  2.3992  0.1870
   81MOL   H35345313   4.500   2.972   3.442 -0.1561 -0.0073 -0.6495
   81MOL   H35445314   4.777   2.805   3.331 -2.1882 -0.0167  0.7549
   81MOL   H35545315   4.653   2.637   3.549 -2.3047 -0.5025 -1.0926
   81MOL   H35645316   4.605   2.650   3.382  0.4944  1.1666 -0.3325
   81MOL   H35745317   4.812   2.551   3.302  1.2778 -1.4951  0.1264
   81MOL   H35845318   4.720   2.386   3.354 -2.6010  2.3315 -0.4196
   81MOL   H35945319   4.925   2.539   3.586  0.3112  1.9502  1.5714
   81MOL   H36045320   5.132   2.467   3.489  1.0636 -1.5086 -1.3477
   81MOL   H36145321   4.999   2.355   3.446  1.6040 -1.1421 -0.5767
   81MOL   H36245322   5.014   2.718   3.354  0.3272  0.9333 -0.0679
   81MOL   H36345323   5.103   2.710   3.494 -0.3766 -1.4651  2.2864
   81MOL   H36445324   4.945   2.899   3.518  2.3211 -0.6037 -0.6551
   81MOL   H36545325   4.878   2.770   3.619  0.1431  1.0948  0.3276
   81MOL   O36645326   5.058   2.477   3.293  0.1415 -0.0380  0.3506
   81MOL   C36745327   5.161   2.394   3.240  0.5949 -0.5514  0.2624
   81MOL   C36845328   5.297   2.470   3.238 -0.1964  0.1679  0.2643
   81MOL   O36945329   5.369   2.460   3.357  0.2658 -0.2266  0.2493
   81MOL   C37045330   5.387   2.421   3.122 -0.1377 -0.1121  0.3282
   81MOL   C37145331   5.544   2.428   3.139  0.1654 -0.8180 -0.0019
   81MOL   C37245332   5.614   2.356   3.023  0.0731 -0.6499  0.7177
   81MOL   O37345333   5.748   2.361   3.059 -0.6987  0.2941 -0.0598
   81MOL   C37445334   5.581   2.416   2.884  0.4756  0.0236 -0.0459
   81MOL   C37545335   5.647   2.345   2.764  0.3867  0.0993  0.2183
   81MOL   C37645336   5.426   2.413   2.868 -0.2288 -0.1095  0.1036
   81MOL   C37745337   5.354   2.491   2.984  0.2267  0.1176  0.5719
   81MOL   H37845338   5.134   2.364   3.138 -2.3324 -0.0332  0.8500
   81MOL   H37945339   5.172   2.299   3.292  1.5349 -1.4602 -1.5510
   81MOL   H38045340   5.278   2.574   3.215 -0.0211  0.6047  2.0402
   81MOL   H38145341   5.426   2.536   3.362 -1.2107  0.8228  2.2694
   81MOL   H38245342   5.369   2.315   3.103 -1.5257 -0.3766  2.9587
   81MOL   H38345343   5.581   2.531   3.148 -1.4302 -0.2603  0.3844
   81MOL   H38445344   5.558   2.364   3.226  1.0057  0.1853  0.6141
   81MOL   H38545345   5.576   2.255   3.009  0.1422 -0.5977  0.1507
   81MOL   H38645346   5.750   2.332   3.149 -0.0803  0.0304 -0.1582
   81MOL   H38745347   5.602   2.523   2.888 -1.2217  0.4214 -1.2652
   81MOL   H38845348   5.752   2.329   2.785  0.8751  1.7104 -0.8850
   81MOL   H38945349   5.599   2.248   2.753  1.8928 -0.7062  0.6449
   81MOL   H39045350   5.381   2.315   2.881 -1.5184  0.4708  0.1281
   81MOL   H39145351   5.379   2.455   2.778 -1.1310 -1.0848  0.1208
   81MOL   H39245352   5.246   2.480   2.973  0.2154 -0.8718  1.5787
   81MOL   H39345353   5.353   2.600   2.984 -1.2151  0.1172  0.1579
   81MOL   O39445354   5.608   2.401   2.646 -0.4784 -0.4649  0.4639
   81MOL   C39545355   5.670   2.523   2.622 -0.6519  0.2726  0.7754
   81MOL   C39645356   5.617   2.588   2.489 -0.3763 -0.2658 -0.3344
   81MOL   O39745357   5.674   2.715   2.476 -0.0299 -0.2254  0.2083
   81MOL   C39845358   5.661   2.495   2.369  0.7292 -0.8235 -0.0951
   81MOL   C39945359   5.819   2.480   2.345 -0.0813 -0.7936 -0.2476
   81MOL   C40045360   5.851   2.391   2.228  0.4414  0.3565  0.3947
   81MOL   O40145361   5.993   2.399   2.207  0.1927  0.1347 -0.5118
   81MOL   C40245362   5.780   2.431   2.091 -0.1232  0.3976  0.2185
   81MOL   C40345363   5.815   2.343   1.966  0.4047  0.4569 -0.0276
   81MOL   C40445364   5.624   2.431   2.120 -0.2868 -0.2658  0.0031
   81MOL   C40545365   5.594   2.530   2.238  0.3390 -0.4795 -0.2648
   81MOL   H40645366   5.776   2.500   2.637 -0.4194  0.8291 -0.0061
   81MOL   H40745367   5.637   2.594   2.699 -0.0726  2.3131 -0.7968
   81MOL   H40845368   5.509   2.601   2.482 -0.3496 -1.1648 -3.1035
   81MOL   H40945369   5.633   2.757   2.402 -0.4611 -0.2126  0.4527
   81MOL   H41045370   5.616   2.397   2.387  0.7185 -0.4238  2.2282
   81MOL   H41145371   5.859   2.577   2.315  0.3173  0.2669  3.4592
   81MOL   H41245372   5.880   2.461   2.432  0.6897 -1.1036 -0.8503
   81MOL   H41345373   5.823   2.289   2.254 -2.4324  1.3363  1.3850
   81MOL   H41445374   6.043   2.354   2.272  0.9566 -0.9616 -1.8243
   81MOL   H41545375   5.799   2.537   2.070 -0.6726  0.7254  1.3036
   81MOL   H41645376   5.923   2.339   1.956  0.4909 -2.3643  1.6620
   81MOL   H41745377   5.792   2.240   1.993 -0.8417  0.6609 -0.2731
   81MOL   H41845378   5.589   2.331   2.144  1.3764 -1.0790 -0.9428
   81MOL   H41945379   5.558   2.467   2.041  0.4016 -1.0591 -0.9379
   81MOL   H42045380   5.487   2.540   2.255  0.2353 -0.1626 -1.1073
   81MOL   H42145381   5.620   2.634   2.222  0.0505 -0.1014  1.6265
   81MOL   O42245382   5.749   2.375   1.846  0.5570 -0.0414  1.0007
   81MOL   C42345383   5.814   2.325   1.731 -0.3201  0.5100  0.2363
   81MOL   C42445384   5.741   2.349   1.598  1.2528  0.3927  0.7826
   81MOL   O42545385   5.781   2.478   1.551 -0.4522 -0.1477  0.2901
   81MOL   C42645386   5.771   2.246   1.490 -0.4429  0.0254  0.0060
   81MOL   C42745387   5.712   2.111   1.527 -0.0016  0.2420  0.4050
   81MOL   C42845388   5.728   2.004   1.416  0.1204  0.4081 -0.3496
   81MOL   O42945389   5.679   1.879   1.458 -0.1617 -0.1359 -0.9665
   81MOL   C43045390   5.875   1.986   1.372  0.2715 -0.1160 -0.6327
   81MOL   C43145391   5.875   1.893   1.242  0.0388 -0.0470 -0.7830
   81MOL   C43245392   5.931   2.127   1.340 -1.1384 -0.4598 -0.0967
   81MOL   C43345393   5.917   2.221   1.460  0.7039 -0.4387  0.1045
   81MOL   H43445394   5.839   2.220   1.749 -0.2552  0.3872 -0.5269
   81MOL   H43545395   5.914   2.367   1.721 -0.3649  0.0038 -2.8618
   81MOL   H43645396   5.633   2.354   1.610  0.7909 -1.0059 -2.3568
   81MOL   H43745397   5.775   2.545   1.617 -0.9986 -0.6092  0.7246
   81MOL   H43845398   5.730   2.273   1.393  0.5533 -0.1839 -0.4753
   81MOL   H43945399   5.755   2.066   1.617  1.1362 -2.7256 -1.5399
   81MOL   H44045400   5.605   2.118   1.547 -0.2277 -0.0311 -0.6588
   81MOL   H44145401   5.670   2.027   1.326 -2.4462 -0.6385  0.9741
   81MOL   H44245402   5.710   1.872   1.547 -2.2539  0.1403 -0.1959
   81MOL   H44345403   5.924   1.933   1.453  1.3786 -0.4982 -1.5451
   81MOL   H44445404   5.823   1.800   1.265  0.7125 -0.3730 -0.5652
   81MOL   H44545405   5.820   1.956   1.172  0.3016  1.9353  0.7725
   81MOL   H44645406   5.883   2.170   1.253  2.7090  2.8740 -0.6920
   81MOL   H44745407   6.039   2.119   1.327 -1.2290  1.1946 -2.0655
   81MOL   H44845408   5.966   2.314   1.431  1.5984 -0.6877  0.7602
   81MOL   H44945409   5.976   2.182   1.543 -1.1383 -0.1187  1.6006
   81MOL   O45045410   6.005   1.874   1.193  0.2734 -0.1074  0.7986
   81MOL   C45145411   6.081   1.805   1.290  0.0874  0.2238 -0.0919
   81MOL   C45245412   6.205   1.732   1.227  0.1316  0.0374  0.6462
   81MOL   O45345413   6.315   1.742   1.301 -0.2491 -0.5361  0.2705
   81MOL   C45445414   6.200   1.593   1.172  0.4524  0.7310 -0.0395
   81MOL   C45545415   6.179   1.484   1.279  0.8194 -0.1005  0.4854
   81MOL   C45645416   6.167   1.339   1.229 -0.6153  0.0530 -0.3191
   81MOL   O45745417   6.193   1.252   1.338 -0.3051  0.1606  0.4451
   81MOL   C45845418   6.287   1.302   1.129 -0.1404  0.5724  0.5065
   81MOL   C45945419   6.262   1.176   1.053  0.1897 -0.3063  0.4163
   81MOL   C46045420   6.299   1.419   1.023  0.5045 -0.4886 -0.0069
   81MOL   C46145421   6.322   1.558   1.087  0.5569 -0.0791  0.2915
   81MOL   H46245422   6.025   1.719   1.326  0.0153  0.0509 -0.6100
   81MOL   H46345423   6.118   1.876   1.364  0.5701 -0.8412  0.7035
   81MOL   H46445424   6.219   1.797   1.141 -0.7762  1.5405  1.6093
   81MOL   H46545425   6.360   1.822   1.277 -1.5467 -0.3028 -1.5104
   81MOL   H46645426   6.110   1.592   1.110 -1.6883 -0.3722  2.9702
   81MOL   H46745427   6.272   1.493   1.335 -0.5514 -0.2088  2.8486
   81MOL   H46845428   6.100   1.511   1.349  1.3647  1.6001  0.4527
   81MOL   H46945429   6.073   1.318   1.179  0.0997 -0.9022 -1.2888
   81MOL   H47045430   6.165   1.162   1.329  0.7224 -0.1164 -0.0595
   81MOL   H47145431   6.376   1.294   1.192  0.4359  1.8456 -0.1190
   81MOL   H47245432   6.268   1.090   1.120  1.2706 -0.6825 -0.1454
   81MOL   H47345433   6.166   1.171   1.002 -1.2000 -1.5455  3.0829
   81MOL   H47445434   6.214   1.432   0.956  0.2358 -0.6251  0.3059
   81MOL   H47545435   6.381   1.403   0.952 -1.0577  0.4269 -2.0575
   81MOL   H47645436   6.355   1.633   1.015  1.7871  0.3800  1.2984
   81MOL   H47745437   6.406   1.550   1.156 -0.1725  0.8240  1.2973
   81MOL   O47845438   6.362   1.145   0.961 -0.2336 -0.1426  0.6061
   81MOL   C47945439   6.323   1.038   0.876 -0.2870 -0.7131  0.2154
   81MOL   C48045440   6.454   0.998   0.802 -0.5934 -0.2038 -0.0557
   81MOL   O48145441   6.520   0.891   0.861 -0.0917 -0.2415  0.1960
   81MOL   C48245442   6.449   0.966   0.647  0.1144 -0.0722  0.2847
   81MOL   C48345443   6.361   0.841   0.611 -0.5988 -0.0117 -0.0534
   81MOL   C48445444   6.346   0.838   0.457 -0.0663 -0.5810 -0.3082
   81MOL   O48545445   6.274   0.719   0.432  0.1695  0.0701 -0.4511
   81MOL   C48645446   6.482   0.842   0.379 -0.1872 -0.0309  0.0521
   81MOL   C48745447   6.472   0.842   0.221  0.0499  0.1751 -0.1588
   81MOL   C48845448   6.568   0.960   0.420  0.1175 -0.5627  0.7849
   81MOL   C48945449   6.586   0.972   0.576 -0.0063 -0.1340 -0.1729
   81MOL   H49045450   6.245   1.076   0.809 -0.4898 -1.5487 -0.0317
   81MOL   H49145451   6.291   0.950   0.931  2.2040 -2.5630 -1.2019
   81MOL   H49245452   6.523   1.081   0.812 -0.5065 -0.5387  2.5824
   81MOL   H49345453   6.614   0.896   0.852 -0.2955  1.1960 -1.3893
   81MOL   H49445454   6.402   1.059   0.614  1.0656 -0.2282 -1.5751
   81MOL   H49545455   6.421   0.763   0.658  0.2099 -0.1232 -1.2620
   81MOL   H49645456   6.269   0.853   0.669  0.6135  0.5749  1.8209
   81MOL   H49745457   6.308   0.934   0.421 -0.0407 -0.4882 -0.0872
   81MOL   H49845458   6.258   0.706   0.340  1.3661  0.5371 -0.7416
   81MOL   H49945459   6.535   0.749   0.402 -2.0448 -0.9206  0.8682
   81MOL   H50045460   6.400   0.765   0.194  1.6727 -2.1787  1.9916
   81MOL   H50145461   6.437   0.937   0.180  1.1135  1.1112  1.0385
   81MOL   H50245462   6.523   1.049   0.377  2.0263  1.4225  2.7443
   81MOL   H50345463   6.663   0.969   0.368 -0.0953 -1.1352  0.2814
   81MOL   H50445464   6.637   1.063   0.606 -1.6294  0.2097  1.6602
   81MOL   H50545465   6.652   0.890   0.605  0.3228 -0.4932 -1.8550
   81MOL   O50645466   6.597   0.794   0.179 -0.0445  0.2213 -0.6606
   81MOL   C50745467   6.594   0.780   0.042 -0.2858  0.1014  0.4670
   81MOL   C50845468   6.730   0.718   7.618 -0.0914  0.2918 -0.2709
   81MOL   O50945469   6.725   0.579   0.016 -0.2053 -0.1609  0.4128
   81MOL   C51045470   6.759   0.747   7.469 -0.1016  0.3518 -0.4433
   81MOL   C51145471   6.901   0.686   7.435  0.6318  0.1080  0.0969
   81MOL   C51245472   6.926   0.687   7.283  0.1465  0.1834 -0.4498
   81MOL   O51345473   7.063   0.645   7.260 -0.3980 -0.7918 -0.4209
   81MOL   C51445474   6.907   0.832   7.225 -0.1515  0.1375  0.5101
   81MOL   C51545475   6.903   0.842   7.070 -0.4868  0.5796  0.6599
   81MOL   C51645476   6.787   0.905   7.286 -0.0396  0.1043  0.4623
   81MOL   C51745477   6.758   0.901   7.436  0.2854 -0.5922 -0.4810
   81MOL   H51845478   6.566   0.878   0.003  2.8395  1.3639  1.2261
   81MOL   H51945479   6.514   0.714   0.009 -0.4572  0.5733 -0.0827
   81MOL   H52045480   6.809   0.757   0.053  0.5337 -1.1299 -0.1610
   81MOL   H52145481   6.715   0.563   0.108  0.4055 -0.3110  0.4537
   81MOL   H52245482   6.689   0.696   7.403  0.0129 -0.1772 -0.1647
   81MOL   H52345483   6.988   0.740   7.471 -0.2248  2.3260 -1.0832
   81MOL   H52445484   6.904   0.587   7.481  0.0017  0.4051  0.7948
   81MOL   H52545485   6.854   0.618   7.237 -0.1060 -3.0039  4.3096
   81MOL   H52645486   7.096   0.606   7.339 -0.7814  0.3504  0.3083
   81MOL   H52745487   6.997   0.888   7.253 -0.2570  1.8252 -2.3237
   81MOL   H52845488   6.872   0.944   7.048 -1.3112  0.3446  0.7074
   81MOL   H52945489   7.002   0.837   7.025 -1.0794  0.7465 -0.6791
   81MOL   H53045490   6.704   0.859   7.232  0.8906 -1.9443  0.7222
   81MOL   H53145491   6.784   1.007   7.248 -0.8124  0.8171  2.3559
   81MOL   H53245492   6.665   0.955   7.450  1.2274  0.9448 -0.0951
   81MOL   H53345493   6.835   0.953   7.492 -0.0023  0.2001 -0.8076
   81MOL   O53445494   6.807   0.761   7.018 -0.3584 -0.1084  0.0371
   81MOL   C53545495   6.779   0.774   6.879 -0.4065 -0.2728  0.5425
   81MOL   C53645496   6.704   0.657   6.820  0.4729 -0.0305 -0.1337
   81MOL   O53745497   6.803   0.555   6.817  0.2980 -0.2270 -0.0406
   81MOL   C53845498   6.574   0.625   6.899  0.9502 -0.5590  0.1871
   81MOL   C53945499   6.525   0.480   6.875 -0.2568 -0.4258 -0.6665
   81MOL   C54045500   6.423   0.450   6.986  0.4155  0.4825  0.4002
   81MOL   O54145501   6.379   0.311   6.970  0.1584 -0.1262 -0.4694
   81MOL   C54245502   6.301   0.546   6.982  0.5185 -0.2780  0.2885
   81MOL   C54345503   6.192   0.526   7.091 -0.5332  0.3668  0.7927
   81MOL   C54445504   6.359   0.691   6.997 -0.5254 -0.4945 -0.0313
   81MOL   C54545505   6.465   0.732   6.896 -0.3317  0.3539 -0.2052
   81MOL   H54645506   6.868   0.804   6.824 -1.7009  0.5065 -1.2011
   81MOL   H54745507   6.714   0.862   6.869  1.6184  0.9891 -2.4609
   81MOL   H54845508   6.686   0.675   6.714  1.4497  1.0621 -0.1231
   81MOL   H54945509   6.844   0.542   6.901 -0.8334 -0.0062  0.5570
   81MOL   H55045510   6.599   0.638   7.004  1.3787  2.2575 -0.2185
   81MOL   H55145511   6.487   0.479   6.773 -1.6934  1.2142 -0.1775
   81MOL   H55245512   6.608   0.409   6.878 -1.7278 -2.1952 -1.1000
   81MOL   H55345513   6.474   0.468   7.081 -0.7290  0.7303  0.9782
   81MOL   H55445514   6.345   0.301   6.883 -0.8088  0.0169 -0.1141
   81MOL   H55545515   6.263   0.523   6.883 -1.9034 -2.1559  1.6218
   81MOL   H55645516   6.115   0.599   7.064  0.8638  1.4482 -0.4095
   81MOL   H55745517   6.156   0.423   7.092 -2.2482  0.8760 -2.0729
   81MOL   H55845518   6.402   0.720   7.093  0.0773  0.7641 -0.6778
   81MOL   H55945519   6.274   0.756   6.978  0.3956  0.9025  0.5035
   81MOL   H56045520   6.500   0.832   6.920  0.5579  0.2117 -0.9119
   81MOL   H56145521   6.412   0.745   6.802  0.1647  2.5857 -0.1996
   81MOL   H56245522   6.232   0.553   7.189  2.5459  0.7842 -0.5043
   82MOL     O145523   7.164   5.202   2.017 -0.2179  0.1707 -0.0253
   82MOL     C245524   7.108   5.242   1.895  0.2105 -0.0448  0.0140
   82MOL     C345525   7.232   5.279   1.805 -0.5432 -0.3004  0.5916
   82MOL     O445526   7.314   5.167   1.807  0.0910  0.3493  0.6376
   82MOL     C545527   7.188   5.298   1.654  0.5599  0.2490  0.0039
   82MOL     C645528   7.144   5.171   1.580 -0.5905  0.5128  0.0740
   82MOL     C745529   7.089   5.207   1.435 -0.1953  0.0451  0.0304
   82MOL     O845530   7.054   5.088   1.366 -0.5243 -0.0727  1.0128
   82MOL     C945531   7.205   5.279   1.354  0.0586 -0.5858  0.3874
   82MOL    C1045532   7.165   5.333   1.212  0.5204 -0.3354 -0.3672
   82MOL    C1145533   7.270   5.401   1.430 -0.0632  0.3477  0.4349
   82MOL    C1245534   7.294   5.380   1.578 -0.0128  0.0857 -0.5725
   82MOL    H1345535   7.041   5.327   1.904  0.1247 -0.0905 -0.1811
   82MOL    H1445536   7.059   5.155   1.852 -0.8886  0.2395  0.6546
   82MOL    H1545537   7.274   5.371   1.844 -0.4147 -0.3065  0.4665
   82MOL    H1645538   7.304   5.136   1.895  0.0086 -1.1867  0.1006
   82MOL    H1745539   7.098   5.359   1.656  0.8149  0.6576 -0.7822
   82MOL    H1845540   7.224   5.097   1.577  1.8816  3.0039  2.3996
   82MOL    H1945541   7.063   5.129   1.640  0.4988  1.3111  2.1457
   82MOL    H2045542   7.010   5.282   1.429  0.1593  0.3520 -0.9096
   82MOL    H2145543   7.057   5.109   1.274  0.0866 -0.8356  0.8490
   82MOL    H2245544   7.282   5.203   1.349  0.6904  0.1279 -0.8538
   82MOL    H2345545   7.077   5.396   1.219  0.4609 -0.6134  1.9362
   82MOL    H2445546   7.251   5.380   1.164 -0.4944  0.3922 -1.4753
   82MOL    H2545547   7.219   5.496   1.413 -0.2571  0.0050 -0.9946
   82MOL    H2645548   7.369   5.426   1.393 -0.3289 -1.0387 -1.3232
   82MOL    H2745549   7.311   5.477   1.625 -0.3628 -0.4490  0.6787
   82MOL    H2845550   7.385   5.321   1.579  0.6000  1.0291 -0.4065
   82MOL    H2945551   7.106   5.225   2.089  0.4096  1.8340 -0.0114
   82MOL    O3045552   7.134   5.215   1.129 -0.4683 -0.0924 -0.2448
   82MOL    C3145553   7.081   5.249   0.996 -0.7510 -0.6383 -0.7171
   82MOL    C3245554   7.074   5.121   0.899  0.5812  0.1909  0.2256
   82MOL    O3345555   7.014   5.147   0.765 -0.1926 -0.2405  0.1662
   82MOL    C3445556   7.218   5.055   0.880 -0.0287  0.3083  0.2219
   82MOL    C3545557   7.323   5.146   0.817  1.0896  0.0688  0.4571
   82MOL    C3645558   7.461   5.068   0.808 -0.2201 -0.1007 -0.2192
   82MOL    O3745559   7.546   5.149   0.732 -0.0213 -0.1777 -0.0219
   82MOL    C3845560   7.450   4.930   0.748  0.7176 -0.3143  0.0549
   82MOL    C3945561   7.588   4.854   0.761 -0.8241 -0.2080 -0.1983
   82MOL    C4045562   7.338   4.845   0.802 -0.2337  0.4598  0.0773
   82MOL    C4145563   7.205   4.922   0.805  0.0515  0.8647 -0.0939
   82MOL    H4245564   7.146   5.326   0.955 -4.7765  2.4386 -1.5529
   82MOL    H4345565   6.986   5.300   1.010 -0.2343  0.5436 -1.4835
   82MOL    H4445566   7.005   5.047   0.940  0.8783  0.8114  1.8922
   82MOL    H4545567   7.018   5.066   0.718 -0.8061  0.2673 -0.7920
   82MOL    H4645568   7.244   5.039   0.985  0.0792  1.7036  0.4185
   82MOL    H4745569   7.298   5.170   0.714 -0.4313  0.8677  1.0042
   82MOL    H4845570   7.346   5.234   0.878  3.8625  0.0991 -0.5417
   82MOL    H4945571   7.516   5.068   0.902  2.1922 -1.4435 -1.5904
   82MOL    H5045572   7.534   5.231   0.776 -2.5844 -1.0569  1.0300
   82MOL    H5145573   7.430   4.955   0.644 -0.3521  5.1590  1.4413
   82MOL    H5245574   0.041   4.913   0.722  0.6265 -2.7098 -1.0085
   82MOL    H5345575   7.615   4.826   0.863 -0.2785  1.5330  0.1590
   82MOL    H5445576   7.373   4.813   0.900 -1.2009  1.0364  0.6241
   82MOL    H5545577   7.323   4.751   0.748 -0.6075  0.7927 -0.4067
   82MOL    H5645578   7.139   4.858   0.863 -0.0306 -0.6992 -1.8452
   82MOL    H5745579   7.142   4.924   0.716 -1.0456 -0.0311  0.6525
   82MOL    O5845580   7.587   4.734   0.692 -0.4155 -0.1610  0.2783
   82MOL    C5945581   0.028   4.630   0.754 -0.3179  0.2669  0.0857
   82MOL    C6045582   0.020   4.507   0.657  0.4361 -0.9900 -0.3179
   82MOL    O6145583   0.101   4.540   0.547 -0.5551 -0.7913 -0.4627
   82MOL    C6245584   0.089   4.380   0.727  0.6756  0.3131 -0.4143
   82MOL    C6345585   0.146   4.273   0.633  0.5529  0.6360 -0.3961
   82MOL    C6445586   0.229   4.167   0.713  0.7264 -0.7265 -0.4624
   82MOL    O6545587   0.277   4.069   0.624 -0.0308  0.4761  0.3638
   82MOL    C6645588   0.152   4.111   0.828 -0.1641  0.2284  0.3365
   82MOL    C6745589   0.245   4.020   0.916 -0.9094 -0.6785  0.4551
   82MOL    C6845590   0.081   4.213   0.920  0.0239 -0.3092 -0.1905
   82MOL    C6945591   0.002   4.319   0.835  0.1456 -0.2600 -0.2978
   82MOL    H7045592   7.626   4.601   0.855 -0.1631 -0.8796 -0.1868
   82MOL    H7145593   0.130   4.663   0.775  0.1089 -1.2084  0.3948
   82MOL    H7245594   7.553   4.468   0.625 -0.1207  0.4281 -0.3878
   82MOL    H7345595   0.081   4.629   0.523  1.3168  0.9380  3.8010
   82MOL    H7445596   0.175   4.423   0.779  2.0040 -1.7277 -0.8772
   82MOL    H7545597   0.073   4.225   0.568 -1.9381  2.0611  1.2432
   82MOL    H7645598   0.216   4.322   0.565  0.9514 -1.3078 -1.4218
   82MOL    H7745599   0.319   4.218   0.748 -0.1790 -0.2708  1.2518
   82MOL    H7845600   0.358   4.101   0.588 -0.7320  1.1450 -0.6345
   82MOL    H7945601   0.081   4.039   0.786  1.5648 -1.4683  0.2430
   82MOL    H8045602   0.275   3.934   0.857 -1.8362 -1.1815  0.7066
   82MOL    H8145603   0.332   4.071   0.958 -0.5455 -0.4906 -0.5084
   82MOL    H8245604   0.152   4.259   0.989 -1.8504  1.6966  0.4396
   82MOL    H8345605   0.005   4.167   0.984  0.0079 -1.2967 -0.8979
   82MOL    H8445606   7.593   4.393   0.905 -0.2292  0.5854 -1.3742
   82MOL    H8545607   7.549   4.263   0.791 -0.1236  2.6644 -3.7539
   82MOL    O8645608   0.167   3.973   1.022  0.2198  0.2848 -0.2575
   82MOL    C8745609   0.242   3.906   1.118 -0.6605  0.2666 -0.7033
   82MOL    C8845610   0.155   3.867   1.241  0.3949  0.0431 -0.5799
   82MOL    O8945611   0.226   3.767   1.316 -0.2062  0.1990 -0.5661
   82MOL    C9045612   0.115   3.973   1.348 -0.2711 -0.0887 -0.0697
   82MOL    C9145613   7.621   3.931   1.437 -0.0816 -0.3966  0.0240
   82MOL    C9245614   7.599   4.018   1.557 -0.2533 -0.5940 -0.4956
   82MOL    O9345615   7.495   3.971   1.640  0.0690 -0.5608 -0.2306
   82MOL    C9445616   7.587   4.168   1.527  0.2294 -0.6766  0.4533
   82MOL    C9545617   7.605   4.245   1.660 -0.2388 -0.0445 -0.2151
   82MOL    C9645618   0.068   4.208   1.422  0.4386  0.3376 -0.0657
   82MOL    C9745619   0.090   4.117   1.303 -0.5391  0.2266 -0.7792
   82MOL    H9845620   0.342   3.940   1.142 -0.0072 -1.7535 -0.4636
   82MOL    H9945621   0.267   3.812   1.069 -2.3923 -0.5920  0.0105
   82MOL   H10045622   0.062   3.828   1.199  0.5064  2.9162 -3.6607
   82MOL   H10145623   0.296   3.811   1.362 -1.6460 -0.3080  2.2179
   82MOL   H10245624   0.198   3.977   1.419 -0.0011 -1.3167 -0.2952
   82MOL   H10345625   7.534   3.938   1.372 -0.1223  1.9503  0.2762
   82MOL   H10445626   7.627   3.826   1.464  2.3701 -0.0402  0.9712
   82MOL   H10545627   0.053   4.000   1.625  0.1409 -0.1504 -0.8524
   82MOL   H10645628   7.522   3.889   1.679  1.5818  0.3589  0.7265
   82MOL   H10745629   7.488   4.186   1.486  0.0295  1.2727  1.7519
   82MOL   H10845630   7.553   4.203   1.746  0.0771 -1.3299 -0.6317
   82MOL   H10945631   0.077   4.225   1.696 -0.5992 -0.8062  0.3944
   82MOL   H11045632   0.164   4.203   1.474 -1.3292 -0.0077  3.2830
   82MOL   H11145633   0.055   4.312   1.392 -1.3524 -0.1104 -0.9336
   82MOL   H11245634   0.173   4.156   1.244 -0.2692  0.2764 -0.3672
   82MOL   H11345635   0.005   4.111   1.235 -0.0138 -1.3661 -1.3332
   82MOL   O11445636   7.599   4.384   1.644 -0.4818 -0.2425 -0.1146
   82MOL   C11545637   0.004   4.469   1.755  0.1355 -0.7052  0.6577
   82MOL   C11645638   7.530   4.489   1.867  0.0104  0.4182  0.3888
   82MOL   O11745639   7.602   4.521   1.980  0.0207  0.3676 -0.5654
   82MOL   C11845640   7.414   4.589   1.833 -0.3485 -0.2499 -0.2264
   82MOL   C11945641   7.306   4.592   1.946  0.1586  0.3812 -0.1981
   82MOL   C12045642   7.201   4.703   1.934 -0.1140 -0.1405 -0.2670
   82MOL   O12145643   7.126   4.714   2.053  0.2220  0.2634  0.0028
   82MOL   C12245644   7.133   4.682   1.794 -0.8121  0.2739 -0.2657
   82MOL   C12345645   7.043   4.805   1.771  0.5846  0.2545  0.3032
   82MOL   C12445646   7.225   4.651   1.674  0.1949  0.4656  0.1434
   82MOL   C12545647   7.329   4.545   1.710  0.2533 -0.0716 -0.3003
   82MOL   H12645648   0.033   4.563   1.706 -2.4944  0.5640  1.4579
   82MOL   H12745649   0.091   4.437   1.812 -0.1680 -3.9690 -0.6535
   82MOL   H12845650   7.479   4.400   1.904 -2.3105  2.2114  1.6897
   82MOL   H12945651   7.610   4.442   2.031 -1.8020  0.7198  0.2900
   82MOL   H13045652   7.438   4.692   1.806 -0.0370 -0.1124  0.5357
   82MOL   H13145653   7.259   4.493   1.950  0.8055  0.1164  1.3427
   82MOL   H13245654   7.358   4.599   2.042 -0.7525 -0.4949  0.3778
   82MOL   H13345655   7.262   4.792   1.924 -0.1115 -0.0242  0.8227
   82MOL   H13445656   7.129   4.625   2.086 -1.7304  0.3448  0.4136
   82MOL   H13545657   7.069   4.594   1.795  0.4681 -0.6690 -0.3986
   82MOL   H13645658   6.988   4.840   1.858  1.3727 -1.3741  1.5003
   82MOL   H13745659   7.115   4.875   1.728 -1.8845  0.1732 -4.2893
   82MOL   H13845660   7.280   4.743   1.653  0.2410  0.7470  1.3983
   82MOL   H13945661   7.159   4.627   1.591  1.0554  1.1236 -0.7468
   82MOL   H14045662   7.382   4.522   1.618 -2.2538  2.7592 -2.5560
   82MOL   H14145663   7.281   4.451   1.735 -1.2983  0.6817 -0.3761
   82MOL   O14245664   6.953   4.776   1.670  0.1962  0.8043  0.0749
   82MOL   C14345665   6.897   4.888   1.604 -0.6340 -0.3483  0.1376
   82MOL   C14445666   6.786   4.851   1.505  0.0749  0.5107 -0.1088
   82MOL   O14545667   6.737   4.970   1.451 -0.3390  0.7639 -0.3251
   82MOL   C14645668   6.813   4.746   1.401  0.0221  0.5821  0.4597
   82MOL   C14745669   6.906   4.780   1.283 -0.4224 -0.9372 -0.9981
   82MOL   C14845670   6.946   4.653   1.208  0.7632 -0.2344 -0.8579
   82MOL   O14945671   7.041   4.694   1.112 -0.0159  0.3332 -0.0749
   82MOL   C15045672   6.827   4.581   1.142 -0.1385  0.3180  0.1919
   82MOL   C15145673   6.868   4.436   1.091  0.5656 -0.5765  0.9874
   82MOL   C15245674   6.710   4.566   1.240 -0.2035 -0.0824 -0.5381
   82MOL   C15345675   6.681   4.679   1.341  0.0717 -0.1681 -0.1481
   82MOL   H15445676   6.982   4.925   1.545 -1.9627 -1.0350 -2.2761
   82MOL   H15545677   6.877   4.964   1.679  1.8441  0.3804  0.1099
   82MOL   H15645678   6.710   4.810   1.571 -1.3852  1.3932 -1.2277
   82MOL   H15745679   6.801   4.991   1.385 -1.1127 -0.6342 -1.5767
   82MOL   H15845680   6.860   4.653   1.435  2.8958  1.2694 -1.4533
   82MOL   H15945681   6.851   4.833   1.205 -3.5461 -2.2214  0.2387
   82MOL   H16045682   6.998   4.827   1.315 -0.3758 -0.2452 -2.0990
   82MOL   H16145683   7.001   4.588   1.276 -2.6508 -0.1864  2.1325
   82MOL   H16245684   7.109   4.750   1.147  2.3006 -2.2622 -0.3062
   82MOL   H16345685   6.790   4.643   1.060  1.7469  1.6766  0.3533
   82MOL   H16445686   6.968   4.424   1.051  1.5477 -0.2649  3.3181
   82MOL   H16545687   6.865   4.376   1.181 -0.1641 -2.4049 -0.2270
   82MOL   H16645688   6.718   4.474   1.296  0.0829  0.2220 -0.0787
   82MOL   H16745689   6.631   4.551   1.166 -0.1621 -2.5481 -0.1166
   82MOL   H16845690   6.623   4.635   1.422 -0.2034 -1.5810 -1.1025
   82MOL   H16945691   6.617   4.756   1.297 -0.3031 -0.7036 -0.5420
   82MOL   O17045692   6.788   4.406   0.983  0.2820  0.8707  0.5878
   82MOL   C17145693   6.813   4.282   0.929  0.2402 -0.4265  0.3585
   82MOL   C17245694   6.840   4.292   0.779 -0.3892  0.1444 -0.6510
   82MOL   O17345695   6.717   4.307   0.709 -0.3113  0.1010  0.0491
   82MOL   C17445696   6.946   4.395   0.734  0.1443 -0.0024  0.1087
   82MOL   C17545697   6.886   4.541   0.723  0.0234  0.1262 -0.2329
   82MOL   C17645698   6.983   4.651   0.665 -0.1556  0.8243 -0.3782
   82MOL   O17745699   6.898   4.761   0.631 -0.2486  0.3436  0.4119
   82MOL   C17845700   7.055   4.609   0.539  0.2027 -0.3484 -0.3882
   82MOL   C17945701   7.156   4.705   0.474 -0.3890  0.1793 -0.8461
   82MOL   C18045702   7.124   4.466   0.554 -0.6101  0.4386 -0.3074
   82MOL   C18145703   7.012   4.365   0.599 -0.0323  0.4608  0.3680
   82MOL   H18245704   6.717   4.233   0.948 -0.8758  0.9463 -1.6069
   82MOL   H18345705   6.893   4.226   0.978  0.3172  0.5029  1.3099
   82MOL   H18445706   6.885   4.195   0.760 -1.5256 -0.4931 -0.2049
   82MOL   H18545707   6.675   4.374   0.761  1.8424  0.7683  0.9915
   82MOL   H18645708   7.020   4.394   0.813  0.1772 -4.6287  0.1713
   82MOL   H18745709   6.813   4.530   0.642  0.0688 -1.8410 -0.0170
   82MOL   H18845710   6.851   4.579   0.818  1.1482 -0.4878  0.4380
   82MOL   H18945711   7.050   4.694   0.740 -0.3965  0.4937  0.0305
   82MOL   H19045712   6.827   4.768   0.692  1.1178 -0.8682  2.2021
   82MOL   H19145713   6.986   4.586   0.458 -1.7380 -0.1270  1.1842
   82MOL   H19245714   7.241   4.713   0.542 -2.0230  3.7468  0.9391
   82MOL   H19345715   7.191   4.657   0.383 -1.0339 -3.0306  0.5319
   82MOL   H19445716   7.201   4.472   0.632 -2.4483 -3.2245  1.8827
   82MOL   H19545717   7.175   4.435   0.463 -0.9130 -0.4957 -0.1634
   82MOL   H19645718   7.050   4.263   0.594 -0.4337  0.1691  2.5768
   82MOL   H19745719   6.935   4.352   0.523  0.4656 -2.5628  0.3196
   82MOL   O19845720   7.105   4.833   0.442 -0.4287 -0.1123  0.0027
   82MOL   C19945721   7.052   4.841   0.313 -0.0653  0.5059  0.2720
   82MOL   C20045722   6.947   4.953   0.313 -0.8364  0.0272 -0.1720
   82MOL   O20145723   6.832   4.900   0.378  0.3299 -0.3704 -0.0937
   82MOL   C20245724   6.993   5.075   0.390 -0.2692  0.4087 -0.7734
   82MOL   C20345725   6.892   5.195   0.382 -0.0264  0.1964 -0.0263
   82MOL   C20445726   6.938   5.322   0.454  0.2057 -0.6438  0.2819
   82MOL   O20545727   6.863   5.430   0.412  0.2069  0.4695  0.6522
   82MOL   C20645728   7.081   5.362   0.425  0.4144 -1.0919 -0.5755
   82MOL   C20745729   7.125   5.472   0.518  0.2392  0.1266 -0.2827
   82MOL   C20845730   7.171   5.240   0.446  0.3190  0.1537  0.6035
   82MOL   C20945731   7.136   5.123   0.355 -0.3632 -0.0672  0.5646
   82MOL   H21045732   6.999   4.748   0.291  3.4049 -2.0254  2.1565
   82MOL   H21145733   7.125   4.875   0.240 -0.2666 -0.0402 -0.1945
   82MOL   H21245734   6.915   4.968   0.210 -0.1378 -1.8748 -0.6839
   82MOL   H21345735   6.868   4.846   0.447  0.2431 -0.1651  0.1106
   82MOL   H21445736   7.003   5.039   0.492 -0.2152  0.2945 -0.8192
   82MOL   H21545737   6.859   5.224   0.282  2.5601  3.1283 -0.1146
   82MOL   H21645738   6.795   5.177   0.428 -0.6746  0.2145 -1.3438
   82MOL   H21745739   6.924   5.299   0.560  0.1155 -2.4566 -0.1167
   82MOL   H21845740   6.886   5.449   0.322 -1.6291  0.7560  0.2181
   82MOL   H21945741   7.094   5.405   0.325 -0.5861  0.3795 -0.0944
   82MOL   H22045742   7.073   5.566   0.499 -0.1807  0.1421  0.9289
   82MOL   H22145743   7.098   5.449   0.621 -1.8384  2.4605 -0.2678
   82MOL   H22245744   7.164   5.213   0.552 -1.8371 -2.9036 -0.2580
   82MOL   H22345745   7.276   5.256   0.422 -0.0323  0.0751 -0.9933
   82MOL   H22445746   7.213   5.048   0.370  0.1736  0.7120  1.7770
   82MOL   H22545747   7.129   5.164   0.254  0.4345 -1.4438 -0.0479
   82MOL   O22645748   7.260   5.511   0.512  0.0415  0.0835  0.0335
   82MOL   C22745749   7.277   5.641   0.579 -0.2001 -0.0707 -0.5653
   82MOL   C22845750   7.287   5.612   0.728 -0.0023  0.1006 -0.7875
   82MOL   O22945751   7.384   5.502   0.727  0.0159  0.2890 -0.1960
   82MOL   C23045752   7.344   5.731   0.806  0.2886 -0.1332 -0.1687
   82MOL   C23145753   7.368   5.685   0.955 -0.4112 -0.2740 -0.0654
   82MOL   C23245754   7.415   5.802   1.043 -0.2148  0.4558 -0.4976
   82MOL   O23345755   7.416   5.744   1.169 -0.0414 -0.1103 -0.1461
   82MOL   C23445756   7.318   5.916   1.042  0.0263  0.0642 -0.1751
   82MOL   C23545757   7.383   6.034   1.120  0.0337  0.0810 -0.0344
   82MOL   C23645758   7.280   5.960   0.897 -0.3915  0.1381  0.5865
   82MOL   C23745759   7.234   5.840   0.811 -0.1601  0.5131  0.2034
   82MOL   H23845760   7.204   5.716   0.549 -1.5567 -0.7552  0.9296
   82MOL   H23945761   7.371   5.680   0.539 -0.2385  0.4494 -0.1481
   82MOL   H24045762   7.192   5.581   0.770  0.9507 -0.0807  1.2970
   82MOL   H24145763   7.369   5.453   0.648  2.2119 -0.1159 -0.3793
   82MOL   H24245764   7.438   5.775   0.773  0.3117 -0.6937 -0.8558
   82MOL   H24345765   7.276   5.646   0.999 -0.8699  1.2480  0.3455
   82MOL   H24445766   7.441   5.604   0.966 -0.9084 -1.0071 -1.9759
   82MOL   H24545767   7.515   5.840   1.023 -0.9318  1.4876 -2.2903
   82MOL   H24645768   7.496   5.694   1.175  0.2301  0.1423 -1.4323
   82MOL   H24745769   7.231   5.883   1.098  0.2432 -0.7111 -0.2969
   82MOL   H24845770   7.413   6.011   1.222 -0.5766  0.9750  0.3607
   82MOL   H24945771   7.472   6.053   1.060 -0.4207  0.1933 -0.6767
   82MOL   H25045772   7.356   6.023   0.852 -0.5691 -0.1001 -0.0559
   82MOL   H25145773   7.193   6.025   0.904 -2.1924 -2.2712  1.4888
   82MOL   H25245774   7.224   5.881   0.710 -1.6599  1.8607  0.8888
   82MOL   H25345775   7.134   5.806   0.841  0.0633 -0.2316  0.1209
   82MOL   O25445776   7.293   6.140   1.102 -0.8444  0.3797 -0.2142
   82MOL   C25545777   7.327   6.251   1.186  0.0963  0.2417  0.6194
   82MOL   C25645778   7.216   6.354   1.163  0.1445  0.4685  0.2802
   82MOL   O25745779   7.217   6.369   1.021 -0.0887 -0.7013  0.0398
   82MOL   C25845780   7.079   6.296   1.209  0.2514  0.0963  1.1166
   82MOL   C25945781   7.006   6.195   1.116 -0.1540 -0.9637  0.4299
   82MOL   C26045782   6.867   6.148   1.179  0.2694  0.0754  0.0542
   82MOL   O26145783   6.804   6.051   1.097  0.4903 -0.3865  0.1989
   82MOL   C26245784   6.771   6.265   1.214 -0.3154 -0.0554 -0.2628
   82MOL   C26345785   6.652   6.211   1.304  0.0165 -0.4573  0.5611
   82MOL   C26445786   6.851   6.372   1.291  0.2089  0.1418  1.0080
   82MOL   C26545787   6.986   6.411   1.234  0.3369 -0.6903 -0.2200
   82MOL   H26645788   7.422   6.299   1.160 -0.4822  1.2567  0.3598
   82MOL   H26745789   7.343   6.220   1.290  0.9535  0.5228  0.5797
   82MOL   H26845790   7.233   6.444   1.221  2.0314 -0.1759  0.7895
   82MOL   H26945791   7.198   6.285   0.981  0.0983 -0.4191 -0.6501
   82MOL   H27045792   7.112   6.244   1.299  0.1525 -1.7088  0.1282
   82MOL   H27145793   6.999   6.241   1.018  2.3512 -0.0361  0.6684
   82MOL   H27245794   7.065   6.104   1.103 -0.3248 -1.0086 -0.0405
   82MOL   H27345795   6.885   6.096   1.273 -1.3115  0.4496  0.5767
   82MOL   H27445796   6.831   6.056   1.007  1.5903 -0.5486  0.5058
   82MOL   H27545797   6.737   6.297   1.116  2.4342 -0.8876 -1.5483
   82MOL   H27645798   6.598   6.140   1.242 -1.4542  0.1871  1.0963
   82MOL   H27745799   6.678   6.160   1.397 -1.7435 -1.5345  0.4794
   82MOL   H27845800   6.850   6.348   1.397 -0.2489 -1.6504  0.6142
   82MOL   H27945801   6.792   6.463   1.280  1.1299  0.3952 -2.4553
   82MOL   H28045802   7.025   6.493   1.294  1.0536  0.4324 -2.1403
   82MOL   H28145803   6.975   6.467   1.141 -1.2949  1.1685  1.0607
   82MOL   O28245804   6.564   6.317   1.333  0.0617 -0.0075  0.5779
   82MOL   C28345805   6.451   6.263   1.398  0.1360  0.7560 -0.3070
   82MOL   C28445806   6.364   6.377   1.453  0.2731 -0.7034 -0.7420
   82MOL   O28545807   6.303   6.443   1.350 -0.0190 -0.1871  0.0717
   82MOL   C28645808   6.256   6.340   1.563  0.4428 -0.0976 -0.1747
   82MOL   C28745809   6.160   6.238   1.499 -0.2390 -0.2613 -0.1047
   82MOL   C28845810   6.086   6.176   1.615  0.9221  0.3847 -0.0363
   82MOL   O28945811   6.006   6.068   1.559  0.3254  0.2396  0.1180
   82MOL   C29045812   5.996   6.280   1.694  0.0269 -0.2230  0.4822
   82MOL   C29145813   5.938   6.210   1.819  0.3099  0.3634 -0.1877
   82MOL   C29245814   6.089   6.398   1.740  0.5482 -0.0902  0.0606
   82MOL   C29345815   6.175   6.455   1.627 -0.1549  0.0205 -0.2227
   82MOL   H29445816   6.484   6.210   1.487 -0.5352  2.1102  0.7788
   82MOL   H29545817   6.403   6.196   1.327  0.5859 -1.2940  1.3057
   82MOL   H29645818   6.433   6.449   1.497 -0.1631  0.3972 -1.8085
   82MOL   H29745819   6.363   6.477   1.285 -1.5122  0.6600 -0.9086
   82MOL   H29845820   6.313   6.285   1.638 -0.1859  0.0018  0.3813
   82MOL   H29945821   6.098   6.290   1.426 -2.1011 -1.2327  0.7516
   82MOL   H30045822   6.215   6.161   1.444  3.2905  1.7131  0.4936
   82MOL   H30145823   6.159   6.124   1.677  0.2728 -0.8704 -0.2991
   82MOL   H30245824   6.005   6.082   1.466 -0.5927 -0.0490  0.0704
   82MOL   H30345825   5.925   6.336   1.634  0.7461  2.1589  1.7935
   82MOL   H30445826   5.866   6.140   1.777 -0.0883  0.8761 -0.3621
   82MOL   H30545827   6.011   6.173   1.891  0.3309  3.2745  1.3903
   82MOL   H30645828   6.158   6.368   1.819  0.5107 -1.9586 -0.5943
   82MOL   H30745829   6.029   6.477   1.784 -0.7321 -0.6961 -0.5871
   82MOL   H30845830   6.235   6.532   1.674 -0.7268 -0.0901  0.7129
   82MOL   H30945831   6.114   6.493   1.545 -0.7756  0.6979  0.5423
   82MOL   O31045832   5.860   6.316   1.883 -0.3407  0.1954 -0.5924
   82MOL   C31145833   5.818   6.293   2.019  0.3929  0.0171 -0.4494
   82MOL   C31245834   5.927   6.286   2.128  0.2877  0.3560  0.4355
   82MOL   O31345835   5.977   6.419   2.156  0.0843 -0.2058  0.3332
   82MOL   C31445836   5.881   6.219   2.252 -0.0381 -0.4649  0.4917
   82MOL   C31545837   5.854   6.064   2.225  0.4463  0.0755  0.0909
   82MOL   C31645838   5.836   5.985   2.356  0.2161 -0.4013  0.3269
   82MOL   O31745839   5.802   5.850   2.319 -0.0945  0.3688 -0.5157
   82MOL   C31845840   5.724   6.048   2.441 -0.1538  0.6110  0.7365
   82MOL   C31945841   5.694   5.971   2.570 -0.0529 -0.1628  0.3763
   82MOL   C32045842   5.751   6.202   2.460  0.1284  0.2479 -0.0555
   82MOL   C32145843   5.768   6.284   2.334 -0.0913 -0.3544 -0.6710
   82MOL   H32245844   5.773   6.194   2.010 -0.8411  0.5816 -0.6593
   82MOL   H32345845   5.736   6.363   2.039  0.7059  0.1516  0.3841
   82MOL   H32445846   6.012   6.227   2.093  1.0622  1.4047  0.5268
   82MOL   H32545847   5.915   6.460   2.214 -1.3219 -0.8169 -0.7311
   82MOL   H32645848   5.971   6.205   2.312  1.1946  1.4478 -0.8628
   82MOL   H32745849   5.758   6.056   2.175  0.5670 -1.7869  0.1126
   82MOL   H32845850   5.934   6.016   2.169  0.2421  1.5244 -1.4658
   82MOL   H32945851   5.928   5.981   2.414 -0.9321 -0.3392  2.1959
   82MOL   H33045852   5.761   5.816   2.397 -1.3330  0.6289 -1.0456
   82MOL   H33145853   5.631   6.036   2.385 -0.3036  1.1312  0.8677
   82MOL   H33245854   5.792   5.955   2.615  1.2314  2.7690 -1.1748
   82MOL   H33345855   5.634   6.031   2.639  1.1745 -1.2946  2.4710
   82MOL   H33445856   5.845   6.209   2.515  0.3252  3.3326 -0.7022
   82MOL   H33545857   5.663   6.242   2.510 -1.3079 -2.8689  0.0324
   82MOL   H33645858   5.803   6.387   2.350 -0.1055 -0.5022  0.3923
   82MOL   H33745859   5.671   6.291   2.284 -1.0206  1.3337  1.2565
   82MOL   O33845860   5.618   5.845   2.534 -0.0985  0.0052 -0.7407
   82MOL   C33945861   5.574   5.771   2.647 -1.4526 -0.1603  0.0817
   82MOL   C34045862   5.681   5.687   2.718 -1.1036  0.5440  0.3180
   82MOL   O34145863   5.638   5.658   2.845  0.6160 -0.5607 -0.8166
   82MOL   C34245864   5.710   5.556   2.650 -0.7334  0.1460  0.2667
   82MOL   C34345865   5.817   5.481   2.727 -0.3032 -0.0757  0.0502
   82MOL   C34445866   5.844   5.345   2.670 -0.3242 -0.0436  0.2207
   82MOL   O34545867   5.959   5.299   2.733  0.3397 -0.7212  0.0161
   82MOL   C34645868   5.877   5.348   2.511 -0.2849 -0.3487  0.3709
   82MOL   C34745869   5.869   5.213   2.456 -0.2184 -0.8448 -0.1639
   82MOL   C34845870   5.778   5.437   2.436 -0.2396 -0.5360  0.6484
   82MOL   C34945871   5.761   5.566   2.503  0.3534 -0.1767 -0.7222
   82MOL   H35045872   5.500   5.701   2.610 -0.1874 -2.7090  2.2492
   82MOL   H35145873   5.520   5.838   2.714 -0.2779  1.2217 -0.3045
   82MOL   H35245874   5.775   5.742   2.731  1.1819 -2.9660 -0.7333
   82MOL   H35345875   5.560   5.604   2.840  1.0739 -1.1337 -2.0021
   82MOL   H35445876   5.625   5.488   2.650 -1.6509  1.2524 -0.5590
   82MOL   H35545877   5.910   5.537   2.738  0.1796 -0.8452 -0.1090
   82MOL   H35645878   5.780   5.464   2.828  1.5529 -3.7779  0.2018
   82MOL   H35745879   5.761   5.275   2.685  0.1593 -0.5771  0.4203
   82MOL   H35845880   5.958   5.312   2.827  1.2042  1.5131 -0.2690
   82MOL   H35945881   5.975   5.395   2.498  0.2989 -1.8601 -0.8124
   82MOL   H36045882   5.921   5.140   2.518  1.0072 -0.2050 -0.4067
   82MOL   H36145883   5.766   5.180   2.455  0.3071 -2.5619  0.6190
   82MOL   H36245884   5.679   5.391   2.431  0.0082 -1.3245  2.5219
   82MOL   H36345885   5.806   5.463   2.334  2.7151 -3.0388  0.7836
   82MOL   H36445886   5.702   5.630   2.437  3.7476  0.9468 -2.8405
   82MOL   H36545887   5.851   5.628   2.503  0.3685 -0.1267  2.9219
   82MOL   O36645888   5.908   5.205   2.320 -0.6064  0.0123  0.0502
   82MOL   C36745889   5.880   5.080   2.262  1.3007 -0.5466 -0.0588
   82MOL   C36845890   5.876   5.100   2.100 -0.2641 -0.3287 -0.6197
   82MOL   O36945891   5.841   4.978   2.036  0.4754  0.4488 -1.1238
   82MOL   C37045892   5.786   5.209   2.052  0.1635  0.1211  0.3965
   82MOL   C37145893   5.635   5.196   2.108  0.2634  0.3257  0.0282
   82MOL   C37245894   5.547   5.299   2.049  0.1676 -0.1599  0.5022
   82MOL   O37345895   5.414   5.293   2.096  0.5381  0.1443 -0.0541
   82MOL   C37445896   5.549   5.320   1.897  0.6886 -0.2004 -0.1733
   82MOL   C37545897   5.468   5.445   1.859  0.1110 -0.7582  0.0966
   82MOL   C37645898   5.694   5.327   1.848 -0.7443 -0.3572 -0.2047
   82MOL   C37745899   5.779   5.210   1.902 -0.6398 -0.2820  0.2442
   82MOL   H37845900   5.780   5.043   2.283  1.1922 -0.2094  0.0157
   82MOL   H37945901   5.951   5.005   2.299 -1.3965 -2.1951  1.9432
   82MOL   H38045902   5.979   5.124   2.073 -0.6284  1.3659 -0.6075
   82MOL   H38145903   5.912   4.916   2.039 -0.1514 -0.2643 -0.6691
   82MOL   H38245904   5.835   5.303   2.076  1.9930 -0.1112 -2.2505
   82MOL   H38345905   5.588   5.099   2.091 -2.0595  0.7280  3.5251
   82MOL   H38445906   5.629   5.206   2.217 -1.0714  0.2262 -0.0283
   82MOL   H38545907   5.583   5.395   2.085  1.3248 -0.1466 -0.6469
   82MOL   H38645908   5.368   5.235   2.036 -0.5674  0.6942  0.2571
   82MOL   H38745909   5.492   5.243   1.845 -0.4131  1.1248 -0.9807
   82MOL   H38845910   5.374   5.457   1.913  0.6912  2.7261  0.4227
   82MOL   H38945911   5.512   5.538   1.894  0.9616 -0.7372 -0.9893
   82MOL   H39045912   5.751   5.417   1.871  1.1068 -1.5622  0.0970
   82MOL   H39145913   5.694   5.321   1.740 -2.5971 -0.1152 -0.2417
   82MOL   H39245914   5.879   5.221   1.858 -1.3973 -1.1042 -1.7693
   82MOL   H39345915   5.746   5.115   1.859  0.8451 -0.5869 -0.2514
   82MOL   O39445916   5.441   5.453   1.722  0.4435  0.3660 -0.4489
   82MOL   C39545917   5.339   5.365   1.674  0.0938  0.3694 -0.0933
   82MOL   C39645918   5.312   5.417   1.523 -0.5542  0.4806 -0.5583
   82MOL   O39745919   5.199   5.353   1.473 -0.2005 -0.5882  0.6187
   82MOL   C39845920   5.310   5.568   1.491 -0.2763  0.6195  0.4423
   82MOL   C39945921   5.200   5.649   1.551 -0.3813  0.1166  0.0310
   82MOL   C40045922   5.234   5.799   1.532  0.2193  0.2797 -0.0414
   82MOL   O40145923   5.152   5.880   1.608 -0.1703  0.1552  0.3289
   82MOL   C40245924   5.233   5.844   1.383  0.4318  0.8027  0.0345
   82MOL   C40345925   5.262   6.000   1.358  0.5541 -0.2314 -0.1103
   82MOL   C40445926   5.335   5.750   1.310  0.3322  0.6179 -0.4962
   82MOL   C40545927   5.315   5.601   1.339 -0.2017 -0.1915 -0.5714
   82MOL   H40645928   5.242   5.388   1.718  1.0848  1.8997  1.3277
   82MOL   H40745929   5.363   5.258   1.674  0.9945  0.5653 -0.0690
   82MOL   H40845930   5.394   5.385   1.459  0.7379  2.0853  0.2293
   82MOL   H40945931   5.128   5.378   1.530  0.5585  0.2201  1.2139
   82MOL   H41045932   5.405   5.606   1.528 -0.0306  2.2766 -1.8121
   82MOL   H41145933   5.101   5.625   1.513 -0.2531 -0.1583 -0.1272
   82MOL   H41245934   5.210   5.613   1.654 -3.8242 -2.5820 -0.4753
   82MOL   H41345935   5.327   5.825   1.584 -0.4736 -0.8940  1.8187
   82MOL   H41445936   5.210   5.937   1.656  1.6668 -2.4452  1.3243
   82MOL   H41545937   5.132   5.815   1.354  0.9865  0.4811 -1.6145
   82MOL   H41645938   5.186   6.051   1.417  0.9937 -0.1768  0.4051
   82MOL   H41745939   5.362   6.018   1.398  0.0626  1.4704  0.4003
   82MOL   H41845940   5.438   5.778   1.332 -0.2559  2.1724  0.3465
   82MOL   H41945941   5.333   5.766   1.202  0.8273 -0.6979 -0.7110
   82MOL   H42045942   5.383   5.536   1.284 -0.2400  0.1755 -1.0603
   82MOL   H42145943   5.216   5.567   1.308 -0.2031 -1.0552  0.3512
   82MOL   O42245944   5.252   6.042   1.221 -0.2065  0.1884 -0.7296
   82MOL   C42345945   5.278   6.184   1.203 -0.1878  0.3656  0.1999
   82MOL   C42445946   5.276   6.218   1.052  0.1523 -0.1532  0.0392
   82MOL   O42545947   5.219   6.344   1.028 -0.5804  0.0684 -0.5323
   82MOL   C42645948   5.417   6.215   0.993  0.1460 -0.4760 -0.0625
   82MOL   C42745949   5.501   6.328   1.047 -0.4182  0.4239 -0.0143
   82MOL   C42845950   5.641   6.342   0.977  0.1560 -0.1157  0.0262
   82MOL   O42945951   5.701   6.453   1.024  0.2005  0.2469  0.2164
   82MOL   C43045952   5.632   6.351   0.825 -0.2182  0.2333  0.4880
   82MOL   C43145953   5.771   6.347   0.764  0.2047  0.3010 -0.4460
   82MOL   C43245954   5.537   6.240   0.766  0.5810 -0.2910 -0.2184
   82MOL   C43345955   5.404   6.237   0.841 -0.5929 -0.0896 -0.2104
   82MOL   H43445956   5.372   6.210   1.250  1.2610 -1.5519 -1.5170
   82MOL   H43545957   5.196   6.232   1.257 -1.0018 -0.2101 -0.4932
   82MOL   H43645958   5.195   6.156   1.013 -2.3406  2.8350  0.2600
   82MOL   H43745959   5.148   6.345   0.967 -0.3849  0.0896 -0.7591
   82MOL   H43845960   5.460   6.115   0.997 -0.7375 -0.8671 -0.1323
   82MOL   H43945961   5.442   6.417   1.028  0.0709  1.2778  2.2542
   82MOL   H44045962   5.500   6.335   1.156 -3.2268  1.0819 -0.0297
   82MOL   H44145963   5.695   6.251   1.005  0.5923  1.0743  3.2999
   82MOL   H44245964   5.644   6.526   1.007  1.5090  0.8685 -1.8025
   82MOL   H44345965   5.593   6.451   0.802 -2.7512 -0.8732 -0.1552
   82MOL   H44445966   5.832   6.430   0.800 -0.0105 -0.7715  2.5056
   82MOL   H44545967   5.834   6.262   0.793 -0.1038  0.0899 -0.3994
   82MOL   H44645968   5.586   6.146   0.789 -0.4100 -0.6764  0.3753
   82MOL   H44745969   5.526   6.253   0.659  2.7164 -1.6966 -0.6314
   82MOL   H44845970   5.337   6.156   0.809 -0.1529 -0.4466 -0.2414
   82MOL   H44945971   5.352   6.330   0.821 -0.4361  0.0172 -0.1182
   82MOL   O45045972   5.761   6.355   0.620  0.0379  0.3358  0.0111
   82MOL   C45145973   5.869   6.423   0.556 -0.5051 -0.0213  0.0759
   82MOL   C45245974   5.816   6.456   0.409 -0.1031  0.2710  0.3181
   82MOL   O45345975   5.842   6.352   0.323  0.3082 -0.2207 -0.6281
   82MOL   C45445976   5.669   6.493   0.398  0.0728  0.0285 -0.1495
   82MOL   C45545977   5.614   6.494   0.250 -0.6355  0.3619  0.2462
   82MOL   C45645978   5.477   6.547   0.247 -0.5240  0.2308  0.6640
   82MOL   O45745979   5.444   6.548   0.113 -0.0884  0.1888 -0.1252
   82MOL   C45845980   5.456   6.684   0.312 -1.1488 -0.7896 -0.4689
   82MOL   C45945981   5.308   6.732   0.307  0.4218  0.3101 -0.3757
   82MOL   C46045982   5.518   6.688   0.455  0.5422 -0.3919 -0.5195
   82MOL   C46145983   5.652   6.626   0.468 -0.9599 -0.2182  0.6654
   82MOL   H46245984   5.967   6.375   0.557 -1.2669 -1.6164  0.4021
   82MOL   H46345985   5.874   6.521   0.604 -0.1418  0.4978 -1.0172
   82MOL   H46445986   5.875   6.540   0.372  0.9794  0.4848  2.4664
   82MOL   H46545987   5.821   6.278   0.378 -2.0188  0.9146  0.0823
   82MOL   H46645988   5.599   6.424   0.445 -1.4173  1.6557  0.1227
   82MOL   H46745989   5.687   6.556   0.198 -1.3948  0.4457 -0.7272
   82MOL   H46845990   5.619   6.392   0.211 -1.6428  0.7160 -0.8320
   82MOL   H46945991   5.413   6.472   0.294  0.3036 -0.8276  0.1388
   82MOL   H47045992   5.505   6.609   0.074  0.2051  0.7359  1.1861
   82MOL   H47145993   5.509   6.758   0.253 -0.7741  0.6712  1.6437
   82MOL   H47245994   5.281   6.722   0.201 -0.3805  0.5839 -0.2020
   82MOL   H47345995   5.254   6.671   0.380  3.6209 -0.5961  1.3257
   82MOL   H47445996   5.459   6.620   0.516 -0.2846  1.6309  1.0216
   82MOL   H47545997   5.513   6.790   0.494  1.1440 -0.5602  0.0001
   82MOL   H47645998   5.674   6.611   0.573  2.0542 -0.1651  0.0749
   82MOL   H47745999   5.720   6.702   0.429  0.7646 -2.2843 -0.4029
   82MOL   O47846000   5.305   6.870   0.332 -0.7530 -0.4075 -0.4289
   82MOL   C47946001   5.189   6.930   0.381  0.7029  0.1068 -0.2898
   82MOL   C48046002   5.078   6.948   0.275 -0.0674 -0.5652 -0.4638
   82MOL   O48146003   5.018   6.823   0.281  0.6074  0.0735 -0.3360
   82MOL   C48246004   4.965   7.045   0.306 -0.6950  0.2446  0.0465
   82MOL   C48346005   4.854   7.045   0.201  0.7050  0.0385  0.3998
   82MOL   C48446006   4.743   7.145   0.219 -0.3291  0.4004 -0.7942
   82MOL   O48546007   4.654   7.131   0.104 -0.1694  0.5476  0.8044
   82MOL   C48646008   4.796   7.293   0.231 -0.4103  0.1367  0.2766
   82MOL   C48746009   4.687   7.394   0.261  0.2475 -0.1984 -0.2302
   82MOL   C48846010   4.908   7.294   0.337 -0.4821  0.0606  0.8827
   82MOL   C48946011   5.021   7.190   0.325 -0.4436  0.3604 -0.0419
   82MOL   H49046012   5.234   7.025   0.411  1.0359 -0.4110  0.8975
   82MOL   H49146013   5.148   6.891   0.474  0.5616  2.1376  0.5426
   82MOL   H49246014   5.115   6.957   0.173  2.0298 -0.0198  0.3226
   82MOL   H49346015   4.978   6.819   0.367 -2.6545  3.2617 -1.5688
   82MOL   H49446016   4.924   7.025   0.405  0.2192  0.3665  0.4590
   82MOL   H49546017   4.903   7.065   0.106  1.1659  0.4855  0.7303
   82MOL   H49646018   4.804   6.948   0.188  0.4621  0.3440 -1.0495
   82MOL   H49746019   4.683   7.132   0.309 -2.4574 -1.8265 -2.4824
   82MOL   H49846020   4.599   7.056   0.119 -0.2102  0.9828  2.9863
   82MOL   H49946021   4.831   7.302   0.128  1.0052 -3.0243  0.4172
   82MOL   H50046022   4.601   7.382   0.195  0.1723 -0.4986 -0.0821
   82MOL   H50146023   4.655   7.367   0.361  2.1019  1.2447  0.7757
   82MOL   H50246024   4.867   7.278   0.437  0.8281  1.3195  1.6363
   82MOL   H50346025   4.957   7.390   0.325 -0.6623  0.1463  0.8465
   82MOL   H50446026   5.072   7.200   0.420 -2.3597 -1.6103  1.2542
   82MOL   H50546027   5.089   7.212   0.242 -0.2226  0.5586  0.1942
   82MOL   O50646028   4.753   7.521   0.246 -0.6471  0.1588 -0.0666
   82MOL   C50746029   4.702   7.615   0.340 -0.8482 -0.2563 -0.0424
   82MOL   C50846030   4.796   0.113   0.348  0.3938  0.7990  0.0771
   82MOL   O50946031   4.765   0.197   0.458 -0.0323 -0.5239 -0.1103
   82MOL   C51046032   4.952   0.085   0.346 -0.0189 -0.6777  0.3197
   82MOL   C51146033   5.013   0.006   0.466  0.5310 -0.3878  0.1994
   82MOL   C51246034   5.162   7.603   0.439  0.1146  0.1751  0.3978
   82MOL   O51346035   5.198   7.521   0.550 -0.5330  0.0098 -0.0989
   82MOL   C51446036   5.248   0.102   0.423 -0.7303 -0.3211  0.4591
   82MOL   C51546037   5.383   0.071   0.374  0.0615 -0.2701  0.0944
   82MOL   C51646038   5.182   0.192   0.316  0.1795 -0.0241 -0.0542
   82MOL   C51746039   5.031   0.221   0.332  0.2867 -0.3148 -0.6738
   82MOL   H51846040   4.692   7.567   0.438 -0.4635  0.5248  0.3849
   82MOL   H51946041   4.599   0.000   0.310 -1.3779 -1.9494  0.8448
   82MOL   H52046042   4.774   0.178   0.263  0.3556 -0.2173 -0.6965
   82MOL   H52146043   4.805   0.154   0.533 -1.6108 -2.0057 -0.0876
   82MOL   H52246044   4.969   0.020   0.260 -3.0755  0.5935 -1.3518
   82MOL   H52346045   5.003   0.062   0.560  0.3216  2.3308 -1.3959
   82MOL   H52446046   4.955   7.545   0.484 -3.4396  1.9152 -0.3864
   82MOL   H52546047   5.166   7.539   0.351  0.5612 -0.8739  1.1573
   82MOL   H52646048   5.267   7.458   0.534 -1.7332 -1.1799 -0.7117
   82MOL   H52746049   5.236   0.165   0.511 -2.1112 -0.2817  0.2647
   82MOL   H52846050   5.446   0.013   0.442  1.1307  0.9639  0.1680
   82MOL   H52946051   5.381   0.006   0.287  0.1356  1.3331 -1.1231
   82MOL   H53046052   5.198   0.146   0.219  1.4405 -2.1360  1.1349
   82MOL   H53146053   5.228   0.290   0.307  0.4459 -0.2617 -1.3241
   82MOL   H53246054   4.987   0.271   0.246 -0.7190  0.7806  0.4552
   82MOL   H53346055   5.009   0.288   0.415  1.0049 -0.9831  0.0728
   82MOL   O53446056   5.462   0.182   0.327 -0.2476  0.7937 -0.5342
   82MOL   C53546057   5.517   0.260   0.430  0.0397 -0.6971  0.9317
   82MOL   C53646058   5.571   0.390   0.361  0.6704  0.4575  0.5981
   82MOL   O53746059   5.460   0.459   0.310 -0.2526  0.0889  0.7934
   82MOL   C53846060   5.652   0.490   0.446  0.0433 -0.1556 -0.1040
   82MOL   C53946061   5.736   0.586   0.357 -0.2476  0.2447  0.0701
   82MOL   C54046062   5.818   0.693   0.432 -0.2229 -0.2839  0.1427
   82MOL   O54146063   5.896   0.771   0.341  0.3291 -0.2791 -0.3776
   82MOL   C54246064   5.904   0.631   0.540 -0.9488 -0.2434  0.4936
   82MOL   C54346065   5.971   0.740   0.631  0.5833  0.0807 -0.0978
   82MOL   C54446066   5.829   0.534   0.621 -0.2778  0.0777 -0.1551
   82MOL   C54546067   5.750   0.419   0.542 -0.3559 -0.0524 -0.2365
   82MOL   H54646068   5.590   0.199   0.482  1.2810 -0.9849 -1.1003
   82MOL   H54746069   5.432   0.292   0.491 -1.4638 -0.0516 -1.4306
   82MOL   H54846070   5.640   0.355   0.284 -0.6222 -3.7058  1.1964
   82MOL   H54946071   5.411   0.485   0.387  1.2618 -2.0983  2.5587
   82MOL   H55046072   5.584   0.555   0.500 -1.7336 -1.4244 -0.7705
   82MOL   H55146073   5.808   0.533   0.294  0.0881  1.1767 -0.3355
   82MOL   H55246074   5.664   0.636   0.292 -0.3725  0.5884  0.4729
   82MOL   H55346075   5.753   0.766   0.481  1.2500  0.5630  0.8787
   82MOL   H55446076   5.901   0.857   0.380  3.6102 -0.4633 -0.2286
   82MOL   H55546077   5.981   0.574   0.489 -1.8722 -0.7843 -0.3158
   82MOL   H55646078   6.039   0.709   0.710  0.4956 -0.6005 -0.2857
   82MOL   H55746079   6.045   0.790   0.568  0.1254  0.3879 -0.3964
   82MOL   H55846080   5.773   0.594   0.693  0.4354  0.2147  0.2973
   82MOL   H55946081   5.910   0.489   0.679 -0.0919  0.6704  0.0514
   82MOL   H56046082   5.692   0.356   0.609 -2.0103  1.1428 -0.5109
   82MOL   H56146083   5.821   0.360   0.484 -2.0574 -2.8205  0.4334
   82MOL   H56246084   5.896   0.801   0.681 -0.7470 -1.1437 -0.5569
   83MOL     O146085   4.059   3.088   4.421  0.1343  0.8694  0.2570
   83MOL     C246086   4.185   3.130   4.374  0.0849 -0.5107  0.3114
   83MOL     C346087   4.285   3.015   4.386  0.4498  0.6964 -0.0604
   83MOL     O446088   4.209   2.910   4.320  0.1792 -0.1075  0.2801
   83MOL     C546089   4.413   3.037   4.305 -0.1822 -0.4276 -0.2645
   83MOL     C646090   4.495   2.907   4.286 -0.6059 -0.7881 -0.3297
   83MOL     C746091   4.634   2.929   4.214  0.9414 -0.0174 -0.2504
   83MOL     O846092   4.691   2.799   4.201  0.5641  0.1587 -0.3190
   83MOL     C946093   4.722   3.035   4.292  0.6744  0.1596  0.0064
   83MOL    C1046094   4.845   3.061   4.209  0.0292 -0.4895 -0.0610
   83MOL    C1146095   4.638   3.162   4.307  0.0158 -0.0716 -0.8148
   83MOL    C1246096   4.505   3.131   4.386 -0.0102 -0.9697 -0.2982
   83MOL    H1346097   4.215   3.222   4.424 -0.0205 -0.5016  0.3556
   83MOL    H1446098   4.167   3.150   4.268 -0.5086 -0.3512  0.4401
   83MOL    H1546099   4.299   2.975   4.486  0.8638  1.3437  0.1464
   83MOL    H1646100   4.127   2.947   4.348 -0.4501  0.8671 -2.6100
   83MOL    H1746101   4.393   3.085   4.209 -1.4214  1.0161  0.7063
   83MOL    H1846102   4.502   2.848   4.377  3.0238  0.7887  0.4693
   83MOL    H1946103   4.436   2.844   4.219  0.7153  0.0512 -2.3431
   83MOL    H2046104   4.606   2.967   4.116 -1.3088 -1.4314 -0.2000
   83MOL    H2146105   4.647   2.760   4.127 -0.5384  1.5317 -0.4085
   83MOL    H2246106   4.750   2.991   4.387 -1.3576  1.7254  1.3678
   83MOL    H2346107   4.890   2.963   4.196 -1.2318 -1.0399 -0.3262
   83MOL    H2446108   4.826   3.087   4.105  0.5587 -0.2448 -0.1019
   83MOL    H2546109   4.604   3.203   4.212 -0.4973 -0.6993 -0.9101
   83MOL    H2646110   4.693   3.236   4.365 -0.4616 -1.3183  1.3232
   83MOL    H2746111   4.459   3.230   4.381  1.0618 -0.4195  0.5416
   83MOL    H2846112   4.513   3.118   4.493 -1.6793 -1.5744 -0.2359
   83MOL    H2946113   3.998   3.159   4.435 -1.7354 -1.1641  2.9967
   83MOL    O3046114   4.933   3.155   4.270 -0.1875 -0.0332  0.5211
   83MOL    C3146115   5.048   3.182   4.191 -0.1718  0.1492  0.1400
   83MOL    C3246116   5.123   3.305   4.246  0.1246  0.2694  0.7555
   83MOL    O3346117   5.248   3.322   4.179 -0.3251  0.4709 -0.6513
   83MOL    C3446118   5.045   3.442   4.242 -0.3094  0.4989 -0.2432
   83MOL    C3546119   4.989   3.476   4.107  0.1270  1.0021 -0.4071
   83MOL    C3646120   4.914   3.615   4.103 -0.3651  0.2262  0.1771
   83MOL    O3746121   4.850   3.619   3.968 -0.9509  0.0174 -0.7688
   83MOL    C3846122   4.998   3.734   4.151  0.3091  0.3914 -0.2473
   83MOL    C3946123   4.945   3.874   4.140 -0.1404  0.7484  0.1006
   83MOL    C4046124   5.051   3.699   4.295 -0.3967  0.2283  0.0616
   83MOL    C4146125   5.122   3.561   4.295 -0.4854 -0.0237  0.3119
   83MOL    H4246126   5.017   3.191   4.087 -1.3735  1.5388  0.5946
   83MOL    H4346127   5.110   3.093   4.189 -0.4653 -0.0288 -2.5387
   83MOL    H4446128   5.149   3.289   4.351  0.2478 -0.3637  0.6278
   83MOL    H4546129   5.303   3.356   4.247  0.5218 -0.5926 -0.7891
   83MOL    H4646130   4.966   3.435   4.317 -1.8321  2.4013 -1.6365
   83MOL    H4746131   5.060   3.474   4.024  1.5664 -2.1927  0.8310
   83MOL    H4846132   4.909   3.410   4.074  0.6345 -0.3544  1.0533
   83MOL    H4946133   4.829   3.604   4.171 -0.2527 -1.5624  0.0540
   83MOL    H5046134   4.793   3.693   3.983  0.6273  0.8170  1.4332
   83MOL    H5146135   5.086   3.735   4.088  0.4922 -1.1895 -0.0262
   83MOL    H5246136   5.028   3.939   4.167  0.5911  0.5293 -1.5794
   83MOL    H5346137   4.927   3.880   4.033  0.1909  2.0961  0.1113
   83MOL    H5446138   4.978   3.711   4.374 -0.1851  0.9658  0.1496
   83MOL    H5546139   5.132   3.765   4.327  0.4929 -0.8214  0.0059
   83MOL    H5646140   5.161   3.530   4.392 -1.6071 -3.3101 -0.2149
   83MOL    H5746141   5.210   3.579   4.233  0.0367  0.5724  1.2041
   83MOL    O5846142   4.827   3.884   4.217 -0.1334 -0.7874  0.5925
   83MOL    C5946143   4.770   4.016   4.207 -0.4835  0.8259  0.0328
   83MOL    C6046144   4.851   4.130   4.282 -0.5877  0.5787 -0.6257
   83MOL    O6146145   4.927   4.202   4.199 -0.1999  0.1854  0.3904
   83MOL    C6246146   4.773   4.228   4.374 -0.6891 -0.0644 -0.2459
   83MOL    C6346147   4.688   4.332   4.311 -0.2608  0.3506  0.0548
   83MOL    C6446148   4.592   4.389   4.414  0.0313 -0.5764 -0.0712
   83MOL    O6546149   4.504   4.480   4.343  0.3620  0.0440 -0.0794
   83MOL    C6646150   4.672   4.467   4.527  0.4787 -0.3616 -0.3110
   83MOL    C6746151   4.576   4.524   4.635 -0.0308 -0.4818 -0.7694
   83MOL    C6846152   4.785   4.379   4.585  0.0875 -0.0112  0.6020
   83MOL    C6946153   4.866   4.306   4.471  0.4391  0.8131  0.4676
   83MOL    H7046154   4.670   4.011   4.251 -0.3290 -0.1299  0.2824
   83MOL    H7146155   4.742   4.048   4.107  0.2670  2.2429  0.2609
   83MOL    H7246156   4.926   4.091   4.351 -1.8221 -0.8349 -0.0404
   83MOL    H7346157   4.999   4.236   4.250  0.9278 -0.4145 -0.7719
   83MOL    H7446158   4.718   4.158   4.437  0.6925 -0.8660  0.1091
   83MOL    H7546159   4.743   4.416   4.268 -0.8653  0.0943 -1.2390
   83MOL    H7646160   4.642   4.304   4.216 -1.1339  0.1758  0.5244
   83MOL    H7746161   4.539   4.307   4.463  1.1767 -0.0237  2.1495
   83MOL    H7846162   4.442   4.519   4.403 -0.1493 -1.2452  0.2598
   83MOL    H7946163   4.712   4.554   4.475  0.8189  0.2139  0.8961
   83MOL    H8046164   4.525   4.609   4.591 -0.0408 -0.5633 -0.9169
   83MOL    H8146165   4.501   4.452   4.669  0.4441 -1.4238 -1.6654
   83MOL    H8246166   4.747   4.314   4.663 -1.2542  0.8373  0.6662
   83MOL    H8346167   4.866   4.434   4.633  0.5351 -1.5482  1.6329
   83MOL    H8446168   4.939   4.237   4.514  0.1923 -0.1701 -0.6648
   83MOL    H8546169   4.922   4.377   4.411 -1.1218 -0.5829 -2.7507
   83MOL    O8646170   4.657   4.573   4.737 -0.0504  0.4381  0.5653
   83MOL    C8746171   4.580   4.620   4.845 -0.4835 -0.2925 -0.3726
   83MOL    C8846172   4.679   4.653   4.966 -0.2525 -0.4029 -0.0335
   83MOL    O8946173   4.735   4.774   4.931 -0.4314  0.2168 -0.2141
   83MOL    C9046174   4.620   4.684   5.111  0.2527 -0.0566  0.2678
   83MOL    C9146175   4.736   4.692   5.209  0.1333 -0.5969  0.4651
   83MOL    C9246176   4.698   4.705   5.359  0.5024  0.1473 -0.0756
   83MOL    O9346177   4.817   4.711   5.440  0.3794 -0.0033  0.6496
   83MOL    C9446178   4.611   4.588   5.406 -0.5205  0.2554 -0.0881
   83MOL    C9546179   4.565   4.600   5.556  0.6119 -0.6110  0.3480
   83MOL    C9646180   4.485   4.580   5.315  0.0843 -0.1932 -0.1287
   83MOL    C9746181   4.518   4.576   5.166 -0.0109 -0.4554 -0.0808
   83MOL    H9846182   4.506   4.550   4.881  0.7163 -0.6001  1.6267
   83MOL    H9946183   4.525   4.711   4.822  0.1538  0.2746  0.3008
   83MOL   H10046184   4.756   4.576   4.971 -2.3718 -2.5450  0.2168
   83MOL   H10146185   4.782   4.753   4.852 -0.5387  0.0066 -0.2223
   83MOL   H10246186   4.569   4.780   5.118  0.3427  0.0843 -0.8044
   83MOL   H10346187   4.789   4.597   5.198  0.4668 -0.3191 -0.3344
   83MOL   H10446188   4.808   4.765   5.175 -0.0035  1.0314  3.5260
   83MOL   H10546189   4.648   4.800   5.376  0.0944 -0.0691 -0.0593
   83MOL   H10646190   4.796   4.754   5.521  4.2845  1.4346  1.0177
   83MOL   H10746191   4.662   4.493   5.393 -0.7322  0.4514 -2.8144
   83MOL   H10846192   4.638   4.631   5.630 -0.9702  1.2343  1.1846
   83MOL   H10946193   4.474   4.659   5.567 -0.2082 -1.8145  0.1378
   83MOL   H11046194   4.423   4.667   5.337  1.2950  1.8336 -4.0829
   83MOL   H11146195   4.431   4.489   5.341  0.6679 -0.0996  1.4064
   83MOL   H11246196   4.419   4.584   5.121 -0.5169 -1.8893  0.7555
   83MOL   H11346197   4.548   4.473   5.143 -0.9409 -0.1270 -2.9603
   83MOL   O11446198   4.540   4.458   5.587 -0.0213  0.4665  0.0043
   83MOL   C11546199   4.458   4.455   5.704  0.5673  0.2910 -0.1803
   83MOL   C11646200   4.461   4.310   5.759  0.2657  0.0131  0.7621
   83MOL   O11746201   4.408   4.306   5.887 -0.1689 -0.2667  0.3240
   83MOL   C11846202   4.394   4.203   5.664 -0.1704 -0.3953 -0.7543
   83MOL   C11946203   4.249   4.238   5.627 -0.3436 -0.5925  0.4606
   83MOL   C12046204   4.188   4.135   5.529  0.3335 -0.0500 -0.6391
   83MOL   O12146205   4.049   4.162   5.492 -0.1901 -0.3499 -0.2282
   83MOL   C12246206   4.202   3.994   5.582 -0.3296 -0.2903  0.0531
   83MOL   C12346207   4.138   3.884   5.491  0.1369  0.1988 -0.4762
   83MOL   C12446208   4.351   3.959   5.608 -0.2517 -0.4062  0.2298
   83MOL   C12546209   4.419   4.058   5.708  0.6310 -0.3503  0.4331
   83MOL   H12646210   4.361   4.501   5.685  0.4033  0.2185  0.4932
   83MOL   H12746211   4.497   4.516   5.786  0.5704 -0.3115  0.2635
   83MOL   H12846212   4.568   4.289   5.765  0.2614 -0.8908 -1.9019
   83MOL   H12946213   4.475   4.345   5.941  0.0697  0.1532 -0.2705
   83MOL   H13046214   4.446   4.208   5.569 -0.5775  0.5219 -0.9405
   83MOL   H13146215   4.195   4.243   5.721  2.4075 -0.8654  2.1227
   83MOL   H13246216   4.235   4.337   5.585  0.8176  0.2829  2.0618
   83MOL   H13346217   4.237   4.139   5.432 -0.5038  0.3932 -1.0530
   83MOL   H13446218   4.000   4.164   5.572  1.6632  1.3118  0.9052
   83MOL   H13546219   4.145   3.988   5.674 -1.3146 -1.8018 -0.6335
   83MOL   H13646220   4.033   3.894   5.464  0.4201  1.3721 -1.1504
   83MOL   H13746221   4.175   3.892   5.389 -2.0669 -2.9576 -1.6143
   83MOL   H13846222   4.406   3.974   5.515 -0.2296 -0.4834  0.2310
   83MOL   H13946223   4.365   3.862   5.655 -1.4814  0.0219  1.4965
   83MOL   H14046224   4.526   4.041   5.710  0.7349 -0.4612 -3.6771
   83MOL   H14146225   4.381   4.039   5.809  1.9439 -0.2172  0.9603
   83MOL   O14246226   4.168   3.758   5.546  0.0122 -1.0910 -0.0168
   83MOL   C14346227   4.083   3.662   5.488  0.1028  0.1159 -0.4915
   83MOL   C14446228   4.109   3.529   5.548 -0.3170  0.4513 -0.2743
   83MOL   O14546229   4.243   3.511   5.499 -0.0201 -0.2958 -0.1133
   83MOL   C14646230   4.120   3.521   5.704  0.2471  0.1951 -0.2455
   83MOL   C14746231   4.136   3.383   5.764  0.0059 -0.1162 -0.0668
   83MOL   C14846232   4.152   3.382   5.919  0.4059  0.0012 -0.1578
   83MOL   O14946233   4.170   3.251   5.964  0.0720  0.0482  0.0507
   83MOL   C15046234   4.036   3.461   5.991  0.6534  0.3965 -0.1792
   83MOL   C15146235   4.057   3.473   6.143  0.1179 -0.0415  0.1383
   83MOL   C15246236   4.028   3.601   5.919  0.9396 -0.3633  0.7077
   83MOL   C15346237   3.998   3.590   5.769  0.2406  0.0438 -0.3755
   83MOL   H15446238   4.091   3.662   5.379  3.8871 -2.8810 -0.2879
   83MOL   H15546239   3.976   3.675   5.504 -0.2730 -2.1375 -1.0239
   83MOL   H15646240   4.047   3.450   5.506 -1.7859  2.4838 -1.9809
   83MOL   H15746241   4.297   3.586   5.520  1.8282 -1.9628  1.2040
   83MOL   H15846242   4.208   3.577   5.735  0.0842 -0.3223  1.2273
   83MOL   H15946243   4.046   3.326   5.744  0.3219 -0.1004 -1.6236
   83MOL   H16046244   4.222   3.331   5.721  0.7194  2.1766 -1.5522
   83MOL   H16146245   4.247   3.427   5.947  1.3046 -2.2355  0.5717
   83MOL   H16246246   4.099   3.200   5.929 -1.2111  1.3813  0.6406
   83MOL   H16346247   3.940   3.413   5.970 -0.8799  2.2960  2.1117
   83MOL   H16446248   4.060   3.376   6.193  0.1324  0.0101  0.2383
   83MOL   H16546249   4.156   3.512   6.164 -0.5701  0.9271  1.6771
   83MOL   H16646250   4.120   3.656   5.938  0.2098  1.5007 -0.9820
   83MOL   H16746251   3.961   3.670   5.970  0.0697 -2.3087  2.2632
   83MOL   H16846252   3.980   3.686   5.719  0.7721 -0.4874 -1.6100
   83MOL   H16946253   3.907   3.535   5.746  0.2752 -1.4415  2.8233
   83MOL   O17046254   3.948   3.544   6.204 -0.9548  0.9259 -0.4334
   83MOL   C17146255   3.953   3.541   6.347 -0.0633  0.1242 -0.4746
   83MOL   C17246256   4.019   3.673   6.385  0.2455  0.6020 -0.0174
   83MOL   O17346257   3.936   3.779   6.339 -0.3484  0.2132  0.0773
   83MOL   C17446258   4.036   3.695   6.538 -0.0876  0.2036  0.4976
   83MOL   C17546259   3.906   3.697   6.623 -0.2263  0.4227 -0.1360
   83MOL   C17646260   3.927   3.731   6.779 -0.0566  0.1360  0.1182
   83MOL   O17746261   3.792   3.752   6.822  0.4711 -0.6613 -0.0949
   83MOL   C17846262   4.009   3.859   6.803  0.6511 -0.7196 -0.0234
   83MOL   C17946263   4.037   3.875   6.954 -0.4381 -0.0365 -0.5764
   83MOL   C18046264   4.145   3.845   6.715 -0.4139 -0.1042  0.0160
   83MOL   C18146265   4.126   3.818   6.564  0.1840 -0.1093  0.7295
   83MOL   H18246266   4.010   3.457   6.387  1.6137  1.4362 -0.0249
   83MOL   H18346267   3.854   3.538   6.391 -1.0371 -2.6494 -2.7328
   83MOL   H18446268   4.119   3.667   6.341  0.0005 -0.0823 -0.4918
   83MOL   H18546269   3.884   3.753   6.264  0.8768  1.0879 -1.1055
   83MOL   H18646270   4.098   3.612   6.572 -1.3541 -1.9337 -2.1869
   83MOL   H18746271   3.828   3.765   6.589  0.2776  0.9837 -0.1764
   83MOL   H18846272   3.866   3.597   6.611  0.1467  0.1149  1.0854
   83MOL   H18946273   3.971   3.650   6.836 -1.2103 -0.7642 -0.2567
   83MOL   H19046274   3.768   3.688   6.888 -2.6329  0.4995  0.0221
   83MOL   H19146275   3.949   3.942   6.766  0.0486 -1.3004 -0.3373
   83MOL   H19246276   3.946   3.912   7.001 -0.3931  0.3661 -0.8070
   83MOL   H19346277   4.062   3.779   6.999 -0.0204  0.5213  0.3991
   83MOL   H19446278   4.190   3.753   6.752 -0.7513 -1.4557 -2.7951
   83MOL   H19546279   4.209   3.933   6.722 -2.2717  1.1178  2.8879
   83MOL   H19646280   4.226   3.804   6.522 -0.3011  1.1347 -0.8834
   83MOL   H19746281   4.083   3.910   6.525  1.6739  0.2623 -0.1032
   83MOL   O19846282   4.132   3.970   6.974  0.4348 -0.0630  0.0719
   83MOL   C19946283   4.143   3.991   7.116 -0.3334  0.2478 -0.0463
   83MOL   C20046284   4.262   4.085   7.147  0.0707 -0.2832 -0.3275
   83MOL   O20146285   4.246   4.196   7.228 -0.2878  0.5358  0.3171
   83MOL   C20246286   4.397   4.019   7.185 -0.5725 -0.0229 -0.6579
   83MOL   C20346287   4.412   4.006   7.340 -0.2537  0.7861 -0.6634
   83MOL   C20446288   4.541   3.948   7.378 -0.6878 -0.7094  0.3680
   83MOL   O20546289   4.540   3.945   7.518 -0.2776  0.3158  0.2656
   83MOL   C20646290   4.660   4.027   7.316  0.1549  0.0272  0.3755
   83MOL   C20746291   4.802   3.968   7.328 -0.2798 -0.7995 -0.0696
   83MOL   C20846292   4.638   4.034   7.162  1.0004 -0.4879  0.4099
   83MOL   C20946293   4.516   4.106   7.122 -0.0616 -0.5032 -0.6459
   83MOL   H21046294   4.156   3.899   7.172  0.0047  0.8087  0.8014
   83MOL   H21146295   4.048   4.040   7.140 -1.5843 -1.5023 -1.2716
   83MOL   H21246296   4.266   4.128   7.047 -3.8816  2.4629  0.5560
   83MOL   H21346297   4.173   4.244   7.192  0.8012  1.9825 -0.0006
   83MOL   H21446298   4.410   3.919   7.143  0.5517 -0.2618  0.2300
   83MOL   H21546299   4.407   4.103   7.390 -0.6570 -0.2384  1.3039
   83MOL   H21646300   4.343   3.936   7.387  0.6616  1.4474  1.7247
   83MOL   H21746301   4.555   3.847   7.340 -0.3178 -0.1396 -1.0419
   83MOL   H21846302   4.516   3.855   7.533  0.5547 -0.1531 -1.1801
   83MOL   H21946303   4.662   4.129   7.356 -1.4356 -0.0742  0.7346
   83MOL   H22046304   4.811   3.884   7.259  1.0022  1.5408 -2.8258
   83MOL   H22146305   4.868   4.045   7.290 -1.4320  1.6374  2.6547
   83MOL   H22246306   4.633   3.938   7.111  3.0279 -0.4826  0.1547
   83MOL   H22346307   4.727   4.083   7.123 -0.3508  2.1776  0.4941
   83MOL   H22446308   4.499   4.103   7.014 -0.8211 -1.6790 -0.5086
   83MOL   H22546309   4.519   4.205   7.167  0.0909 -0.9469  0.3411
   83MOL   O22646310   4.841   3.925   7.459  0.1843 -0.3889 -0.1959
   83MOL   C22746311   4.881   4.036   7.539 -0.0343 -0.3782  0.7320
   83MOL   C22846312   4.910   3.970   0.037  0.2166  0.5417  0.5083
   83MOL   O22946313   4.781   3.937   0.078 -0.1449  0.5247 -0.1519
   83MOL   C23046314   5.006   3.845   0.031  0.0830  0.3376  0.6797
   83MOL   C23146315   5.029   3.791   0.172  0.9322  0.4634  0.2093
   83MOL   C23246316   5.136   3.674   0.179  0.0422  0.0937 -0.5995
   83MOL   O23346317   5.161   3.637   0.322 -0.0627 -0.0767  0.4846
   83MOL   C23446318   5.265   3.705   0.100  0.5613  0.3753 -0.0826
   83MOL   C23546319   5.361   3.587   0.107  0.0911 -0.3979  0.2960
   83MOL   C23646320   5.224   3.741   7.586  0.0213 -0.1267  0.6797
   83MOL   C23746321   5.139   3.866   7.583 -0.1327  0.0809  0.5228
   83MOL   H23846322   4.803   4.113   7.546  0.0027 -0.3269  0.5768
   83MOL   H23946323   4.972   4.079   7.497 -1.4216  1.1578 -0.7742
   83MOL   H24046324   4.939   4.050   0.106  1.1430  1.6837 -1.1894
   83MOL   H24146325   4.726   3.923   0.003  0.8416  2.0806 -1.2003
   83MOL   H24246326   4.946   3.772   7.606  0.8132  2.5992 -3.3516
   83MOL   H24346327   5.077   3.871   0.229  1.6059  0.0881  0.1796
   83MOL   H24446328   4.937   3.780   0.229  1.0112 -1.5852 -0.0277
   83MOL   H24546329   5.078   3.593   0.134 -0.7003 -0.2546  0.9336
   83MOL   H24646330   5.231   3.689   0.358  1.1132 -2.1844  1.3183
   83MOL   H24746331   5.315   3.795   0.137  1.8363  0.2679 -1.4693
   83MOL   H24846332   5.409   3.578   0.204 -1.7544  2.0532  1.4791
   83MOL   H24946333   5.302   3.496   0.091  0.4474 -0.4504 -0.8015
   83MOL   H25046334   5.168   3.663   7.535 -1.6284 -0.3115  2.7200
   83MOL   H25146335   5.311   3.775   7.530  1.6453  1.0115  3.8063
   83MOL   H25246336   5.119   3.892   7.480  0.1721  0.6780  0.6137
   83MOL   H25346337   5.198   3.946   7.628 -1.9657  1.5519  0.3714
   83MOL   O25446338   5.461   3.611   0.003 -0.4213  1.2208  0.4528
   83MOL   C25546339   5.544   3.500   7.616  0.4683 -0.5357  0.2294
   83MOL   C25646340   5.633   3.523   7.489 -0.1268 -0.8773  0.3346
   83MOL   O25746341   5.731   3.615   7.525 -0.2705 -0.3887 -0.1582
   83MOL   C25846342   5.711   3.396   7.437 -0.0633  0.2978  0.6599
   83MOL   C25946343   5.610   3.305   7.359  0.1364  0.5295 -0.1041
   83MOL   C26046344   5.672   3.198   7.282  0.1084 -0.1693 -0.6212
   83MOL   O26146345   5.575   3.106   7.239  0.3509 -0.5591 -0.5426
   83MOL   C26246346   5.771   3.118   7.374 -0.1478 -0.0397  0.0843
   83MOL   C26346347   5.859   3.024   7.291 -0.3833 -0.8256 -0.1394
   83MOL   C26446348   5.859   3.200   7.466  0.7497  0.5584  0.3247
   83MOL   C26546349   5.785   3.314   7.541  0.0041 -0.4442  0.4484
   83MOL   H26646350   5.475   3.416   7.609 -1.7247  1.2702 -0.4228
   83MOL   H26746351   5.592   3.476   0.081  1.6936  0.9232 -0.0063
   83MOL   H26846352   5.573   3.556   7.404 -0.7652 -0.2718  1.0153
   83MOL   H26946353   5.692   3.693   7.561 -0.9152 -1.1533  0.8518
   83MOL   H27046354   5.785   3.434   7.367 -2.2191  1.5643 -0.9627
   83MOL   H27146355   5.536   3.267   7.429 -0.5902  2.9399  0.4777
   83MOL   H27246356   5.556   3.368   7.288 -0.5132  1.5999  1.3196
   83MOL   H27346357   5.723   3.233   7.193  0.1808  1.1824 -0.0494
   83MOL   H27446358   5.613   3.023   7.216  0.9018 -0.0902 -1.3512
   83MOL   H27546359   5.713   3.051   7.437  0.9764 -1.6996 -0.6341
   83MOL   H27646360   5.917   3.067   7.210  1.9388 -0.6718  1.5550
   83MOL   H27746361   5.933   2.981   7.359 -1.9602 -1.2858  1.3259
   83MOL   H27846362   5.929   3.251   7.398 -1.5302  1.9158 -1.0746
   83MOL   H27946363   5.917   3.138   7.534 -0.1184  0.7423  1.2345
   83MOL   H28046364   5.848   3.388   7.589  1.1046  0.3520 -2.1679
   83MOL   H28146365   5.716   3.271   7.613 -0.7812 -0.8784 -0.5424
   83MOL   O28246366   5.798   2.912   7.230 -0.1458 -0.1077 -0.1100
   83MOL   C28346367   5.811   2.793   7.300 -0.0644 -0.0725  0.3948
   83MOL   C28446368   5.934   2.714   7.251 -0.2561 -0.0554  0.0068
   83MOL   O28546369   5.962   2.607   7.341  0.6023  0.1345 -0.1554
   83MOL   C28646370   5.910   2.646   7.113  0.0241 -0.4401  0.3259
   83MOL   C28746371   6.032   2.580   7.052 -0.5813 -1.4119 -0.4127
   83MOL   C28846372   6.009   2.501   6.922 -0.4345 -0.0377 -0.1390
   83MOL   O28946373   6.132   2.449   6.873 -0.2069  0.0763 -0.0125
   83MOL   C29046374   5.945   2.582   6.808  0.6673 -0.1045 -0.1953
   83MOL   C29146375   5.896   2.495   6.692 -0.3709 -0.6724  0.2787
   83MOL   C29246376   5.829   2.665   6.868  0.1164  0.6056 -0.0339
   83MOL   C29346377   5.858   2.741   6.999  0.0865 -0.5146 -0.0653
   83MOL   H29446378   5.713   2.749   7.279  0.2112 -0.1891 -0.6877
   83MOL   H29546379   5.804   2.810   7.407  1.1129  2.2434  0.1321
   83MOL   H29646380   6.021   2.780   7.251  0.1033 -0.5191  0.8896
   83MOL   H29746381   5.879   2.589   7.381  1.0591  0.1077  0.7915
   83MOL   H29846382   5.844   2.560   7.125 -1.1658  0.3655 -0.3888
   83MOL   H29946383   6.097   2.666   7.037 -2.4140  0.2550  0.8875
   83MOL   H30046384   6.065   2.519   7.135 -2.2340 -1.2436  0.3976
   83MOL   H30146385   5.942   2.419   6.948 -1.4315 -0.7717 -4.6145
   83MOL   H30246386   6.199   2.513   6.892 -0.9989  0.7883  0.4345
   83MOL   H30346387   6.020   2.650   6.769  0.7702  0.1305  0.4153
   83MOL   H30446388   5.978   2.452   6.636 -1.9301 -1.4440 -1.4661
   83MOL   H30546389   5.822   2.425   6.732  0.4051 -1.0791  1.0066
   83MOL   H30646390   5.750   2.593   6.893  0.5798  0.2565  0.4339
   83MOL   H30746391   5.787   2.729   6.790 -1.0379 -1.3633 -1.0767
   83MOL   H30846392   5.762   2.777   7.036  1.4373  1.4399  1.6239
   83MOL   H30946393   5.925   2.823   6.974 -1.6135  0.5693 -1.1882
   83MOL   O31046394   5.836   2.581   6.596  0.2175  0.2249 -0.1301
   83MOL   C31146395   5.806   2.498   6.482 -0.5765  1.1666  0.2481
   83MOL   C31246396   5.720   2.587   6.392  0.0107  0.5473 -0.2429
   83MOL   O31346397   5.803   2.696   6.380  0.2099  0.5396  0.5125
   83MOL   C31446398   5.698   2.542   6.243 -0.6742  0.3765 -0.0688
   83MOL   C31546399   5.594   2.639   6.170  0.2805  0.0024 -0.7700
   83MOL   C31646400   5.587   2.613   6.020 -0.2727 -0.3535  0.0853
   83MOL   O31746401   5.484   2.691   5.971  0.0800  0.1153 -0.6703
   83MOL   C31846402   5.556   2.465   5.991 -0.5006  0.0019 -1.1569
   83MOL   C31946403   5.576   2.416   5.843 -0.5055 -0.3759 -0.3159
   83MOL   C32046404   5.640   2.366   6.080 -0.1639  0.6793 -0.1699
   83MOL   C32146405   5.646   2.398   6.227 -0.5651 -0.3305  0.7726
   83MOL   H32246406   5.759   2.402   6.505  2.4011 -0.1907  1.0331
   83MOL   H32346407   5.895   2.466   6.427 -0.8501  0.0109  0.4542
   83MOL   H32446408   5.624   2.597   6.444  0.8213  1.7267  1.0673
   83MOL   H32546409   5.847   2.705   6.463 -2.1339  1.6317  1.7010
   83MOL   H32646410   5.794   2.538   6.193 -0.8550  0.5484 -0.4376
   83MOL   H32746411   5.505   2.610   6.227  1.4513  0.7263  1.4845
   83MOL   H32846412   5.610   2.746   6.176 -2.1741  0.3509 -0.0022
   83MOL   H32946413   5.684   2.639   5.977  1.1103 -3.9255  0.8216
   83MOL   H33046414   5.496   2.700   5.878  2.2009  0.3671 -0.3979
   83MOL   H33146415   5.449   2.451   6.008  0.3807 -3.4373  2.1623
   83MOL   H33246416   5.681   2.425   5.814  0.1758  2.1344  2.6491
   83MOL   H33346417   5.543   2.312   5.840  1.5803 -1.0277 -2.4622
   83MOL   H33446418   5.746   2.358   6.056  0.3876  0.7637  2.0732
   83MOL   H33546419   5.613   2.264   6.054  2.0225  0.3624 -1.3452
   83MOL   H33646420   5.719   2.328   6.270  0.4528 -0.4518 -1.0880
   83MOL   H33746421   5.555   2.390   6.286  1.2459 -1.7339  3.4948
   83MOL   O33846422   5.496   2.481   5.751 -0.2652  0.2265 -0.5943
   83MOL   C33946423   5.533   2.433   5.619  0.3644 -0.3939 -0.5746
   83MOL   C34046424   5.429   2.474   5.519  0.5571  0.5938 -0.1149
   83MOL   O34146425   5.445   2.609   5.482  0.0718 -0.8378 -0.0402
   83MOL   C34246426   5.427   2.393   5.385 -0.0326 -0.3587 -0.2368
   83MOL   C34346427   5.371   2.257   5.415  0.7154 -0.5950  0.4450
   83MOL   C34446428   5.377   2.162   5.291  0.3544 -0.6661 -0.0531
   83MOL   O34546429   5.351   2.026   5.333 -0.4601  0.8291 -0.4613
   83MOL   C34646430   5.516   2.157   5.218  0.1275 -0.7343 -0.2266
   83MOL   C34746431   5.530   2.096   5.075  0.0980  0.5959 -0.5042
   83MOL   C34846432   5.545   2.309   5.186 -1.2664  0.2923  0.1397
   83MOL   C34946433   5.563   2.390   5.315 -0.5660 -0.3282  0.1421
   83MOL   H35046434   5.548   2.325   5.616  0.5708 -0.4199  0.8828
   83MOL   H35146435   5.625   2.479   5.584 -0.3163  0.5546 -1.1243
   83MOL   H35246436   5.332   2.467   5.567  0.5217  1.0026 -0.1222
   83MOL   H35346437   5.468   2.657   5.560  0.7549 -0.5864 -0.3854
   83MOL   H35446438   5.358   2.439   5.314 -0.0017 -0.1075 -0.1078
   83MOL   H35546439   5.415   2.196   5.493 -0.1654 -2.1902 -0.2649
   83MOL   H35646440   5.264   2.263   5.437  0.6510  1.4187 -0.3223
   83MOL   H35746441   5.297   2.190   5.222  0.9356  1.6477  0.1739
   83MOL   H35846442   5.295   1.983   5.271 -0.3294 -0.5768  0.3747
   83MOL   H35946443   5.602   2.116   5.271  0.1937  1.3312  1.3071
   83MOL   H36046444   5.447   2.143   5.021 -1.3898 -0.5988  0.7131
   83MOL   H36146445   5.626   2.121   5.028  0.5456  0.6376  0.4257
   83MOL   H36246446   5.462   2.351   5.130 -1.4308  0.9928  0.8961
   83MOL   H36346447   5.635   2.313   5.125 -0.1268 -1.4696  1.6430
   83MOL   H36446448   5.581   2.493   5.284  0.5225 -0.9454 -1.3426
   83MOL   H36546449   5.641   2.348   5.379 -1.6136 -0.9845  1.0106
   83MOL   O36646450   5.520   1.957   5.056  0.4244 -0.0638 -0.0370
   83MOL   C36746451   5.642   1.893   5.100  0.1091  0.6242  0.6637
   83MOL   C36846452   5.613   1.740   5.130  0.0237 -0.3520 -0.1180
   83MOL   O36946453   5.589   1.675   5.007 -0.1892  0.0491  0.4767
   83MOL   C37046454   5.726   1.659   5.206  0.8291 -0.2038  0.0585
   83MOL   C37146455   5.873   1.662   5.154  0.4603 -0.1330  0.2853
   83MOL   C37246456   5.969   1.570   5.228  0.0930 -0.2496  0.5587
   83MOL   O37346457   6.099   1.578   5.160 -0.1277  0.2058 -0.0717
   83MOL   C37446458   5.919   1.427   5.235 -0.0533  0.1095 -0.1078
   83MOL   C37546459   6.000   1.323   5.310 -0.3023  0.3278 -0.4196
   83MOL   C37646460   5.775   1.432   5.304  0.3159  0.4555  0.0803
   83MOL   C37746461   5.677   1.512   5.220 -0.2423  0.6037  0.9893
   83MOL   H37846462   5.679   1.936   5.193 -0.8686 -2.1656  2.3943
   83MOL   H37946463   5.713   1.907   5.018 -0.6502 -0.7212 -0.2365
   83MOL   H38046464   5.531   1.754   5.200  0.7714  0.7565  0.5492
   83MOL   H38146465   5.636   1.719   4.938  0.0284 -2.0849 -0.7763
   83MOL   H38246466   5.716   1.701   5.306  1.5094 -0.8476  0.4021
   83MOL   H38346467   5.875   1.621   5.053 -0.7332 -0.2673  0.3158
   83MOL   H38446468   5.904   1.767   5.147  0.3601 -0.1556 -0.6113
   83MOL   H38546469   5.960   1.620   5.324  0.6131 -1.4819  1.2599
   83MOL   H38646470   6.160   1.525   5.209 -1.1892  1.5789  2.8906
   83MOL   H38746471   5.909   1.396   5.131  2.9480  2.0598 -1.0178
   83MOL   H38846472   6.099   1.324   5.265  1.5340  1.6136  3.4465
   83MOL   H38946473   6.010   1.345   5.416  1.1107  1.7856 -0.8313
   83MOL   H39046474   5.779   1.482   5.401 -2.9823 -1.4339  1.2677
   83MOL   H39146475   5.740   1.330   5.319 -0.0056  0.5441 -0.0788
   83MOL   H39246476   5.579   1.497   5.265  1.2197 -0.7342  3.8543
   83MOL   H39346477   5.670   1.459   5.125 -0.1284 -2.1185  2.4698
   83MOL   O39446478   5.936   1.202   5.302 -0.3477 -0.3794 -0.0202
   83MOL   C39546479   5.962   1.120   5.185 -0.2889 -0.4865 -0.5963
   83MOL   C39646480   5.861   0.996   5.192  0.2877  0.0407  0.3251
   83MOL   O39746481   5.896   0.934   5.315 -0.2285 -0.6849 -0.2711
   83MOL   C39846482   5.714   1.022   5.186 -0.4113  0.5063  1.2040
   83MOL   C39946483   5.631   0.893   5.208  0.6562  0.2929  0.1583
   83MOL   C40046484   5.479   0.933   5.197 -0.3454 -0.8695 -0.5647
   83MOL   O40146485   5.411   0.817   5.220 -0.3791 -0.0869  0.0697
   83MOL   C40246486   5.448   0.996   5.061 -0.2043 -0.0650 -0.5885
   83MOL   C40346487   5.297   1.026   5.027  0.1208 -0.0603 -0.0191
   83MOL   C40446488   5.542   1.115   5.031 -0.4642 -0.0457 -0.0691
   83MOL   C40546489   5.689   1.071   5.039  0.0997  0.1768  0.7693
   83MOL   H40646490   6.063   1.079   5.186 -0.1253 -0.1030  1.1779
   83MOL   H40746491   5.943   1.178   5.095  0.5911  1.0001  0.1456
   83MOL   H40846492   5.880   0.920   5.116 -1.1965  1.5220 -1.5558
   83MOL   H40946493   5.914   1.007   5.373 -0.4195 -0.6271 -0.2833
   83MOL   H41046494   5.694   1.095   5.265  3.3501  0.7506  2.0093
   83MOL   H41146495   5.662   0.821   5.132 -0.4611 -0.1121  0.0845
   83MOL   H41246496   5.664   0.843   5.299  0.7024 -0.2971 -0.1818
   83MOL   H41346497   5.458   1.002   5.278  0.2519 -0.9615 -0.3298
   83MOL   H41446498   5.333   0.826   5.167 -2.3797 -1.1853  2.6879
   83MOL   H41546499   5.462   0.928   4.977 -0.2824 -0.0821 -0.5880
   83MOL   H41646500   5.256   1.096   5.099  1.6222 -0.6795  1.4617
   83MOL   H41746501   5.298   1.063   4.924 -1.2323 -0.5730 -0.2338
   83MOL   H41846502   5.530   1.198   5.100 -3.0433 -1.9821  1.9474
   83MOL   H41946503   5.525   1.154   4.931  0.9856  1.4964  0.2734
   83MOL   H42046504   5.752   1.155   5.010  1.9887 -0.3897  3.0559
   83MOL   H42146505   5.704   0.982   4.979 -0.9499 -1.1437  2.4174
   83MOL   O42246506   5.233   0.894   5.041  0.4897 -0.7245  0.0332
   83MOL   C42346507   5.198   0.839   4.911 -0.4858 -0.2275 -0.2289
   83MOL   C42446508   5.145   0.695   4.926  0.7952  0.5953  0.5888
   83MOL   O42546509   5.096   0.645   4.807 -0.4298  0.4649 -0.2285
   83MOL   C42646510   5.247   0.603   4.996 -0.5150  0.0765  0.1089
   83MOL   C42746511   5.384   0.587   4.932 -0.8849  1.1101 -0.3352
   83MOL   C42846512   5.469   0.499   5.026 -0.3961 -0.3468 -0.2565
   83MOL   O42946513   5.587   0.489   4.945  0.0672  0.5685 -0.1401
   83MOL   C43046514   5.416   0.364   5.071  0.1074 -0.2225  0.4425
   83MOL   C43146515   5.503   0.285   5.172  0.1801  0.0644 -0.4683
   83MOL   C43246516   5.278   0.388   5.127  0.0059  0.8827  0.5338
   83MOL   C43346517   5.192   0.464   5.021  0.1882 -0.1515 -0.3442
   83MOL   H43446518   5.288   0.842   4.849  0.7749  0.0632  1.5971
   83MOL   H43546519   5.123   0.899   4.859  0.4807  0.0376 -1.3501
   83MOL   H43646520   5.058   0.688   4.992 -0.2264 -1.0983 -0.8935
   83MOL   H43746521   5.155   0.582   4.768 -0.8194  1.1820 -2.0574
   83MOL   H43846522   5.263   0.645   5.095  1.6373  0.0768 -0.2198
   83MOL   H43946523   5.379   0.541   4.833 -0.0656 -0.8551  0.5213
   83MOL   H44046524   5.435   0.682   4.915  1.0744  0.2151  0.4137
   83MOL   H44146525   5.505   0.553   5.113  1.9084  1.7454 -2.4309
   83MOL   H44246526   5.655   0.448   4.995  0.6641  0.3749 -1.1223
   83MOL   H44346527   5.414   0.301   4.982  0.6809  1.8375 -1.0653
   83MOL   H44446528   5.444   0.199   5.205  2.8070 -1.3919  0.5803
   83MOL   H44546529   5.593   0.246   5.123  1.3963  1.7202  0.4051
   83MOL   H44646530   5.293   0.448   5.217  2.4494 -0.1656  0.8503
   83MOL   H44746531   5.226   0.300   5.165  2.9952 -1.4930 -0.6654
   83MOL   H44846532   5.089   0.474   5.055  0.2902 -1.9667  0.5410
   83MOL   H44946533   5.190   0.412   4.926 -0.6963  0.2567 -0.5508
   83MOL   O45046534   5.532   0.363   5.286  0.0805  0.0386 -0.3336
   83MOL   C45146535   5.568   0.298   5.402 -0.0356 -0.0173  0.1007
   83MOL   C45246536   5.604   0.403   5.511  0.7030  0.2166  0.2836
   83MOL   O45346537   5.580   0.363   5.648 -0.0080 -0.3933  0.5242
   83MOL   C45446538   5.756   0.453   5.511  0.5641  0.2443 -0.1147
   83MOL   C45546539   5.798   0.547   5.402 -0.0778  0.8366  0.3031
   83MOL   C45646540   5.945   0.599   5.414  0.2888  0.2325 -0.3273
   83MOL   O45746541   5.977   0.677   5.302  0.1431 -0.0402 -0.4705
   83MOL   C45846542   6.041   0.478   5.421  0.2609  0.1488 -0.6994
   83MOL   C45946543   6.181   0.525   5.437  0.6419  0.8256 -0.0050
   83MOL   C46046544   6.004   0.390   5.536  0.4071 -0.3704  0.2451
   83MOL   C46146545   5.858   0.339   5.516  0.3065 -0.5957  0.0822
   83MOL   H46246546   5.649   0.227   5.386  1.4381  1.3665  1.2619
   83MOL   H46346547   5.481   0.242   5.435  0.2975 -1.4570 -1.4426
   83MOL   H46446548   5.543   0.490   5.485 -0.1373 -0.8163 -1.3253
   83MOL   H46546549   5.507   0.304   5.657  0.4604 -0.9748  0.5483
   83MOL   H46646550   5.764   0.515   5.600 -1.5597  1.7000 -0.8992
   83MOL   H46746551   5.786   0.511   5.300  0.2647  0.6868  0.3173
   83MOL   H46846552   5.720   0.623   5.396  0.3140  1.0502 -2.6915
   83MOL   H46946553   5.956   0.657   5.507 -1.6362 -0.2576  0.2224
   83MOL   H47046554   5.921   0.753   5.310  1.6873  0.9361  1.5931
   83MOL   H47146555   6.029   0.419   5.331 -2.7927  1.3191 -1.1325
   83MOL   H47246556   6.193   0.623   5.391  1.2207  0.0078 -1.6630
   83MOL   H47346557   6.201   0.549   5.541  2.0621 -0.5927  0.0651
   83MOL   H47446558   6.004   0.454   5.623  1.6645 -0.4048  0.2809
   83MOL   H47546559   6.079   0.312   5.553  2.1268  0.9546 -1.0628
   83MOL   H47646560   5.834   0.273   5.600  1.2268 -1.5954 -0.4259
   83MOL   H47746561   5.859   0.279   5.425 -1.9392  0.5408 -0.7387
   83MOL   O47846562   6.279   0.433   5.385 -0.6375 -0.5837 -0.4664
   83MOL   C47946563   6.416   0.464   5.409  0.7882 -0.4123  0.2860
   83MOL   C48046564   6.492   0.380   5.307 -0.8300  0.4105 -0.1109
   83MOL   O48146565   6.477   0.434   5.178 -0.0664 -0.0156 -0.1379
   83MOL   C48246566   6.640   0.365   5.351 -0.4560 -0.0293  0.1232
   83MOL   C48346567   6.709   0.505   5.346 -0.1500  0.1636  0.0779
   83MOL   C48446568   6.853   0.495   5.388  0.6117 -0.2218 -0.6865
   83MOL   O48546569   6.912   0.624   5.375 -0.4402  0.2090 -0.2298
   83MOL   C48646570   6.934   0.393   5.299 -0.2437  0.2985  0.2384
   83MOL   C48746571   7.083   0.394   5.342  0.1590  1.3354  0.4061
   83MOL   C48846572   6.876   0.250   5.306 -0.3096 -0.0445  0.2522
   83MOL   C48946573   6.724   0.255   5.269 -0.4364 -0.3288 -0.7646
   83MOL   H49046574   6.432   0.444   5.514 -1.3317 -0.9002  0.5387
   83MOL   H49146575   6.439   0.569   5.392  0.7712 -0.5311 -0.5274
   83MOL   H49246576   6.447   0.281   5.308 -3.3876  1.5355  1.1868
   83MOL   H49346577   6.388   0.463   5.169 -0.8784 -1.5619  2.5520
   83MOL   H49446578   6.644   0.351   5.459 -0.6968 -0.6159  0.0613
   83MOL   H49546579   6.690   0.556   5.252 -2.4338 -1.7125 -0.5299
   83MOL   H49646580   6.669   0.567   5.427  1.2197  2.3504 -0.8694
   83MOL   H49746581   6.857   0.463   5.492  0.0795  0.9531 -0.3027
   83MOL   H49846582   6.840   0.686   5.365  0.1502  1.2305  1.6349
   83MOL   H49946583   6.929   0.436   5.199  1.0652  0.2456  0.1435
   83MOL   H50046584   7.144   0.322   5.289  0.8032  1.0455  1.5281
   83MOL   H50146585   7.131   0.492   5.337  2.4153  0.1526 -2.1059
   83MOL   H50246586   6.883   0.219   5.410 -0.1438 -0.3369  0.1576
   83MOL   H50346587   6.925   0.179   5.238  1.1110  0.0292  1.1755
   83MOL   H50446588   6.684   0.153   5.274 -0.9257 -0.0859  0.8734
   83MOL   H50546589   6.719   0.281   5.164  0.0718 -0.0112 -0.7116
   83MOL   O50646590   7.108   0.351   5.480  0.0861 -0.6763  0.2266
   83MOL   C50746591   7.249   0.348   5.519  0.1173 -0.5342 -0.0321
   83MOL   C50846592   7.274   0.263   5.646 -0.0026 -0.1685  0.6527
   83MOL   O50946593   7.270   0.123   5.617  0.1290  0.1260 -0.0471
   83MOL   C51046594   7.403   0.320   5.721  0.8134  0.2320 -0.3185
   83MOL   C51146595   7.533   0.299   5.630  0.5516  0.2545  0.1096
   83MOL   C51246596   0.017   0.379   5.694  0.2842 -0.3374  0.0462
   83MOL   O51346597   0.127   0.362   5.611  0.0325  0.1756 -0.8533
   83MOL   C51446598   0.049   0.332   5.831 -0.4979 -0.2608 -0.6596
   83MOL   C51546599   0.160   0.430   5.880 -0.8374  0.2803 -0.7220
   83MOL   C51646600   7.554   0.330   5.922 -0.5428  0.5000  0.0222
   83MOL   C51746601   7.430   0.257   5.853  0.0034 -0.2854 -0.3894
   83MOL   H51846602   7.271   0.454   5.538  2.2606 -0.5145 -2.3404
   83MOL   H51946603   7.317   0.313   5.442  0.9185  1.9245 -0.4884
   83MOL   H52046604   7.187   0.290   5.706 -0.4054 -1.9846  0.9239
   83MOL   H52146605   7.223   0.087   5.691 -1.3901 -0.4634 -1.2914
   83MOL   H52246606   7.390   0.427   5.736  0.9576  0.4191 -1.4688
   83MOL   H52346607   7.558   0.194   5.638  0.9647  0.5234  3.1570
   83MOL   H52446608   7.523   0.323   5.524 -1.3271 -0.4438  0.0968
   83MOL   H52546609   7.620   0.484   5.685  3.1541  0.4013 -0.4639
   83MOL   H52646610   0.118   0.425   5.541  4.3290  0.0204 -1.7132
   83MOL   H52746611   0.091   0.231   5.831 -0.7445 -0.3672  0.1701
   83MOL   H52846612   0.242   0.442   5.810 -1.7217  3.9771 -1.2303
   83MOL   H52946613   0.113   0.527   5.895 -1.9445 -0.6786  2.5940
   83MOL   H53046614   7.526   0.435   5.933 -0.1621  0.4334  1.6856
   83MOL   H53146615   7.572   0.286   6.020  1.2775 -0.1927 -0.6043
   83MOL   H53246616   7.339   0.259   5.913  0.0600 -0.1745 -0.3071
   83MOL   H53346617   7.462   0.155   5.831 -1.6402 -0.3852 -2.4301
   83MOL   O53446618   0.225   0.377   6.000 -0.3273  0.2503 -0.3712
   83MOL   C53546619   0.337   0.458   6.051 -0.2223  0.4863 -0.2190
   83MOL   C53646620   0.373   0.416   6.195 -0.2034  0.3222  0.1868
   83MOL   O53746621   0.446   0.292   6.184 -0.5878 -0.5253  0.5257
   83MOL   C53846622   0.471   0.523   6.259  0.5556 -0.1691  0.1172
   83MOL   C53946623   0.616   0.513   6.214  0.2915 -0.2017  0.2669
   83MOL   C54046624   0.718   0.577   6.308  0.0098  0.4428 -0.2803
   83MOL   O54146625   0.850   0.566   6.250 -0.4558  0.1738 -1.0481
   83MOL   C54246626   0.715   0.518   6.450 -0.1185 -0.6133  0.3261
   83MOL   C54346627   0.822   0.589   6.539 -0.6000 -0.2596  0.3968
   83MOL   C54446628   0.568   0.544   6.497  0.1305  0.1589 -0.1213
   83MOL   C54546629   0.459   0.489   6.412  0.2264 -0.2377 -0.2378
   83MOL   H54646630   0.290   0.556   6.060 -1.1006 -0.0410  1.0752
   83MOL   H54746631   0.417   0.458   5.977 -0.1117  1.2601 -0.1064
   83MOL   H54846632   0.285   0.381   6.249 -0.2235 -2.9391 -1.7810
   83MOL   H54946633   0.399   0.242   6.118  1.2195 -0.7981 -0.5860
   83MOL   H55046634   0.439   0.626   6.244  0.1359 -0.2260  0.6143
   83MOL   H55146635   0.653   0.410   6.212 -1.1053 -0.8361  3.1471
   83MOL   H55246636   0.621   0.544   6.110  0.3670  2.7635  1.1231
   83MOL   H55346637   0.705   0.685   6.307 -1.4479  0.2807 -2.2882
   83MOL   H55446638   0.894   0.639   6.292 -0.5177  0.2214 -1.0659
   83MOL   H55546639   0.736   0.412   6.439 -0.0942 -0.7749  1.8825
   83MOL   H55646640   0.823   0.548   6.640  2.0711 -1.1025  0.0686
   83MOL   H55746641   0.927   0.582   6.508 -0.1108  2.5661  1.2278
   83MOL   H55846642   0.557   0.652   6.502 -2.4136 -0.0384 -0.9014
   83MOL   H55946643   0.556   0.510   6.600 -0.4197  0.1157 -0.1958
   83MOL   H56046644   0.365   0.533   6.444  1.2678  1.9814 -0.0970
   83MOL   H56146645   0.468   0.381   6.424 -0.0679 -0.2009  0.3400
   83MOL   H56246646   0.790   0.689   6.569 -1.6369 -0.0938 -1.2235
   84MOL     O146647   0.812   6.076   1.422  0.2586 -0.4167 -0.7000
   84MOL     C246648   0.692   6.134   1.469  0.5010  0.0255  0.3316
   84MOL     C346649   0.720   6.253   1.567 -0.0810 -0.5157  0.0023
   84MOL     O446650   0.825   6.314   1.497  0.2632 -0.3819  0.1266
   84MOL     C546651   0.601   6.360   1.578 -0.7504 -0.1785  0.5634
   84MOL     C646652   0.658   6.484   1.651 -0.3733  0.1037  0.1553
   84MOL     C746653   0.550   6.604   1.674  0.5350 -0.1591 -0.0394
   84MOL     O846654   0.610   6.693   1.765  0.2994 -0.1887  0.6223
   84MOL     C946655   0.410   6.553   1.726 -0.6563  0.6191  0.1913
   84MOL    C1046656   0.304   6.661   1.754  0.4239 -0.2270  0.1611
   84MOL    C1146657   0.365   6.430   1.649 -0.4711  0.0997 -0.4851
   84MOL    C1246658   0.468   6.319   1.650 -0.0536  0.1637 -0.0079
   84MOL    H1346659   0.630   6.065   1.527  0.3015 -0.4074 -0.3904
   84MOL    H1446660   0.643   6.172   1.379  1.0494 -0.6241 -0.2452
   84MOL    H1546661   0.744   6.215   1.667 -1.5441 -1.5557 -0.0323
   84MOL    H1646662   0.860   6.243   1.445  0.2400 -0.0959 -0.2817
   84MOL    H1746663   0.565   6.376   1.477  0.2658 -2.4400 -0.1739
   84MOL    H1846664   0.700   6.459   1.748 -0.6306  0.2077  0.2940
   84MOL    H1946665   0.748   6.531   1.611  0.3481 -2.0815 -0.8478
   84MOL    H2046666   0.517   6.659   1.585  0.9382  1.3979  0.7476
   84MOL    H2146667   0.630   6.652   1.848 -0.0611 -0.8694  0.3839
   84MOL    H2246668   0.430   6.527   1.830  1.1222 -0.9639 -0.5164
   84MOL    H2346669   0.347   6.735   1.822  1.5489  1.9393 -2.7984
   84MOL    H2446670   0.283   6.725   1.668 -3.2322  0.6788  1.6368
   84MOL    H2546671   0.334   6.464   1.551  4.7513 -0.9562 -2.6472
   84MOL    H2646672   0.273   6.396   1.698 -0.9305  0.2771 -1.2138
   84MOL    H2746673   0.427   6.225   1.613 -0.0757  0.8596 -1.8232
   84MOL    H2846674   0.492   6.314   1.756  2.1246 -4.1220 -0.6203
   84MOL    H2946675   0.857   6.044   1.498  2.2155  1.7408 -0.9190
   84MOL    O3046676   0.185   6.599   1.802  0.1777 -0.3242  0.1385
   84MOL    C3146677   0.101   6.701   1.865 -0.6128 -0.0895 -0.7173
   84MOL    C3246678   7.604   6.648   1.925 -0.2065  0.2454 -0.0544
   84MOL    O3346679   7.623   6.628   2.058  0.4106  0.1221 -0.5705
   84MOL    C3446680   7.481   6.737   1.892 -0.4568  0.0379  0.5828
   84MOL    C3546681   7.494   6.883   1.947  0.4468  0.2228  0.3142
   84MOL    C3646682   7.379   6.965   1.891  0.6207 -0.3249 -0.3969
   84MOL    O3746683   7.400   7.099   1.940 -0.0685  0.2487  0.3938
   84MOL    C3846684   7.243   6.910   1.940 -0.3537 -0.4635 -0.0190
   84MOL    C3946685   7.129   6.985   1.878 -0.4454  1.2573  0.6911
   84MOL    C4046686   7.233   6.765   1.911  1.0455  0.6177 -0.8025
   84MOL    C4146687   7.353   6.676   1.953 -0.1523 -0.5386 -0.2146
   84MOL    H4246688   0.068   6.758   1.778  0.2578 -0.1247 -1.0743
   84MOL    H4346689   0.161   6.758   1.935 -0.3060 -1.9371  0.5427
   84MOL    H4446690   7.581   6.554   1.876  1.3781 -0.1168 -0.1157
   84MOL    H4546691   0.029   6.708   2.092  0.6607 -0.1851 -0.1040
   84MOL    H4646692   7.478   6.735   1.783 -3.2043  4.5069  0.4761
   84MOL    H4746693   7.505   6.888   2.056  2.4472 -0.0045  0.1351
   84MOL    H4846694   7.577   6.929   1.894 -0.3368  1.7482  0.3990
   84MOL    H4946695   7.385   6.968   1.782  1.6780 -0.2634 -0.3383
   84MOL    H5046696   7.413   7.100   2.033  0.0718  0.2109  0.3759
   84MOL    H5146697   7.232   6.931   2.046  0.3178 -0.6710  0.0913
   84MOL    H5246698   7.138   7.089   1.907 -2.4404  1.1013  1.9728
   84MOL    H5346699   7.131   6.974   1.769 -0.4545 -1.3323  0.9052
   84MOL    H5446700   7.231   6.752   1.803 -3.7461  0.0368 -0.7293
   84MOL    H5546701   7.141   6.725   1.953  1.2743  1.8150  0.8965
   84MOL    H5646702   7.344   6.571   1.924  0.1721 -0.5900 -0.1317
   84MOL    H5746703   7.374   6.679   2.060  0.8192  0.0644 -0.4172
   84MOL    O5846704   7.011   6.938   1.945 -0.2720 -0.1855 -0.4036
   84MOL    C5946705   6.895   6.941   1.867 -0.1753  0.0379 -0.0006
   84MOL    C6046706   6.789   7.026   1.931 -0.4254 -0.1939 -0.1117
   84MOL    O6146707   6.727   6.957   2.033  0.1686 -0.2571 -0.3603
   84MOL    C6246708   6.829   7.171   1.969  0.0531  0.3024  0.3146
   84MOL    C6346709   6.911   7.186   2.096 -0.3683  0.1317 -0.0072
   84MOL    C6446710   6.941   7.336   2.122 -0.3042  0.0209 -0.0699
   84MOL    O6546711   7.032   7.329   2.234  0.9034  0.4736 -0.6183
   84MOL    C6646712   6.822   7.422   2.152  0.4288 -0.0870 -0.2563
   84MOL    C6746713   6.852   7.575   2.185 -0.1159  0.6056 -0.0327
   84MOL    C6846714   6.722   7.408   2.030 -0.0594  0.0541  0.0657
   84MOL    C6946715   6.705   7.260   1.990 -0.2223  0.0272  0.2579
   84MOL    H7046716   6.859   6.839   1.852  1.1034 -0.1681 -1.6782
   84MOL    H7146717   6.912   6.965   1.762 -1.8010  0.7613 -0.1237
   84MOL    H7246718   6.706   7.036   1.861 -1.0325  1.1758  0.7861
   84MOL    H7346719   6.639   6.939   2.003 -0.5087 -2.6304  2.8280
   84MOL    H7446720   6.887   7.201   1.882 -3.3327  2.1406 -1.4326
   84MOL    H7546721   6.852   7.139   2.175  1.9490 -1.2587  0.9874
   84MOL    H7646722   7.005   7.131   2.086 -1.5029 -1.5488 -1.7117
   84MOL    H7746723   6.994   7.367   2.031 -0.8352 -0.2877 -0.4862
   84MOL    H7846724   7.110   7.376   2.209  0.5784  1.8100  0.7867
   84MOL    H7946725   6.782   7.373   2.241  0.0849  0.7068  0.0294
   84MOL    H8046726   6.937   7.590   2.251 -0.7960  2.8959  0.3553
   84MOL    H8146727   6.875   7.624   2.091 -1.8228 -1.5293 -1.6256
   84MOL    H8246728   6.769   7.464   1.950  1.7101  0.9607  1.7194
   84MOL    H8346729   6.623   7.447   2.054 -0.9312 -0.9438 -1.8056
   84MOL    H8446730   6.663   7.259   1.890  1.1037  0.7690 -0.3221
   84MOL    H8546731   6.642   7.204   2.060  1.5545 -0.1960  1.7296
   84MOL    O8646732   6.738   0.017   2.236 -0.0234 -0.5717 -0.3133
   84MOL    C8746733   6.774   0.155   2.260 -0.2711 -0.0180  0.1255
   84MOL    C8846734   6.656   0.229   2.335 -0.0895  0.6283  0.0391
   84MOL    O8946735   6.668   0.190   2.473 -0.3682 -0.5944  0.1370
   84MOL    C9046736   6.663   0.379   2.316  1.4305 -0.8196  0.4783
   84MOL    C9146737   6.787   0.443   2.382  0.4917  0.1621 -0.0947
   84MOL    C9246738   6.802   0.598   2.355  0.4193  0.0377  0.7267
   84MOL    O9346739   6.927   0.652   2.396 -0.0533 -0.5562  0.4024
   84MOL    C9446740   6.678   0.674   2.406  0.1011 -0.2721  0.0608
   84MOL    C9546741   6.687   0.823   2.357 -0.0661 -0.6285  0.6521
   84MOL    C9646742   6.545   0.604   2.358  0.7924 -0.7242 -0.3610
   84MOL    C9746743   6.537   0.453   2.378  0.1436 -0.4286  0.0339
   84MOL    H9846744   6.791   0.207   2.165  1.1269  0.5752  0.6746
   84MOL    H9946745   6.867   0.155   2.318 -0.3817  0.3644  0.3072
   84MOL   H10046746   6.564   0.187   2.295  0.3689  0.1188 -0.4766
   84MOL   H10146747   6.678   0.096   2.477 -0.4131 -0.5583  1.2807
   84MOL   H10246748   6.660   0.406   2.210 -3.2743  0.5384  0.8622
   84MOL   H10346749   6.787   0.430   2.490 -0.3694 -0.1975 -0.1338
   84MOL   H10446750   6.878   0.404   2.338  0.5520  1.2137 -0.9263
   84MOL   H10546751   6.792   0.602   2.246 -0.6017 -1.5753  0.7403
   84MOL   H10646752   6.935   0.740   2.364 -1.7892 -0.2757  0.6898
   84MOL   H10746753   6.679   0.671   2.515  1.7208 -1.4299  0.0290
   84MOL   H10846754   6.781   0.876   2.375  0.2898 -0.6013 -1.2538
   84MOL   H10946755   6.654   0.830   2.254 -0.6480 -1.2633  0.7920
   84MOL   H11046756   6.520   0.634   2.256 -0.3681  2.8722  0.9319
   84MOL   H11146757   6.466   0.652   2.415 -0.2908 -1.2235 -1.4113
   84MOL   H11246758   6.447   0.417   2.328 -1.2040  0.2965  1.9022
   84MOL   H11346759   6.534   0.438   2.486  0.5453 -2.5276 -0.2158
   84MOL   O11446760   6.589   0.887   2.437 -0.1660 -0.5296 -0.7098
   84MOL   C11546761   6.563   1.023   2.384  1.0568 -0.7512  0.3541
   84MOL   C11646762   6.500   1.110   2.496  0.2062  1.2498  0.4822
   84MOL   O11746763   6.377   1.057   2.517  0.5041  0.0006  0.5618
   84MOL   C11846764   6.580   1.124   2.634  0.0202 -0.3274 -0.0095
   84MOL   C11946765   6.520   1.231   2.722 -0.1737  0.3288  1.1366
   84MOL   C12046766   6.589   1.222   2.853 -0.0024 -0.6592 -0.0227
   84MOL   O12146767   6.540   1.319   2.943  0.0004 -0.3618  0.0720
   84MOL   C12246768   6.737   1.246   2.839  0.5156  0.5269  0.0984
   84MOL   C12346769   6.813   1.222   2.969 -0.1690 -0.6931 -0.0632
   84MOL   C12446770   6.798   1.140   2.751  0.1901 -0.4779 -0.6741
   84MOL   C12546771   6.729   1.149   2.613  0.2204  0.0799  0.1951
   84MOL   H12646772   6.489   1.007   2.305  0.7663 -2.7811  0.9960
   84MOL   H12746773   6.651   1.069   2.339 -0.3818  1.0241 -0.7571
   84MOL   H12846774   6.492   1.209   2.451  1.2486  1.0588 -0.1336
   84MOL   H12946775   6.378   0.977   2.468 -0.2592 -0.8201  1.8420
   84MOL   H13046776   6.580   1.031   2.691 -0.1609  0.2384  0.9203
   84MOL   H13146777   6.518   1.325   2.667 -1.3091  0.9798  2.2567
   84MOL   H13246778   6.413   1.217   2.737 -0.2056 -1.4935 -0.5888
   84MOL   H13346779   6.573   1.126   2.902  0.2907  0.6518  2.7674
   84MOL   H13446780   6.453   1.296   2.970  0.7478 -1.8500  1.2645
   84MOL   H13546781   6.744   1.349   2.803  1.5559  0.5191  0.2524
   84MOL   H13646782   6.759   1.243   3.061 -0.9957 -1.2954 -0.4089
   84MOL   H13746783   6.828   1.115   2.983 -0.1155 -1.0201 -2.3737
   84MOL   H13846784   6.782   1.044   2.800  2.2321 -0.3789  0.2270
   84MOL   H13946785   6.902   1.169   2.757  0.2188 -0.3311 -1.7428
   84MOL   H14046786   6.773   1.078   2.543 -0.5322 -0.3732  0.1801
   84MOL   H14146787   6.741   1.251   2.575  0.7604 -0.7674 -1.9936
   84MOL   O14246788   6.930   1.312   2.964 -0.3625 -0.6324 -0.0749
   84MOL   C14346789   7.043   1.263   3.047 -0.1529  0.1268 -0.4800
   84MOL   C14446790   7.174   1.336   3.011 -0.2183 -0.0735 -0.0968
   84MOL   O14546791   7.227   1.286   2.887  0.1544  0.5185  0.0708
   84MOL   C14646792   7.180   1.490   3.027 -0.4755  0.1011  0.4881
   84MOL   C14746793   7.102   1.581   2.931 -0.1507  0.5386 -0.3039
   84MOL   C14846794   7.106   1.726   2.977  0.1725  0.3528 -0.7649
   84MOL   O14946795   7.032   1.800   2.874 -0.6501  0.5338 -0.9558
   84MOL   C15046796   7.257   1.768   2.992 -0.1849 -0.8132  0.3447
   84MOL   C15146797   7.262   1.919   3.025 -0.7054  0.1347  0.6837
   84MOL   C15246798   7.325   1.679   3.093  0.2724 -0.3863  0.1379
   84MOL   C15346799   7.332   1.530   3.043 -0.3319 -0.7969  0.0878
   84MOL   H15446800   7.060   1.156   3.045  0.4213  0.1882  0.5885
   84MOL   H15546801   7.009   1.279   3.149 -0.1916 -0.3356 -0.4225
   84MOL   H15646802   7.247   1.300   3.084  0.5292  3.0488  0.7563
   84MOL   H15746803   7.272   1.206   2.909 -1.2870  0.3857  2.8222
   84MOL   H15846804   7.134   1.516   3.122  1.7875 -1.2217  1.9911
   84MOL   H15946805   7.159   1.577   2.838 -1.1198 -0.2893 -0.8817
   84MOL   H16046806   7.001   1.540   2.921 -0.3295  0.8821  0.0834
   84MOL   H16146807   7.049   1.728   3.070  2.9164 -2.2187  1.0623
   84MOL   H16246808   7.088   1.798   2.798  0.5092  0.6234 -0.1153
   84MOL   H16346809   7.309   1.755   2.897  0.2734  0.8630  0.3576
   84MOL   H16446810   7.210   1.982   2.953  0.7154 -0.2339 -0.6726
   84MOL   H16546811   7.211   1.932   3.121 -2.1528 -0.2083 -0.0135
   84MOL   H16646812   7.273   1.694   3.188  0.1513 -0.4119  0.0753
   84MOL   H16746813   7.427   1.715   3.107  0.4353 -0.0959 -1.6925
   84MOL   H16846814   7.385   1.465   3.113 -2.4469 -0.7788  1.7716
   84MOL   H16946815   7.381   1.513   2.947  0.0543  1.1542 -0.0674
   84MOL   O17046816   7.393   1.963   3.045 -1.2437 -0.8952  0.0315
   84MOL   C17146817   7.403   2.096   3.102  0.5750  0.2322 -0.3851
   84MOL   C17246818   7.557   2.120   3.101  0.1425 -0.5022  0.5583
   84MOL   O17346819   7.621   2.020   3.164 -0.1566 -0.3949 -0.4361
   84MOL   C17446820   7.609   2.151   2.952  0.2104  0.0541 -0.3147
   84MOL   C17546821   7.622   2.023   2.864  0.1444 -0.3742  0.6674
   84MOL   C17646822   0.066   2.046   2.724  0.2546 -0.3147 -0.2399
   84MOL   O17746823   0.081   1.925   2.647  0.4325 -0.1301  0.5298
   84MOL   C17846824   0.203   2.107   2.753  0.0657  0.1900  0.3278
   84MOL   C17946825   0.275   2.139   2.618 -0.5101  0.2592  0.3710
   84MOL   C18046826   0.194   2.234   2.833  0.5667 -0.3787  1.0555
   84MOL   C18146827   0.121   2.209   2.963  0.4524 -0.3247 -0.9056
   84MOL   H18246828   7.361   2.102   3.203  1.0225  0.2673 -0.1964
   84MOL   H18346829   7.339   2.163   3.045  0.1801  2.4304  2.4809
   84MOL   H18446830   7.574   2.207   3.165  2.2501  1.1674 -2.1707
   84MOL   H18546831   7.582   1.945   3.122 -1.4995 -0.0477  0.1662
   84MOL   H18646832   7.540   2.230   2.922 -0.0453  0.4236  1.1946
   84MOL   H18746833   0.051   1.949   2.918 -1.0582 -1.9741 -0.1794
   84MOL   H18846834   7.526   1.973   2.851 -0.7958  1.5612  0.0955
   84MOL   H18946835   7.629   2.110   2.667 -0.5647  0.1868  1.2489
   84MOL   H19046836   0.120   1.865   2.708 -1.7049  0.1930  2.3028
   84MOL   H19146837   0.268   2.039   2.808  0.4469 -2.7834 -3.6033
   84MOL   H19246838   0.290   2.040   2.576 -1.1454  0.1408  0.4078
   84MOL   H19346839   0.200   2.187   2.555 -1.7405 -0.2840  1.4106
   84MOL   H19446840   0.126   2.293   2.772  1.1108  0.4996  1.3042
   84MOL   H19546841   0.289   2.283   2.849  1.1433 -1.4755  1.0403
   84MOL   H19646842   0.126   2.297   3.028 -1.9197  0.4208 -1.6749
   84MOL   H19746843   0.175   2.132   3.019  0.6199  1.3301  1.3177
   84MOL   O19846844   0.395   2.217   2.633 -0.2240 -0.2235 -0.5281
   84MOL   C19946845   0.456   2.248   2.511  0.3432  0.0495 -0.6328
   84MOL   C20046846   0.537   2.125   2.470  1.0593 -0.5751 -0.0127
   84MOL   O20146847   0.472   2.072   2.352  0.3121 -0.0147  0.0024
   84MOL   C20246848   0.672   2.156   2.411 -0.0905 -0.3803 -0.0273
   84MOL   C20346849   0.740   2.044   2.321  0.0913  0.0937 -0.0374
   84MOL   C20446850   0.881   2.090   2.274 -0.1877 -0.1575 -0.3611
   84MOL   O20546851   0.942   1.984   2.205 -0.2225 -0.6129  0.2988
   84MOL   C20646852   0.975   2.146   2.394  0.6812  0.0484  0.0975
   84MOL   C20746853   1.113   2.198   2.353 -0.8436 -0.2843  0.7482
   84MOL   C20846854   0.904   2.256   2.475  0.5120  0.0543 -0.7920
   84MOL   C20946855   0.767   2.202   2.528  0.0656  0.4785  0.0949
   84MOL   H21046856   0.527   2.323   2.545 -1.1501  1.5420 -0.7187
   84MOL   H21146857   0.385   2.292   2.441 -0.2735  0.9161  0.5074
   84MOL   H21246858   0.551   2.055   2.553 -0.4034  1.7359  2.2582
   84MOL   H21346859   0.486   2.130   2.279 -1.2404 -0.6520 -0.8505
   84MOL   H21446860   0.667   2.243   2.346  1.4707  0.0639  0.4367
   84MOL   H21546861   0.743   1.953   2.381  2.1332 -0.9736 -1.6976
   84MOL   H21646862   0.683   2.027   2.230  0.0841 -0.6371  0.1021
   84MOL   H21746863   0.867   2.170   2.201 -1.3513  0.6888  0.7818
   84MOL   H21846864   0.980   1.927   2.270 -0.1699  0.1285  0.9198
   84MOL   H21946865   0.980   2.060   2.461 -1.4982 -1.6516 -1.8015
   84MOL   H22046866   1.165   2.144   2.274  0.4415 -0.5026  1.7397
   84MOL   H22146867   1.095   2.284   2.289  0.1862 -1.5265 -1.2771
   84MOL   H22246868   0.880   2.346   2.417 -1.5018 -0.2805 -0.5267
   84MOL   H22346869   0.965   2.292   2.557  0.9290 -1.3177 -0.4964
   84MOL   H22446870   0.724   2.271   2.601  0.9255  0.3848  0.7050
   84MOL   H22546871   0.779   2.114   2.592 -1.4151  0.3419  0.2021
   84MOL   O22646872   1.194   2.211   2.469 -0.0479  0.7051  0.2402
   84MOL   C22746873   1.330   2.221   2.433  0.0168 -0.0106 -0.1626
   84MOL   C22846874   1.419   2.287   2.546 -0.1454 -0.5490 -0.2030
   84MOL   O22946875   1.473   2.187   2.632  0.0474 -0.6110  0.8841
   84MOL   C23046876   1.535   2.373   2.489  0.1328  0.3984 -0.8239
   84MOL   C23146877   1.632   2.290   2.402 -0.2840  0.5258  0.6986
   84MOL   C23246878   1.757   2.360   2.353  0.6330  0.2627 -0.2670
   84MOL   O23346879   1.826   2.266   2.274 -0.4584  0.3902  0.2427
   84MOL   C23446880   1.838   2.403   2.477 -0.5867  0.1353  0.1782
   84MOL   C23546881   1.985   2.449   2.442  0.2214  0.3493  0.4637
   84MOL   C23646882   1.751   2.503   2.551 -0.7668  0.4413  0.7254
   84MOL   C23746883   1.618   2.443   2.604  0.9877  0.4448 -0.4012
   84MOL   H23846884   1.335   2.291   2.349  1.0966  0.8497  0.6027
   84MOL   H23946885   1.372   2.125   2.402 -0.0314  0.6968 -2.5108
   84MOL   H24046886   1.350   2.354   2.597  2.2300  1.5902  0.3037
   84MOL   H24146887   1.414   2.115   2.651  1.8623 -1.7363  2.4293
   84MOL   H24246888   1.501   2.458   2.431  1.1941  2.1533  1.0904
   84MOL   H24346889   1.651   2.203   2.465 -3.4055 -0.3254  0.5379
   84MOL   H24446890   1.573   2.250   2.319 -1.6601  1.4211  1.2281
   84MOL   H24546891   1.727   2.444   2.291 -0.2118 -0.0072 -0.2355
   84MOL   H24646892   1.832   2.184   2.321  2.5855 -0.7965 -2.0881
   84MOL   H24746893   1.857   2.325   2.551  0.2647  1.0489  0.9492
   84MOL   H24846894   2.050   2.365   2.421 -0.4114 -0.3457  1.2583
   84MOL   H24946895   1.969   2.508   2.351  0.2460 -0.5287 -0.1116
   84MOL   H25046896   1.740   2.581   2.476 -1.4513 -1.3606 -1.0936
   84MOL   H25146897   1.813   2.553   2.626  0.3101  1.2829 -0.7062
   84MOL   H25246898   1.562   2.512   2.667  1.0555 -1.0237  1.3233
   84MOL   H25346899   1.653   2.366   2.674 -1.8628 -0.3208  0.2615
   84MOL   O25446900   2.042   2.548   2.533  1.0168  0.3448 -0.4039
   84MOL   C25546901   2.171   2.590   2.502 -0.7080 -0.4649  0.2098
   84MOL   C25646902   2.237   2.689   2.605  0.1355  0.7523 -0.4055
   84MOL   O25746903   2.372   2.662   2.600  0.5050  0.5931  0.1157
   84MOL   C25846904   2.201   2.841   2.583 -0.3098 -0.1697 -0.8834
   84MOL   C25946905   2.262   2.938   2.689  0.5666  0.3995 -0.0480
   84MOL   C26046906   2.221   3.085   2.656  0.2804 -0.2313 -0.4457
   84MOL   O26146907   2.285   3.165   2.751  0.7276  0.1921  0.2909
   84MOL   C26246908   2.065   3.104   2.661  0.0095 -0.9216  0.3608
   84MOL   C26346909   2.012   3.247   2.634 -0.1951 -0.2058  0.1215
   84MOL   C26446910   2.003   3.010   2.558  0.4793  0.2036  0.3580
   84MOL   C26546911   2.053   2.868   2.584  0.2365 -1.6147 -0.0729
   84MOL   H26646912   2.184   2.634   2.403 -1.0662 -2.4338 -0.7171
   84MOL   H26746913   2.229   2.498   2.503  2.1402  1.2755  0.7027
   84MOL   H26846914   2.212   2.654   2.706 -0.4644 -1.1677 -1.2017
   84MOL   H26946915   2.406   2.632   2.683  0.0548  0.0004  0.0892
   84MOL   H27046916   2.246   2.861   2.486  2.3450 -1.4718  0.0113
   84MOL   H27146917   2.226   2.910   2.788  0.2096  0.1320 -0.2546
   84MOL   H27246918   2.368   2.913   2.697 -0.2807 -3.0740  0.7345
   84MOL   H27346919   2.250   3.111   2.554  0.2868  0.6575 -0.2206
   84MOL   H27446920   2.264   3.256   2.736 -2.2532 -0.3797  0.7382
   84MOL   H27546921   2.040   3.072   2.762 -0.5785  0.8511  0.7978
   84MOL   H27646922   2.042   3.322   2.707 -1.0750 -1.4401  1.8016
   84MOL   H27746923   2.058   3.286   2.543 -1.0193 -0.6575 -0.4984
   84MOL   H27846924   2.030   3.036   2.455 -3.3254  0.9086 -0.5377
   84MOL   H27946925   1.895   3.016   2.566  0.5079  0.5155  0.5622
   84MOL   H28046926   1.995   2.807   2.515 -0.2040 -1.7311  0.3880
   84MOL   H28146927   2.012   2.831   2.678 -0.1762  0.0347  0.4190
   84MOL   O28246928   1.869   3.255   2.635 -0.4921 -0.5088 -1.1078
   84MOL   C28346929   1.808   3.239   2.765 -0.2851 -0.0313 -0.2530
   84MOL   C28446930   1.657   3.218   2.754  0.3699  0.0408 -0.1226
   84MOL   O28546931   1.619   3.335   2.682  0.0772  0.3152 -0.4071
   84MOL   C28646932   1.620   3.103   2.667  0.0166 -0.0449  0.3710
   84MOL   C28746933   1.472   3.101   2.642 -0.0804  0.5031 -0.3654
   84MOL   C28846934   1.442   3.003   2.524 -0.0437  0.6255 -0.7167
   84MOL   O28946935   1.303   2.994   2.532  0.1312  0.1393  0.6141
   84MOL   C29046936   1.500   2.857   2.551 -0.3391 -0.9431  0.2249
   84MOL   C29146937   1.508   2.780   2.423  0.3285 -0.4655  0.1727
   84MOL   C29246938   1.642   2.847   2.619  0.0136  0.2389 -0.1346
   84MOL   C29346939   1.661   2.963   2.718 -0.4569  0.0426  0.2189
   84MOL   H29446940   1.825   3.335   2.813 -4.5808  0.2708  0.9343
   84MOL   H29546941   1.851   3.171   2.839 -0.3985  1.1244  0.9098
   84MOL   H29646942   1.601   3.210   2.846 -1.5884 -0.5660 -1.3433
   84MOL   H29746943   1.670   3.332   2.602  0.7028 -1.7254  0.0385
   84MOL   H29846944   1.678   3.116   2.576 -3.4431 -1.0127 -2.0761
   84MOL   H29946945   1.424   3.081   2.738  0.6010  0.9411  0.0702
   84MOL   H30046946   1.434   3.197   2.610 -0.0859  0.7533  0.3825
   84MOL   H30146947   1.477   3.053   2.434  2.7820 -1.2918 -0.7256
   84MOL   H30246948   1.266   3.072   2.570 -0.7052 -0.1083  0.3355
   84MOL   H30346949   1.436   2.808   2.625  0.0399  0.7308  1.7061
   84MOL   H30446950   1.555   2.684   2.447  1.2402  0.3091  1.5111
   84MOL   H30546951   1.410   2.769   2.376 -0.1466  2.3463  0.4308
   84MOL   H30646952   1.716   2.864   2.541 -1.5242  1.2373 -1.3985
   84MOL   H30746953   1.660   2.749   2.662 -1.1861 -0.1808 -0.5469
   84MOL   H30846954   1.761   2.977   2.758 -0.1896 -1.8063  0.2296
   84MOL   H30946955   1.622   2.947   2.818 -3.8414  3.5283 -0.4175
   84MOL   O31046956   1.594   2.843   2.323  0.2929 -0.2930 -0.2882
   84MOL   C31146957   1.690   2.767   2.267  0.2286 -0.0927 -0.6989
   84MOL   C31246958   1.768   2.847   2.161  0.7827  0.5945 -0.3618
   84MOL   O31346959   1.661   2.872   2.075  0.2739 -0.7004  0.0594
   84MOL   C31446960   1.835   2.977   2.207 -0.4582 -0.0363  0.0250
   84MOL   C31546961   1.756   3.095   2.260 -0.4349  0.1270  0.3515
   84MOL   C31646962   1.843   3.219   2.296 -0.3704  0.1406  0.4994
   84MOL   O31746963   1.753   3.317   2.341  0.5109 -0.6837 -0.0788
   84MOL   C31846964   1.936   3.270   2.180 -0.1058 -0.1919  0.4793
   84MOL   C31946965   2.018   3.394   2.234  0.5910 -0.4361  0.1031
   84MOL   C32046966   2.023   3.152   2.125  0.1137  0.2941 -0.2692
   84MOL   C32146967   1.932   3.030   2.091 -0.2056  0.1887  0.9062
   84MOL   H32246968   1.669   2.668   2.227  3.8376 -2.2045  2.3466
   84MOL   H32346969   1.759   2.744   2.348 -2.8019 -1.0039  1.7631
   84MOL   H32446970   1.846   2.790   2.110  1.0438  1.6404 -1.1312
   84MOL   H32546971   1.613   2.932   2.130  1.4921  1.5531 -1.2490
   84MOL   H32646972   1.896   2.933   2.286  0.8328 -0.0969 -0.9912
   84MOL   H32746973   1.686   3.120   2.180 -0.2709  1.2664  0.5551
   84MOL   H32846974   1.712   3.066   2.355  0.5055  0.3430  0.8572
   84MOL   H32946975   1.906   3.191   2.381  1.2916 -0.6137 -0.9643
   84MOL   H33046976   1.716   3.364   2.268  1.9784 -2.6530 -2.1581
   84MOL   H33146977   1.873   3.304   2.097  0.3524 -0.0994  0.1646
   84MOL   H33246978   1.963   3.485   2.258 -2.1283 -1.4946 -1.8094
   84MOL   H33346979   2.056   3.361   2.330  1.4531  0.9650  0.2689
   84MOL   H33446980   2.089   3.131   2.210 -0.8377 -0.2639  0.3508
   84MOL   H33546981   2.083   3.188   2.042 -0.6548  0.9432 -0.5504
   84MOL   H33646982   1.987   2.942   2.060  1.5814  1.1965  1.1242
   84MOL   H33746983   1.871   3.051   2.003 -2.6126  0.1395  2.5183
   84MOL   O33846984   2.130   3.419   2.157  0.1251 -0.3883 -0.0779
   84MOL   C33946985   2.115   3.467   2.025  0.4946  0.4391 -0.4453
   84MOL   C34046986   2.062   3.610   2.030  0.0793  0.3811 -0.2950
   84MOL   O34146987   2.148   3.671   2.130 -0.2248  0.1359 -0.0411
   84MOL   C34246988   2.089   3.688   1.899  0.4948 -0.1786  0.1693
   84MOL   C34346989   2.039   3.834   1.913 -0.1945 -0.2682  0.3611
   84MOL   C34446990   2.075   3.913   1.786  0.8474 -0.4136 -0.1971
   84MOL   O34546991   2.017   4.043   1.800  0.2013 -0.4515 -0.5818
   84MOL   C34646992   2.022   3.845   1.659  0.4077  0.2418  0.0780
   84MOL   C34746993   2.073   3.917   1.532  0.7740 -0.2546  0.1134
   84MOL   C34846994   2.068   3.699   1.652  0.3534 -0.1338 -0.2235
   84MOL   C34946995   2.028   3.618   1.778 -0.4364  0.8990  0.2441
   84MOL   H35046996   2.051   3.401   1.968 -0.9951 -1.5690  3.3751
   84MOL   H35146997   2.211   3.470   1.973  0.4179  1.1793 -0.5485
   84MOL   H35246998   1.957   3.607   2.056 -0.3733 -0.3436 -2.1322
   84MOL   H35346999   2.164   3.610   2.200  1.0623  2.2730  1.6020
   84MOL   H35447000   2.197   3.687   1.885  0.4879  0.9795  0.0213
   84MOL   H35547001   1.930   3.832   1.919 -0.3390  1.1763 -1.6011
   84MOL   H35647002   2.074   3.878   2.006  0.3644  0.7130 -0.3094
   84MOL   H35747003   2.183   3.923   1.783  1.0586 -2.1344  0.7131
   84MOL   H35847004   2.007   4.074   1.711  0.1107  1.4120  0.0522
   84MOL   H35947005   1.914   3.854   1.673  0.7206  0.7098  2.4783
   84MOL   H36047006   2.182   3.926   1.539  0.8083 -0.8940  0.4528
   84MOL   H36147007   2.061   3.858   1.441 -2.0987  1.0078 -0.3708
   84MOL   H36247008   2.174   3.684   1.632  0.5083 -0.7518  1.0704
   84MOL   H36347009   2.014   3.652   1.570  1.6211 -0.9335 -0.6033
   84MOL   H36447010   2.067   3.517   1.771 -2.1453  0.2143  0.3045
   84MOL   H36547011   1.920   3.601   1.784  0.0343 -2.0727  0.7805
   84MOL   O36647012   2.016   4.042   1.532  0.2624 -0.1138  0.1519
   84MOL   C36747013   2.050   4.115   1.416 -0.0060 -0.4432  0.2307
   84MOL   C36847014   1.957   4.237   1.408  0.7056 -0.4784 -0.1554
   84MOL   O36947015   1.835   4.197   1.356  0.1457 -0.3358 -0.0653
   84MOL   C37047016   1.951   4.325   1.541  0.0963 -0.3287 -0.0214
   84MOL   C37147017   1.875   4.454   1.520  0.0470  0.0144  0.2125
   84MOL   C37247018   1.877   4.541   1.651 -0.3221 -0.8324 -0.3374
   84MOL   O37347019   1.809   4.656   1.617 -0.3893 -0.3648  0.2546
   84MOL   C37447020   2.026   4.567   1.692  0.1728  0.0908 -0.3293
   84MOL   C37547021   2.028   4.653   1.817  1.0398 -0.2861  0.3676
   84MOL   C37647022   2.096   4.434   1.716 -0.0347 -0.2267  0.0739
   84MOL   C37747023   2.094   4.357   1.590 -0.6572  0.0187 -0.3518
   84MOL   H37847024   2.028   4.061   1.324  1.1636 -0.8086  0.1669
   84MOL   H37947025   2.148   4.154   1.441  0.2819  0.4666 -2.2532
   84MOL   H38047026   2.002   4.300   1.331  0.4526  2.7571  2.2035
   84MOL   H38147027   1.775   4.158   1.418 -0.5406 -0.3689 -0.7292
   84MOL   H38247028   1.905   4.259   1.615 -0.2592 -0.9818 -0.8071
   84MOL   H38347029   1.921   4.501   1.432  0.9204 -0.6599  0.3020
   84MOL   H38447030   1.776   4.427   1.485  0.2295 -0.8928  0.4025
   84MOL   H38547031   1.825   4.507   1.741  0.6627  1.1007  0.9813
   84MOL   H38647032   1.721   4.632   1.592  0.0290 -2.0594  0.3332
   84MOL   H38747033   2.072   4.618   1.608 -0.1041  1.5229  0.3740
   84MOL   H38847034   1.976   4.749   1.808  0.8015 -0.6434 -2.3729
   84MOL   H38947035   1.983   4.602   1.902  3.0968 -0.8046  1.1605
   84MOL   H39047036   2.037   4.376   1.788 -1.0746  1.6260  0.7485
   84MOL   H39147037   2.195   4.450   1.759 -0.2306  0.0917  0.4101
   84MOL   H39247038   2.147   4.262   1.602  0.8691  0.8462 -0.3309
   84MOL   H39347039   2.163   4.402   1.518 -0.6125 -0.4210 -0.5909
   84MOL   O39447040   2.158   4.689   1.864  0.1398  0.0316 -0.5273
   84MOL   C39547041   2.159   4.776   1.973  0.0614 -0.6035 -0.7442
   84MOL   C39647042   2.297   4.853   2.003  0.0397 -0.6199 -0.8417
   84MOL   O39747043   2.290   4.974   1.931  0.2458  0.2389  0.0609
   84MOL   C39847044   2.342   4.874   2.150 -0.2515  0.5154 -0.6100
   84MOL   C39947045   2.234   4.953   2.228 -0.7305 -0.5822  0.1361
   84MOL   C40047046   2.266   4.964   2.377  0.3922  0.1802  0.1631
   84MOL   O40147047   2.155   5.042   2.429  0.8370 -0.3910 -0.8055
   84MOL   C40247048   2.407   5.028   2.395 -0.2290  0.1699  0.3057
   84MOL   C40347049   2.454   5.039   2.550  0.7067  0.4999  0.5353
   84MOL   C40447050   2.514   4.953   2.321 -0.2089  0.2560 -0.4732
   84MOL   C40547051   2.477   4.943   2.171 -1.0283 -0.1665 -0.8264
   84MOL   H40647052   2.142   4.717   2.064  2.1882  0.5635  0.4651
   84MOL   H40747053   2.074   4.843   1.988 -0.1291 -1.0215  0.1053
   84MOL   H40847054   2.383   4.802   1.959  1.1734 -0.6932  1.3636
   84MOL   H40947055   2.300   4.942   1.843  1.9928 -0.9062  0.6328
   84MOL   H41047056   2.351   4.774   2.192 -0.6920  1.1408  1.0507
   84MOL   H41147057   2.225   5.053   2.184  1.0494  0.3740  1.8402
   84MOL   H41247058   2.140   4.902   2.211 -1.5583  1.4019 -1.5845
   84MOL   H41347059   2.261   4.863   2.419 -2.5347  0.2601  0.1391
   84MOL   H41447060   2.159   5.134   2.407  3.3279 -0.0586  0.8511
   84MOL   H41547061   2.408   5.128   2.350 -0.5670  0.2905  0.5667
   84MOL   H41647062   2.379   5.089   2.611 -0.8733 -1.9943  0.7088
   84MOL   H41747063   2.478   4.942   2.593 -1.2577 -0.7081 -0.9872
   84MOL   H41847064   2.536   4.855   2.361  0.5000 -0.0799 -1.6555
   84MOL   H41947065   2.598   5.023   2.319  0.5189 -0.5823  0.5204
   84MOL   H42047066   2.553   4.881   2.124 -1.7915 -0.5850 -1.5345
   84MOL   H42147067   2.491   5.038   2.120 -0.4473  0.1072 -0.1476
   84MOL   O42247068   2.564   5.122   2.563  0.0892  0.3929 -0.4108
   84MOL   C42347069   2.631   5.104   2.689 -0.0877  0.0620 -0.2024
   84MOL   C42447070   2.562   5.163   2.815 -0.7486 -0.0228 -0.0466
   84MOL   O42547071   2.527   5.068   2.912  0.0769  0.2092  0.4256
   84MOL   C42647072   2.631   5.285   2.873  0.1171  0.2446 -0.4364
   84MOL   C42747073   2.751   5.238   2.956 -0.6543 -0.4368 -0.1352
   84MOL   C42847074   2.828   5.364   3.003  0.0453 -0.1865  0.5668
   84MOL   O42947075   2.944   5.315   3.066 -0.4803 -0.0056  0.1301
   84MOL   C43047076   2.737   5.446   3.090  0.0554 -0.7454 -0.9227
   84MOL   C43147077   2.811   5.575   3.134 -0.5522 -0.3899  0.0152
   84MOL   C43247078   2.605   5.497   3.023  0.0924  0.3806 -0.2090
   84MOL   C43347079   2.537   5.376   2.965  0.6210  0.5865  0.5005
   84MOL   H43447080   2.731   5.144   2.674  0.3475 -1.1968 -0.7213
   84MOL   H43547081   2.650   4.996   2.688 -0.4674 -0.0058 -0.1928
   84MOL   H43647082   2.464   5.194   2.780 -0.5129 -1.2798 -1.8942
   84MOL   H43747083   2.607   5.024   2.937 -0.0925 -0.4880 -0.2308
   84MOL   H43847084   2.669   5.351   2.794 -1.0416  0.5975 -0.7143
   84MOL   H43947085   2.731   5.173   3.041 -0.4802  0.9928  1.0252
   84MOL   H44047086   2.823   5.190   2.890 -0.4916 -3.4759  2.1475
   84MOL   H44147087   2.874   5.418   2.920 -0.8493 -0.0193  0.1672
   84MOL   H44247088   3.010   5.382   3.057 -0.8354  0.1526 -1.4824
   84MOL   H44347089   2.718   5.395   3.184 -0.9332 -1.1810 -1.3573
   84MOL   H44447090   2.759   5.619   3.220  2.2970  2.1578  0.5405
   84MOL   H44547091   2.915   5.557   3.161 -0.2780  0.7813 -0.2029
   84MOL   H44647092   2.628   5.569   2.945  0.2247 -0.7222 -1.2147
   84MOL   H44747093   2.544   5.548   3.097 -1.4814 -0.4282 -0.9085
   84MOL   H44847094   2.454   5.409   2.902  1.1396  2.1268  0.6047
   84MOL   H44947095   2.488   5.312   3.039  0.5624 -0.1212 -0.1439
   84MOL   O45047096   2.831   5.676   3.034 -0.1996 -0.5003 -0.7106
   84MOL   C45147097   2.921   5.773   3.079  0.3911 -0.5891 -0.0304
   84MOL   C45247098   2.937   5.898   2.990  0.5103  0.0646 -0.4986
   84MOL   O45347099   3.003   5.983   3.080  0.5429 -0.8688  0.5581
   84MOL   C45447100   3.009   5.882   2.858 -0.0446  0.2658  0.3024
   84MOL   C45547101   3.027   6.023   2.792  0.3236 -0.1519 -0.0666
   84MOL   C45647102   3.093   6.012   2.652 -0.6055 -0.0924 -0.1015
   84MOL   O45747103   3.103   6.140   2.587  0.3859 -0.5820  0.1437
   84MOL   C45847104   3.024   5.922   2.554  0.1373  0.8426  0.9431
   84MOL   C45947105   3.109   5.905   2.430 -0.0618 -0.9555 -0.4141
   84MOL   C46047106   2.999   5.786   2.612 -0.2314  0.0204  0.0020
   84MOL   C46147107   2.939   5.787   2.749  0.4361  0.3652 -0.1454
   84MOL   H46247108   3.019   5.730   3.101  1.2245  1.6154  0.7326
   84MOL   H46347109   2.875   5.797   3.175 -1.2587 -3.9813  0.1033
   84MOL   H46447110   2.837   5.942   2.987  0.4202 -0.2196 -2.1894
   84MOL   H46547111   3.093   5.953   3.079  1.0233  0.5201  1.2197
   84MOL   H46647112   3.107   5.845   2.890 -1.2729 -3.4879 -0.0776
   84MOL   H46747113   2.928   6.067   2.780  0.9448  1.2784 -0.0722
   84MOL   H46847114   3.082   6.087   2.861  2.8499 -3.3575  1.0386
   84MOL   H46947115   3.192   5.967   2.667 -1.4780 -1.6594  1.1206
   84MOL   H47047116   3.022   6.178   2.617  0.6315 -0.5824  0.8139
   84MOL   H47147117   2.932   5.973   2.524  0.8620  1.5457 -0.1120
   84MOL   H47247118   3.125   5.998   2.376  2.0280 -1.3305 -0.4884
   84MOL   H47347119   3.208   5.870   2.459  0.8253  1.6125 -0.2458
   84MOL   H47447120   3.094   5.734   2.604 -0.7112 -0.5865 -2.1021
   84MOL   H47547121   2.934   5.726   2.547  2.2732 -1.0605 -1.5560
   84MOL   H47647122   2.930   5.686   2.789  1.7914  1.3503  2.7610
   84MOL   H47747123   2.837   5.827   2.746 -0.9886 -2.8117  2.6278
   84MOL   O47847124   3.041   5.811   2.348 -0.1022  0.4312  0.0964
   84MOL   C47947125   3.090   5.807   2.217 -0.1836 -0.3616  0.6803
   84MOL   C48047126   3.032   5.693   2.132  0.7976  0.1827  0.0756
   84MOL   O48147127   2.925   5.751   2.062  0.3304  0.4766  0.2824
   84MOL   C48247128   3.126   5.631   2.029  0.1036 -0.3536  0.0914
   84MOL   C48347129   3.052   5.544   1.922  0.2004 -0.2294  0.1214
   84MOL   C48447130   3.156   5.474   1.832 -0.4128  0.5679 -0.0411
   84MOL   O48547131   3.090   5.391   1.736 -0.4954 -0.1084  0.0555
   84MOL   C48647132   3.264   5.392   1.900  0.2266 -0.0449 -0.1623
   84MOL   C48747133   3.375   5.333   1.810  0.2492 -0.8593  0.5626
   84MOL   C48847134   3.334   5.482   2.001  0.2531 -0.5110 -0.1987
   84MOL   C48947135   3.242   5.554   2.096 -0.3503  0.1136 -0.1843
   84MOL   H49047136   3.199   5.799   2.224  0.0095  1.5289  0.1115
   84MOL   H49147137   3.079   5.903   2.167  1.5704 -0.7391 -0.4916
   84MOL   H49247138   3.005   5.617   2.205  0.8152  1.2301  1.1766
   84MOL   H49347139   2.860   5.770   2.128 -0.1814 -0.2135 -0.0156
   84MOL   H49447140   3.171   5.717   1.979  0.1260 -0.7063 -0.5009
   84MOL   H49547141   2.994   5.468   1.975  0.7543 -1.4870 -1.0419
   84MOL   H49647142   2.981   5.596   1.857  0.2183  0.7414  0.8666
   84MOL   H49747143   3.193   5.556   1.770 -1.3320  1.0576  0.0469
   84MOL   H49847144   3.062   5.456   1.673  0.5536 -0.7609 -1.1092
   84MOL   H49947145   3.223   5.320   1.970  0.6100 -1.3855 -1.3089
   84MOL   H50047146   3.327   5.278   1.729  0.1580  0.5070 -0.3177
   84MOL   H50147147   3.430   5.411   1.758  0.5653 -1.8985 -0.6780
   84MOL   H50247148   3.399   5.554   1.952  0.7463 -1.2510 -0.6290
   84MOL   H50347149   3.392   5.424   2.073 -0.7966 -0.2895  0.8381
   84MOL   H50447150   3.307   5.611   2.163  0.3286 -0.3009 -0.4798
   84MOL   H50547151   3.195   5.477   2.157  2.1939 -2.8960 -1.8510
   84MOL   O50647152   3.448   5.236   1.879  0.9302 -0.0569  0.3551
   84MOL   C50747153   3.535   5.164   1.793 -0.4526 -0.6546  0.3258
   84MOL   C50847154   3.637   5.089   1.875  0.7201  0.0884  0.4820
   84MOL   O50947155   3.561   5.013   1.963  0.6758  0.1525 -1.0533
   84MOL   C51047156   3.729   4.995   1.798 -0.5155 -0.6592  0.1583
   84MOL   C51147157   3.821   4.900   1.880 -0.2285 -0.1318  0.0450
   84MOL   C51247158   3.907   4.810   1.787  0.7396  0.2650  0.0160
   84MOL   O51347159   4.011   4.744   1.865  0.4196 -0.1849  0.4837
   84MOL   C51447160   3.993   4.900   1.686 -0.0458 -0.0532  0.0602
   84MOL   C51547161   4.085   4.813   1.598  0.4892  0.1326  0.0884
   84MOL   C51647162   3.890   4.982   1.602 -0.1601  0.1514 -0.2534
   84MOL   C51747163   3.817   5.077   1.698 -0.1976 -0.0738  1.0427
   84MOL   H51847164   3.576   5.231   1.718  0.5675 -1.8305 -0.1835
   84MOL   H51947165   3.473   5.091   1.741 -1.2719 -0.7240  1.3615
   84MOL   H52047166   3.702   5.159   1.929  1.8178  0.8914 -1.7886
   84MOL   H52147167   3.475   5.052   1.961  0.6352  0.1211 -0.1417
   84MOL   H52247168   3.659   4.936   1.738 -0.4394  0.5185 -1.1274
   84MOL   H52347169   3.891   4.952   1.946 -1.3455 -1.1323  2.0973
   84MOL   H52447170   3.765   4.847   1.958  1.1855 -2.2262 -0.3310
   84MOL   H52547171   3.846   4.742   1.728  1.3733  0.5873 -1.0046
   84MOL   H52647172   4.059   4.675   1.822 -0.2190 -0.6557  0.5152
   84MOL   H52747173   4.058   4.965   1.743 -0.6073  0.6337 -0.0798
   84MOL   H52847174   4.160   4.763   1.660  1.7583 -0.5681 -1.9520
   84MOL   H52947175   4.021   4.740   1.548  0.7019  0.4451 -0.6559
   84MOL   H53047176   3.814   4.922   1.553 -0.3925  0.5961 -0.4460
   84MOL   H53147177   3.941   5.043   1.527 -1.9618  2.3968  0.2984
   84MOL   H53247178   3.751   5.136   1.634  2.0644  1.0089 -0.3740
   84MOL   H53347179   3.880   5.151   1.748 -0.3924  0.5203  0.4115
   84MOL   O53447180   4.156   4.900   1.517 -0.5596 -0.0367 -0.3803
   84MOL   C53547181   4.244   4.996   1.575  0.0197  0.5138 -0.4027
   84MOL   C53647182   4.337   5.026   1.458 -0.0376 -0.5660 -0.7910
   84MOL   O53747183   4.244   5.085   1.365 -0.0949  0.5911 -0.4627
   84MOL   C53847184   4.462   5.107   1.490  0.2847 -0.4275  0.2505
   84MOL   C53947185   4.541   5.144   1.365  0.1541  0.5216  0.0256
   84MOL   C54047186   4.655   5.232   1.394  0.0413  0.3329  0.4753
   84MOL   O54147187   4.719   5.253   1.267  0.2046  0.0455 -0.4880
   84MOL   C54247188   4.757   5.165   1.492  0.1021  0.2329  0.5792
   84MOL   C54347189   4.863   5.254   1.546 -0.4485 -0.6634 -0.1711
   84MOL   C54447190   4.687   5.108   1.620  0.8146 -0.3152 -0.7397
   84MOL   C54547191   4.561   5.033   1.585  0.2724 -0.6251  0.0631
   84MOL   H54647192   4.305   4.960   1.658 -0.8139 -3.6087 -1.5005
   84MOL   H54747193   4.203   5.087   1.620  0.5101 -0.0976  1.3291
   84MOL   H54847194   4.373   4.930   1.419  3.1590  0.5259 -0.6410
   84MOL   H54947195   4.167   5.031   1.368 -1.4693  2.4702 -1.2404
   84MOL   H55047196   4.416   5.193   1.540  0.5770  1.1890 -2.1609
   84MOL   H55147197   4.577   5.051   1.320 -2.3892 -0.0935 -0.8125
   84MOL   H55247198   4.482   5.196   1.290 -0.5019  0.3747  0.4287
   84MOL   H55347199   4.621   5.330   1.428 -0.0973  0.5440 -0.2581
   84MOL   H55447200   4.795   5.308   1.279 -1.2863  1.9253  0.5016
   84MOL   H55547201   4.805   5.085   1.436 -1.8338  0.2730 -1.2092
   84MOL   H55647202   4.817   5.339   1.597  1.0652 -0.6489  1.2442
   84MOL   H55747203   4.935   5.194   1.603 -0.1411  0.8277  1.0378
   84MOL   H55847204   4.652   5.191   1.681 -0.3825 -0.6943 -0.8873
   84MOL   H55947205   4.757   5.044   1.673 -1.6451 -1.6136  1.0625
   84MOL   H56047206   4.509   4.994   1.673  1.2188  0.4653  1.1255
   84MOL   H56147207   4.599   4.944   1.535  2.5919  0.0650  0.5610
   84MOL   H56247208   4.928   5.306   1.475 -0.1300 -0.5563  0.1910
   85MOL     O147209   3.638   4.185   6.453 -0.1356  0.1696  0.1725
   85MOL     C247210   3.627   4.069   6.535  0.5110 -0.2858 -0.0086
   85MOL     C347211   3.563   3.954   6.443  0.4306  0.5137 -0.3996
   85MOL     O447212   3.665   3.938   6.353  0.4861  0.1210 -0.3499
   85MOL     C547213   3.537   3.817   6.526  0.0536  0.0340  0.2948
   85MOL     C647214   3.511   3.696   6.434 -0.3079  0.1772 -0.5239
   85MOL     C747215   3.493   3.561   6.503  1.2555  0.5938 -0.3208
   85MOL     O847216   3.450   3.471   6.407 -0.2635  0.0933 -0.7787
   85MOL     C947217   3.381   3.563   6.609 -0.3484 -0.6350 -0.2040
   85MOL    C1047218   3.387   3.435   6.698  0.7030 -0.4895  0.1850
   85MOL    C1147219   3.404   3.685   6.701  0.3243  0.6019 -0.8214
   85MOL    C1247220   3.416   3.815   6.616  0.2456 -0.1172 -0.1200
   85MOL    H1347221   3.553   4.084   6.613  0.1884  0.9917 -0.5328
   85MOL    H1447222   3.720   4.026   6.573 -0.0278 -2.0638 -0.6781
   85MOL    H1547223   3.476   4.002   6.396 -0.3830 -1.3499 -0.8502
   85MOL    H1647224   3.702   4.025   6.348 -0.8924  0.6340 -1.9145
   85MOL    H1747225   3.627   3.794   6.584 -0.5447 -0.6735  0.9645
   85MOL    H1847226   3.418   3.722   6.383 -0.9801 -0.8619  0.1728
   85MOL    H1947227   3.594   3.693   6.363  0.4501  0.1413  0.3458
   85MOL    H2047228   3.584   3.522   6.548 -0.9136 -3.9122  0.4851
   85MOL    H2147229   3.513   3.477   6.337  0.6533  0.9740  0.0977
   85MOL    H2247230   3.284   3.586   6.566 -0.2844  0.9190  0.4697
   85MOL    H2347231   3.336   3.364   6.633  1.3465  0.1000 -0.9838
   85MOL    H2447232   3.487   3.396   6.719  0.5165 -0.2852  1.5219
   85MOL    H2547233   3.488   3.662   6.766  1.2363 -1.9467 -2.8328
   85MOL    H2647234   3.326   3.692   6.777  1.3747  1.0680  0.2300
   85MOL    H2747235   3.420   3.893   6.692 -1.5323  2.7704 -2.8572
   85MOL    H2847236   3.327   3.838   6.557  0.6520 -1.2333 -1.1827
   85MOL    H2947237   3.660   4.258   6.508  0.2640 -0.5600  0.9852
   85MOL    O3047238   3.328   3.442   6.826  0.0269  0.4393  0.2706
   85MOL    C3147239   3.286   3.315   6.878  0.1880  0.4284 -0.0085
   85MOL    C3247240   3.379   3.273   6.995 -0.0225  0.0011  0.6958
   85MOL    O3347241   3.304   3.163   7.053 -0.3094 -0.3578  0.0077
   85MOL    C3447242   3.524   3.224   6.965  0.1577  0.1136  0.1092
   85MOL    C3547243   3.542   3.118   6.852  0.3248 -0.3892 -0.3828
   85MOL    C3647244   3.688   3.101   6.819 -0.2634 -0.2037  0.3155
   85MOL    O3747245   3.696   2.998   6.723  0.1102  0.4556  0.6010
   85MOL    C3847246   3.763   3.055   6.949 -0.7458  0.2279  0.8685
   85MOL    C3947247   3.912   3.038   6.909 -0.3154 -0.8863  0.3792
   85MOL    C4047248   3.743   3.152   7.067  0.1646  0.4530 -0.2269
   85MOL    C4147249   3.592   3.179   7.095  0.3463 -0.2238 -0.2827
   85MOL    H4247250   3.282   3.247   6.793  0.0212 -0.5031  0.7407
   85MOL    H4347251   3.184   3.324   6.913  0.4964 -3.1414  2.0716
   85MOL    H4447252   3.389   3.341   7.080  0.1546  0.9995 -0.1105
   85MOL    H4547253   3.278   3.102   6.986 -1.3124  0.9868 -0.8570
   85MOL    H4647254   3.575   3.312   6.925  0.0529 -1.5231 -3.8019
   85MOL    H4747255   3.504   3.019   6.878  0.7704 -0.3642  0.3739
   85MOL    H4847256   3.495   3.160   6.763  1.4720  1.7854  0.0025
   85MOL    H4947257   3.724   3.194   6.776  0.9516 -0.2484  1.1889
   85MOL    H5047258   3.640   3.030   6.653 -0.6596  0.7227  1.3276
   85MOL    H5147259   3.730   2.953   6.969  2.7848 -0.7668  1.9108
   85MOL    H5247260   3.933   2.948   6.851 -0.3299 -0.2121 -0.7018
   85MOL    H5347261   3.936   3.130   6.854 -1.4560 -1.3989 -1.0177
   85MOL    H5447262   3.799   3.244   7.049  0.6381  0.2174  0.0242
   85MOL    H5547263   3.779   3.110   7.161 -0.4250 -0.2743 -0.3239
   85MOL    H5647264   3.581   3.253   7.175 -2.2876 -2.1288  1.1926
   85MOL    H5747265   3.549   3.088   7.137 -0.0087  0.7204  1.4477
   85MOL    O5847266   3.979   3.037   7.034 -0.5727 -0.0448  0.4212
   85MOL    C5947267   4.117   3.067   7.036  0.0750 -0.3144  0.3286
   85MOL    C6047268   4.204   2.972   6.945  0.3212  0.4377 -0.2294
   85MOL    O6147269   4.306   3.053   6.897 -0.1341 -0.2439  0.0503
   85MOL    C6247270   4.254   2.850   7.012  0.0247  0.4596 -0.3527
   85MOL    C6347271   4.328   2.752   6.924  0.2774 -0.3246  0.1227
   85MOL    C6447272   4.390   2.633   6.992 -0.5130 -0.4015  0.5625
   85MOL    O6547273   4.448   2.547   6.892 -0.0623 -0.1788  0.0910
   85MOL    C6647274   4.297   2.557   7.088 -0.7303  0.2149  0.4332
   85MOL    C6747275   4.363   2.455   7.180  0.0071 -0.2375 -0.4124
   85MOL    C6847276   4.220   2.667   7.176 -0.1778  0.4678  0.3721
   85MOL    C6947277   4.147   2.772   7.090  0.4091 -0.3220  0.1220
   85MOL    H7047278   4.148   3.067   7.141  1.9765  0.5565 -0.2095
   85MOL    H7147279   4.136   3.169   7.002 -1.2204 -0.7727 -1.8614
   85MOL    H7247280   4.158   2.942   6.851 -0.9765  0.2188  0.4560
   85MOL    H7347281   4.349   3.095   6.970 -0.6789 -0.7821  0.6920
   85MOL    H7447282   4.328   2.882   7.086  0.1819 -0.0410 -0.2906
   85MOL    H7547283   4.252   2.711   6.858 -0.5216 -1.0657  1.4807
   85MOL    H7647284   4.408   2.800   6.867  1.7529 -2.1044  0.6559
   85MOL    H7747285   4.467   2.677   7.055  0.1192 -0.2091 -0.3283
   85MOL    H7847286   4.380   2.491   6.856  0.3771  0.3965 -1.7001
   85MOL    H7947287   4.217   2.510   7.031 -1.4678  1.3233  0.5455
   85MOL    H8047288   4.430   2.394   7.119  1.4589 -0.0728  1.0032
   85MOL    H8147289   4.428   2.495   7.257 -1.5607 -0.0910  0.8797
   85MOL    H8247290   4.301   2.708   7.236  0.2513 -0.7085  0.6063
   85MOL    H8347291   4.153   2.621   7.249 -3.4844  2.0080 -1.5807
   85MOL    H8447292   4.082   2.837   7.148  1.1364 -0.0823  0.6923
   85MOL    H8547293   4.079   2.720   7.023 -0.6451  0.1970  0.7780
   85MOL    O8647294   4.260   2.378   7.252  0.7102  0.0462 -0.3522
   85MOL    C8747295   4.312   2.305   7.365 -0.0427  0.1640  0.2949
   85MOL    C8847296   4.191   2.250   7.446  0.4721  0.7600  0.5533
   85MOL    O8947297   4.135   2.369   7.498 -0.1162  0.0214 -0.4582
   85MOL    C9047298   4.077   2.178   7.367 -0.1887 -0.1323 -0.4330
   85MOL    C9147299   3.957   2.164   7.457 -0.3844  0.1843 -0.1074
   85MOL    C9247300   3.847   2.076   7.403 -0.1670  0.1088  0.5377
   85MOL    O9347301   3.746   2.076   7.498 -0.1955 -0.0928  0.0030
   85MOL    C9447302   3.910   1.941   7.381  0.4558  1.2038  0.2170
   85MOL    C9547303   3.809   1.841   7.329  0.1613  0.4617  0.4801
   85MOL    C9647304   4.021   1.951   7.275 -0.6220  0.5480 -0.5595
   85MOL    C9747305   4.127   2.048   7.293  0.3767 -0.2041  0.8656
   85MOL    H9847306   4.377   2.364   7.430 -0.1278  1.3115 -0.6465
   85MOL    H9947307   4.362   2.225   7.312 -0.7165  0.4236 -0.7582
   85MOL   H10047308   4.223   2.190   7.531  0.7321 -2.1132 -1.5121
   85MOL   H10147309   4.109   2.426   7.427  0.6355 -0.9750 -1.5512
   85MOL   H10247310   4.053   2.251   7.290  1.2477  0.6874 -0.1168
   85MOL   H10347311   3.981   2.146   7.562  0.5261  2.2199  0.0597
   85MOL   H10447312   3.907   2.261   7.471  3.0375  1.8251  1.2966
   85MOL   H10547313   3.814   2.124   7.311 -0.3017 -1.0051  0.0026
   85MOL   H10647314   3.776   2.022   7.570 -1.2772 -0.0817  0.4862
   85MOL   H10747315   3.947   1.904   7.477 -0.0836  0.6573  0.2134
   85MOL   H10847316   3.739   1.799   7.402  0.6728  0.6471  1.0812
   85MOL   H10947317   3.748   1.890   7.253 -1.1392 -2.5213 -0.4851
   85MOL   H11047318   3.973   1.984   7.183 -1.0604 -1.6077 -1.1168
   85MOL   H11147319   4.067   1.853   7.263  0.1997  0.9501 -0.6921
   85MOL   H11247320   4.165   2.077   7.195 -0.3143 -1.5330  0.1882
   85MOL   H11347321   4.205   2.001   7.354  1.0164  1.8133  1.6389
   85MOL   O11447322   3.873   1.726   7.277 -0.2759 -0.0095 -0.3631
   85MOL   C11547323   3.792   1.619   7.237 -0.7885  0.1887  0.5233
   85MOL   C11647324   3.874   1.534   7.141  0.2921  0.2564  0.7039
   85MOL   O11747325   4.001   1.518   7.197 -0.4442  0.0756  0.3009
   85MOL   C11847326   3.814   1.395   7.095  0.2046  0.0081  0.0144
   85MOL   C11947327   3.801   1.291   7.200  0.1896 -0.2002  0.6205
   85MOL   C12047328   3.747   1.160   7.144 -0.2055  0.2712 -1.1392
   85MOL   O12147329   3.758   1.065   7.258  0.4554 -0.0542 -0.8272
   85MOL   C12247330   3.827   1.104   7.023 -0.4816 -0.5328 -0.4084
   85MOL   C12347331   3.759   0.981   6.968  0.1924  0.5159 -0.3875
   85MOL   C12447332   3.841   1.217   6.924  0.5434 -0.6060 -0.8458
   85MOL   C12547333   3.903   1.339   6.981 -0.1724 -0.2744 -0.8904
   85MOL   H12647334   3.702   1.656   7.188 -0.4740 -1.3974 -1.3320
   85MOL   H12747335   3.760   1.560   7.323 -1.8692  1.5246  1.0560
   85MOL   H12847336   3.884   1.594   7.051  1.2814 -0.2515  0.4658
   85MOL   H12947337   3.996   1.584   7.265  1.4606 -2.1266  2.6964
   85MOL   H13047338   3.716   1.408   7.048  0.7235 -0.8417 -1.3362
   85MOL   H13147339   3.897   1.267   7.247 -0.1910 -1.9996  0.4898
   85MOL   H13247340   3.737   1.310   7.286 -2.1120 -0.6859 -0.9622
   85MOL   H13347341   3.640   1.160   7.121 -0.5990 -0.1882  0.6222
   85MOL   H13447342   3.728   0.984   7.220 -2.5164  1.0580 -1.0149
   85MOL   H13547343   3.929   1.079   7.052  0.6444  2.5130 -1.4651
   85MOL   H13647344   3.652   0.998   6.955 -0.1385 -2.0252 -1.1994
   85MOL   H13747345   3.799   0.963   6.868  3.1518 -2.7911  1.3017
   85MOL   H13847346   3.741   1.234   6.884  0.8365  0.0416 -1.3211
   85MOL   H13947347   3.888   1.182   6.831 -0.2288 -2.0173 -0.7292
   85MOL   H14047348   3.921   1.410   6.900  1.0373 -0.5352 -0.8619
   85MOL   H14147349   4.003   1.323   7.020 -0.3571  1.3776  0.2947
   85MOL   O14247350   3.778   0.869   7.056 -0.3229  0.0592 -0.5283
   85MOL   C14347351   3.701   0.756   7.014 -0.5534 -0.6867 -0.3073
   85MOL   C14447352   3.683   0.664   7.133  0.1436 -0.2063 -0.6124
   85MOL   O14547353   3.806   0.587   7.163 -0.1094  0.1363 -0.1041
   85MOL   C14647354   3.638   0.731   7.263  0.5692 -0.1406  0.0017
   85MOL   C14747355   3.604   0.640   7.379  0.1893 -0.4264 -0.2117
   85MOL   C14847356   3.546   0.719   7.497  0.0074 -0.5223 -0.3301
   85MOL   O14947357   3.504   0.626   7.590  0.2755  0.5928 -0.4835
   85MOL   C15047358   3.428   0.811   7.455  0.3311  0.6417  0.3754
   85MOL   C15147359   3.371   0.895   7.567 -0.0710 -0.2179 -0.0783
   85MOL   C15247360   3.464   0.906   7.344 -1.1275  1.0438 -0.1820
   85MOL   C15347361   3.515   0.822   7.228 -0.6116 -0.3481 -0.6323
   85MOL   H15447362   3.747   0.693   6.938  0.8735 -0.3248  0.2504
   85MOL   H15547363   3.603   0.778   6.971  0.6393  1.4975 -2.0107
   85MOL   H15647364   3.610   0.591   7.101 -0.8813  0.4956  0.0975
   85MOL   H15747365   3.874   0.646   7.193 -0.2906 -0.9342  2.4401
   85MOL   H15847366   3.713   0.803   7.295 -0.0407  0.3745  0.2632
   85MOL   H15947367   3.535   0.567   7.336  0.5494  0.3663 -2.1839
   85MOL   H16047368   3.674   0.567   7.419  1.2519  1.0823  0.7130
   85MOL   H16147369   3.620   0.782   7.547 -1.2162  1.8645 -1.4727
   85MOL   H16247370   3.568   0.637   0.029  0.1162 -1.0392 -0.0537
   85MOL   H16347371   3.349   0.743   7.423  0.5514  0.7187 -0.3430
   85MOL   H16447372   3.341   0.825   0.015 -0.7001 -0.8254 -0.8629
   85MOL   H16547373   3.449   0.950   7.619  0.0870  0.5227 -1.0931
   85MOL   H16647374   3.534   0.981   7.382  2.3548 -1.1980 -1.8398
   85MOL   H16747375   3.380   0.968   7.314  0.5874  2.8437 -1.4304
   85MOL   H16847376   3.543   0.892   7.149  1.7715 -1.8475 -1.1565
   85MOL   H16947377   3.438   0.756   7.189 -1.4508 -1.1779  2.3278
   85MOL   O17047378   3.260   0.978   7.532 -0.3297 -0.2138 -0.5134
   85MOL   C17147379   3.215   1.060   0.007  0.1357  0.0175  0.0091
   85MOL   C17247380   3.083   1.130   7.602 -0.1637  0.5032 -0.1203
   85MOL   O17347381   3.103   1.248   7.524  0.0150 -0.5554 -0.5488
   85MOL   C17447382   2.971   1.045   7.534  0.1768  0.5995 -0.3404
   85MOL   C17547383   2.984   1.035   7.378 -0.0290  0.5462  0.2582
   85MOL   C17647384   2.877   0.933   7.332  0.2669 -0.4105  1.0500
   85MOL   O17747385   2.874   0.928   7.189  0.1868  0.1257 -0.1323
   85MOL   C17847386   2.731   0.966   7.380 -0.5069 -0.3079  0.1448
   85MOL   C17947387   2.620   0.871   7.321  0.1084 -0.0815  0.1632
   85MOL   C18047388   2.727   0.976   7.536  1.0276  0.4483 -0.5085
   85MOL   C18147389   2.823   1.090   7.584 -0.1535 -0.1619  0.6858
   85MOL   H18247390   3.289   1.135   0.036  0.1985 -0.3908  0.9094
   85MOL   H18347391   3.195   1.007   0.100 -1.7303  0.9013  0.1285
   85MOL   H18447392   3.056   1.168   0.071 -0.5726 -2.4733  0.9647
   85MOL   H18547393   3.032   1.310   7.529  1.0387  0.4917  1.9099
   85MOL   H18647394   2.991   0.943   7.568  0.1286  0.8899  0.5697
   85MOL   H18747395   2.978   1.129   7.324 -0.9752  0.7076  0.6398
   85MOL   H18847396   3.076   0.985   7.347  1.3972  2.1068  1.8584
   85MOL   H18947397   2.911   0.837   7.372  1.1005 -0.7438 -0.4410
   85MOL   H19047398   2.877   0.836   7.165  2.5283 -0.8308  3.4467
   85MOL   H19147399   2.721   1.066   7.339  1.3972 -0.6390 -1.2329
   85MOL   H19247400   2.622   0.881   7.213  1.2158 -2.6544 -0.0976
   85MOL   H19347401   2.628   0.767   7.353 -0.7158 -0.3176 -0.3878
   85MOL   H19447402   2.743   0.873   7.568  1.0822  1.3284  2.4369
   85MOL   H19547403   2.624   0.996   7.566  0.9707 -0.9545  0.2509
   85MOL   H19647404   2.817   1.104   0.062 -0.1629  1.4561  0.4827
   85MOL   H19747405   2.794   1.188   7.547  1.3058 -0.2373 -0.7592
   85MOL   O19847406   2.491   0.923   7.351 -0.4611 -0.2193 -0.1511
   85MOL   C19947407   2.385   0.829   7.325 -0.3883  0.7660 -0.3270
   85MOL   C20047408   2.374   0.751   7.458  0.5777  0.2532 -0.1397
   85MOL   O20147409   2.291   0.828   7.543  0.2017  0.4864 -0.0736
   85MOL   C20247410   2.328   0.601   7.451  0.2480  0.8495 -0.4456
   85MOL   C20347411   2.303   0.538   7.586  0.1940 -0.2157 -0.1191
   85MOL   C20447412   2.253   0.396   7.587 -0.7111  0.1381 -0.5455
   85MOL   O20547413   2.240   0.359   0.099 -0.1623 -0.3376 -0.2358
   85MOL   C20647414   2.354   0.301   7.511  0.4538 -0.7657 -0.3087
   85MOL   C20747415   2.300   0.156   7.484  0.8983  0.8232  0.1872
   85MOL   C20847416   2.387   0.363   7.369  0.5687  0.6616  0.4692
   85MOL   C20947417   2.432   0.511   7.381 -0.0704  0.5343  0.5554
   85MOL   H21047418   2.416   0.758   7.248 -1.5895 -0.4028  0.2327
   85MOL   H21147419   2.295   0.879   7.288 -0.1861 -0.0008 -1.9257
   85MOL   H21247420   2.458   0.749   7.528 -0.1579  0.8766  0.7762
   85MOL   H21347421   2.339   0.907   7.565 -1.1385  0.8395  1.7364
   85MOL   H21447422   2.245   0.597   7.380  0.6087  1.1544 -0.8838
   85MOL   H21547423   2.383   0.535   0.030  0.2308  0.1447 -0.1440
   85MOL   H21647424   2.231   0.601   0.007 -3.4607 -2.1656 -2.6607
   85MOL   H21747425   2.157   0.397   7.536 -1.4646  2.6996  0.7736
   85MOL   H21847426   2.190   0.280   0.109  1.5214 -1.1196  2.4090
   85MOL   H21947427   2.443   0.298   7.574 -1.1728  1.4119  2.2599
   85MOL   H22047428   2.266   0.108   7.575  0.0648  0.6490 -0.2180
   85MOL   H22147429   2.214   0.164   7.418  0.6756 -2.2235  0.0527
   85MOL   H22247430   2.297   0.348   7.310  1.0056  0.9868 -0.2831
   85MOL   H22347431   2.477   0.316   7.331 -0.0208  0.6797 -0.9704
   85MOL   H22447432   2.456   0.549   7.282 -1.6755  2.5444  0.9114
   85MOL   H22547433   2.529   0.526   7.429 -0.1723  0.6385  0.7302
   85MOL   O22647434   2.397   0.078   7.425  0.1027 -0.3962 -0.6002
   85MOL   C22747435   2.352   7.583   7.388  0.4165  0.2881 -0.2046
   85MOL   C22847436   2.476   7.506   7.342  0.6679 -0.4398  0.4634
   85MOL   O22947437   2.549   7.468   7.458 -0.1761 -0.4807  0.1803
   85MOL   C23047438   2.437   7.381   7.264  0.0913 -0.3179  0.3736
   85MOL   C23147439   2.563   7.306   7.215 -0.3030 -0.5619 -0.3991
   85MOL   C23247440   2.530   7.160   7.166  0.4870  0.2248 -0.1462
   85MOL   O23347441   2.649   7.098   7.121  0.0881  0.2020  0.0392
   85MOL   C23447442   2.422   7.171   7.048  0.5777 -1.0278  0.0588
   85MOL   C23547443   2.371   7.038   7.004  0.4619  0.1772  0.2286
   85MOL   C23647444   2.302   7.258   7.097  0.1602  0.3407 -0.7823
   85MOL   C23747445   2.352   7.401   7.138 -0.3937 -0.1693 -0.4616
   85MOL   H23847446   2.282   7.594   7.305 -0.5610 -0.7934  0.4616
   85MOL   H23947447   2.288   7.548   7.469  0.9806  0.8789  0.4972
   85MOL   H24047448   2.533   7.576   7.280  1.5788 -2.3485 -0.9078
   85MOL   H24147449   2.584   7.553   7.477  2.0120 -0.9670 -1.4421
   85MOL   H24247450   2.394   7.314   7.339  1.0443 -3.7141 -2.0144
   85MOL   H24347451   2.600   7.362   7.129  0.1058 -0.0716  0.0963
   85MOL   H24447452   2.648   7.304   7.283  1.7932 -0.3512 -2.9586
   85MOL   H24547453   2.490   7.106   7.252  0.7713 -0.5657 -0.5069
   85MOL   H24647454   2.699   7.081   7.200 -0.8059 -2.3203  0.1060
   85MOL   H24747455   2.466   7.225   6.965  0.1692 -3.0288 -1.4984
   85MOL   H24847456   2.441   6.984   6.939 -0.1276  2.1292 -2.0961
   85MOL   H24947457   2.355   6.979   7.094  0.9029 -1.6453 -0.8525
   85MOL   H25047458   2.259   7.212   7.185  0.6372  1.1378 -0.1228
   85MOL   H25147459   2.235   7.273   7.013 -2.0036 -1.1210  0.6538
   85MOL   H25247460   2.258   7.452   7.158  0.5829  0.9745  1.4035
   85MOL   H25347461   2.405   7.437   7.050  1.0045 -0.5337  0.2053
   85MOL   O25447462   2.242   7.043   6.957  0.3034 -0.2530  0.3078
   85MOL   C25547463   2.174   6.917   6.944  0.3117 -0.6250 -0.1516
   85MOL   C25647464   2.027   6.944   6.891 -0.0814 -0.6079 -0.5874
   85MOL   O25747465   1.987   7.059   6.971 -0.1016  0.1409  0.2635
   85MOL   C25847466   2.015   6.966   6.737 -1.1082  0.1317 -0.2069
   85MOL   C25947467   2.097   7.082   6.680 -0.8663 -0.3460 -0.6692
   85MOL   C26047468   2.089   7.081   6.521  0.4928 -0.8368  0.3088
   85MOL   O26147469   2.155   7.195   6.483  0.0123 -0.6046 -0.5195
   85MOL   C26247470   1.944   7.085   6.465  0.1584  0.0640 -0.4290
   85MOL   C26347471   1.942   7.056   6.317  0.1908 -0.0713  0.1571
   85MOL   C26447472   1.856   6.986   6.545 -0.1050 -0.0676  0.5852
   85MOL   C26547473   1.871   6.978   6.697  0.0225 -0.4230 -0.6029
   85MOL   H26647474   2.179   6.873   7.043 -0.3543 -2.7749 -1.0526
   85MOL   H26747475   2.225   6.850   6.875 -2.1320 -1.4816 -1.2021
   85MOL   H26847476   1.977   6.851   6.918 -0.6118 -0.4732 -1.0872
   85MOL   H26947477   2.066   7.096   7.007 -0.6662  0.1002  1.5527
   85MOL   H27047478   2.049   6.872   6.693  0.8092  0.3556  0.7542
   85MOL   H27147479   2.062   7.174   6.727 -0.9056 -1.1498  0.8757
   85MOL   H27247480   2.203   7.078   6.705 -1.0261  1.3912  0.3473
   85MOL   H27347481   2.155   7.004   6.481  2.7522  1.1786  0.0612
   85MOL   H27447482   2.092   7.262   6.463  0.8047 -0.1646 -1.5831
   85MOL   H27547483   1.903   7.179   6.503 -1.8508 -0.9664  0.0586
   85MOL   H27647484   2.002   7.131   6.266 -1.0942  1.0899  0.3427
   85MOL   H27747485   1.982   6.957   6.293 -1.8911 -0.4454 -1.9270
   85MOL   H27847486   1.852   6.887   6.499  0.7362  1.1026 -2.0758
   85MOL   H27947487   1.752   7.014   6.524  0.8807  3.3520 -0.0981
   85MOL   H28047488   1.807   6.893   6.722  1.4042 -1.1199  0.6494
   85MOL   H28147489   1.823   7.068   6.733 -2.4983 -1.3226 -1.6210
   85MOL   O28247490   1.814   7.077   6.246 -0.3086 -0.5300 -0.1720
   85MOL   C28347491   1.735   6.963   6.228  0.0610  0.4337  0.2743
   85MOL   C28447492   1.612   7.003   6.152  0.2426  0.3304  0.0643
   85MOL   O28547493   1.561   6.886   6.087  0.1617 -0.1076 -0.5559
   85MOL   C28647494   1.502   7.061   6.244 -0.6015  0.6550  0.2313
   85MOL   C28747495   1.430   6.960   6.334  0.9642  0.5819 -0.2169
   85MOL   C28847496   1.303   7.023   6.397 -0.0711 -0.3114 -0.1462
   85MOL   O28947497   1.238   6.924   6.470 -0.3392 -0.0529  0.1530
   85MOL   C29047498   1.205   7.084   6.296  0.3320  0.2631 -0.2046
   85MOL   C29147499   1.078   7.146   6.367 -0.1151 -0.2191  0.2844
   85MOL   C29247500   1.283   7.187   6.220  0.2801 -0.3473 -0.0768
   85MOL   C29347501   1.407   7.143   6.154 -0.4082 -0.4507 -0.1952
   85MOL   H29447502   1.716   6.905   6.318  1.4392 -3.5546 -1.9234
   85MOL   H29547503   1.787   6.890   6.167 -0.0469 -0.3535  1.1246
   85MOL   H29647504   1.631   7.074   6.072  2.7101 -2.0026 -1.5094
   85MOL   H29747505   1.555   6.822   6.156 -1.2262 -0.2377 -0.7831
   85MOL   H29847506   1.559   7.129   6.308  0.5549 -0.0841  0.0146
   85MOL   H29947507   1.402   6.868   6.284 -0.7542  0.6869  0.4987
   85MOL   H30047508   1.504   6.935   6.410  1.2250 -2.1616 -1.3440
   85MOL   H30147509   1.343   7.097   6.467  0.5788 -1.3175  0.5492
   85MOL   H30247510   1.147   6.947   6.479 -0.2552  1.1640 -1.7878
   85MOL   H30347511   1.181   7.017   6.214  2.8588  1.3897 -1.9080
   85MOL   H30447512   1.117   7.217   6.439  3.3861  0.7383 -2.4426
   85MOL   H30547513   1.021   7.205   6.296  0.3839 -2.7282 -2.3198
   85MOL   H30647514   1.306   7.272   6.286  1.0671  0.1543 -0.9812
   85MOL   H30747515   1.229   7.236   6.139 -0.6205  1.0814  1.3591
   85MOL   H30847516   1.465   7.233   6.131  0.2320 -0.4574  1.3087
   85MOL   H30947517   1.378   7.099   6.059  2.4126 -2.4086 -0.2185
   85MOL   O31047518   0.982   7.053   6.422  0.5011 -0.1300  0.1490
   85MOL   C31147519   0.898   6.993   6.327  0.0816 -0.0834 -0.5878
   85MOL   C31247520   0.781   6.916   6.399  0.2095  0.0007  1.3794
   85MOL   O31347521   0.843   6.821   6.486 -0.5634 -0.4560 -0.2295
   85MOL   C31447522   0.682   6.999   6.478  0.6385  0.3831  0.4670
   85MOL   C31547523   0.600   6.923   6.589  0.0912 -0.3742 -0.3986
   85MOL   C31647524   0.511   7.018   6.670  0.0106  0.0305  0.2413
   85MOL   O31747525   0.470   6.956   6.794  0.2127  0.0519 -0.5636
   85MOL   C31847526   0.401   7.069   6.573  0.8067  0.0417 -0.2620
   85MOL   C31947527   0.294   7.155   6.650 -0.3697  0.2336  0.4496
   85MOL   C32047528   0.479   7.142   6.460  0.0915 -0.4761  0.2654
   85MOL   C32147529   0.581   7.071   6.388 -0.2151  0.1716  0.2379
   85MOL   H32247530   0.950   6.915   6.270  0.5121 -0.2321  0.0066
   85MOL   H32347531   0.854   7.066   6.258  0.2885  0.0391 -0.5930
   85MOL   H32447532   0.732   6.868   6.314  1.3495 -0.4688  0.9880
   85MOL   H32547533   0.879   6.870   6.558 -0.0036  1.6006 -1.8568
   85MOL   H32647534   0.737   7.077   6.531 -1.5458  2.3348 -0.0397
   85MOL   H32747535   0.545   6.843   6.539  1.9343 -0.7446 -1.9168
   85MOL   H32847536   0.663   6.868   6.660 -0.0617 -0.5187 -0.3747
   85MOL   H32947537   0.565   7.109   6.696 -0.6502  0.2326  0.9363
   85MOL   H33047538   0.452   7.028   6.853 -1.1504  0.4462 -1.4693
   85MOL   H33147539   0.349   6.980   6.537  0.5285  0.9569 -2.1545
   85MOL   H33247540   0.256   7.088   6.727  0.2141 -1.6067 -0.8309
   85MOL   H33347541   0.332   7.239   6.710 -3.2468  2.2686 -0.4910
   85MOL   H33447542   0.527   7.231   6.500  1.3941 -0.3734 -1.4539
   85MOL   H33547543   0.408   7.195   6.396 -1.3511  1.0226  3.0225
   85MOL   H33647544   0.631   7.134   6.314 -0.6923  1.8947  1.3349
   85MOL   H33747545   0.534   6.991   6.331 -1.1327  1.3590 -0.7238
   85MOL   O33847546   0.185   7.196   6.571  0.3603  0.1150  0.2098
   85MOL   C33947547   0.089   7.266   6.647  0.1778  0.1749  0.8686
   85MOL   C34047548   7.593   7.183   6.662 -0.7724  0.8989 -0.5444
   85MOL   O34147549   7.628   7.052   6.717  0.3667 -0.2138  0.1959
   85MOL   C34247550   7.489   7.243   6.754  0.7916 -0.2025 -0.1841
   85MOL   C34347551   7.458   7.390   6.716 -0.1992  0.8099  0.7707
   85MOL   C34447552   7.339   7.444   6.787  0.3610 -0.7913 -0.4471
   85MOL   O34547553   7.318   7.580   6.768 -0.0966 -0.1739 -0.0579
   85MOL   C34647554   7.357   7.425   6.936 -0.2732 -0.8967  0.4084
   85MOL   C34747555   7.236   7.461   7.025  0.3295 -0.1373  0.3982
   85MOL   C34847556   7.396   7.282   6.982 -0.4199  0.2068  0.3355
   85MOL   C34947557   7.522   7.252   6.904 -0.0895 -0.1113 -0.1477
   85MOL   H35047558   0.080   7.357   6.588 -1.9666  0.0357  0.9499
   85MOL   H35147559   0.123   7.300   6.745 -2.2742  3.3932  0.6726
   85MOL   H35247560   7.546   7.152   6.568 -1.2922 -0.8062  0.2467
   85MOL   H35347561   0.057   7.003   6.660 -0.3121 -1.4263  0.5297
   85MOL   H35447562   7.391   7.198   6.740  0.7958  0.0955 -1.2143
   85MOL   H35547563   7.541   7.460   6.725  2.0362 -1.6578  0.0326
   85MOL   H35647564   7.433   7.393   6.610  0.8115  3.4025  0.5665
   85MOL   H35747565   7.252   7.381   6.767 -0.6481  0.4827 -0.0966
   85MOL   H35847566   7.302   7.592   6.676 -3.7322 -0.0768  0.4837
   85MOL   H35947567   7.439   7.488   6.968 -0.8695 -0.8523  1.9076
   85MOL   H36047568   7.258   7.433   7.128  1.3282 -0.1358  0.1880
   85MOL   H36147569   7.222   7.569   7.029  3.7614  0.3598  0.6546
   85MOL   H36247570   7.322   7.204   6.965  1.0768 -1.6067  1.9548
   85MOL   H36347571   7.420   7.272   7.088  0.5779 -3.0862 -0.1425
   85MOL   H36447572   7.555   7.152   6.932 -0.0168 -0.0837 -0.1365
   85MOL   H36547573   7.610   7.311   6.929  0.3503  0.1507 -2.2431
   85MOL   O36647574   7.119   7.390   6.977  0.2310  0.4287  0.2325
   85MOL   C36747575   7.006   7.403   7.065  0.2540  0.1164  0.3510
   85MOL   C36847576   6.911   7.291   7.027  0.0194 -0.2852 -0.0133
   85MOL   O36947577   6.964   7.162   7.026 -0.0037  0.0888 -0.4700
   85MOL   C37047578   6.777   7.288   7.112  0.3396  0.4078  0.4750
   85MOL   C37147579   6.784   7.304   7.272  0.2717  0.1202  0.1671
   85MOL   C37247580   6.638   7.321   7.339 -0.0397  0.2719  0.2110
   85MOL   O37347581   6.633   7.332   7.476 -0.0267  0.5817  0.2915
   85MOL   C37447582   6.541   7.219   7.294  0.3021  0.1107  0.0580
   85MOL   C37547583   6.396   7.252   7.337  0.2229  0.1208 -0.4320
   85MOL   C37647584   6.538   7.200   7.142 -0.0604 -0.1454 -0.2004
   85MOL   C37747585   6.680   7.174   7.076 -0.4211  0.2617  0.3438
   85MOL   H37847586   6.963   7.502   7.053  1.3834  0.3681 -1.8484
   85MOL   H37947587   7.048   7.388   7.165  0.5789 -0.0294  0.1933
   85MOL   H38047588   6.886   7.317   6.924 -0.3796  1.4471  0.4984
   85MOL   H38147589   7.057   7.173   7.015  0.1390 -1.8870 -1.2939
   85MOL   H38247590   6.718   7.372   7.077 -2.9430 -1.3997  1.4033
   85MOL   H38347591   6.834   7.218   7.315  2.0550  2.1098  2.2459
   85MOL   H38447592   6.837   7.397   7.297  1.6294 -0.7566  0.6011
   85MOL   H38547593   6.604   7.419   7.304  1.3178  0.2537 -1.2050
   85MOL   H38647594   6.544   7.328   7.510 -0.1323  1.2223  0.0948
   85MOL   H38747595   6.570   7.123   7.336  0.1421 -0.5775 -1.3639
   85MOL   H38847596   6.370   7.347   7.291  1.8791  0.9304  0.2429
   85MOL   H38947597   6.330   7.173   7.301 -0.7453  1.3221 -1.3201
   85MOL   H39047598   6.502   7.294   7.098  0.1958 -0.1189 -0.3548
   85MOL   H39147599   6.467   7.121   7.120  0.0243 -0.6792  1.4355
   85MOL   H39247600   6.671   7.149   6.970  2.4808  1.3751 -0.2263
   85MOL   H39347601   6.717   7.078   7.113  1.7261 -0.0578 -2.4026
   85MOL   O39447602   6.380   7.282   7.478  0.3259  0.4169 -0.5375
   85MOL   C39547603   6.265   7.340   7.525  0.3446 -0.5237  1.0265
   85MOL   C39647604   6.241   7.318   0.050  0.1884 -0.0134 -0.3725
   85MOL   O39747605   6.204   7.182   0.054  0.1367 -0.5146  0.0817
   85MOL   C39847606   6.363   7.354   0.142  0.2819  0.4049  0.3956
   85MOL   C39947607   6.355   7.333   0.292 -0.1000  0.5685  0.4261
   85MOL   C40047608   6.490   7.364   0.363  0.0432  0.5702 -0.3076
   85MOL   O40147609   6.470   7.375   0.506 -0.3527 -0.1288  1.0735
   85MOL   C40247610   6.544   7.504   0.325 -0.0043  0.1690  0.1281
   85MOL   C40347611   6.685   7.513   0.376  0.0831  0.8242 -0.6826
   85MOL   C40447612   6.546   7.521   0.171  0.1757  0.1687 -0.0062
   85MOL   C40547613   6.404   7.503   0.120  0.1828  0.4216 -0.6833
   85MOL   H40647614   6.179   7.319   7.462 -0.1160  2.4349  0.5997
   85MOL   H40747615   6.279   7.445   7.503 -2.0687 -0.5736 -0.8735
   85MOL   H40847616   6.149   7.360   0.093 -0.5449 -2.2196  0.2887
   85MOL   H40947617   6.270   7.135   0.006 -0.2043  0.4662 -1.3984
   85MOL   H41047618   6.452   7.299   0.111 -0.9292 -1.1143 -0.4565
   85MOL   H41147619   6.277   7.401   0.328 -2.3127 -1.5591 -0.2753
   85MOL   H41247620   6.337   7.231   0.324  1.1366 -0.3953 -1.8472
   85MOL   H41347621   6.571   7.293   0.350  0.0964  0.6036 -0.1653
   85MOL   H41447622   6.422   7.297   0.529  0.8312 -0.9149  0.9270
   85MOL   H41547623   6.477   7.578   0.368  0.3502  0.4896  0.1339
   85MOL   H41647624   6.696   7.499   0.483 -2.5329 -1.8356 -0.7064
   85MOL   H41747625   6.742   7.438   0.321  1.1884  0.1900  1.2930
   85MOL   H41847626   6.616   7.450   0.125  0.6450  0.4158  0.3254
   85MOL   H41947627   6.577   7.622   0.144  1.6442 -0.2318  0.1238
   85MOL   H42047628   6.406   7.541   0.018  0.4618 -1.9242 -1.5905
   85MOL   H42147629   6.336   7.567   0.176 -0.9584 -0.9335 -0.5082
   85MOL   O42247630   6.738   0.012   0.348 -0.2969  0.3344 -0.2119
   85MOL   C42347631   6.878   0.026   0.393  0.4788 -0.3311 -0.2327
   85MOL   C42447632   6.984   7.580   0.305 -0.2105  0.2350 -0.5032
   85MOL   O42547633   6.990   7.444   0.344 -0.3131 -0.0669 -0.1187
   85MOL   C42647634   6.957   7.596   0.147 -0.0891 -0.5610 -0.6056
   85MOL   C42747635   7.051   7.507   0.056  0.5223 -0.4484 -0.2216
   85MOL   C42847636   7.041   7.523   7.537  0.5642 -0.1365  0.2131
   85MOL   O42947637   7.145   7.464   7.469  0.7542  0.2379  0.3605
   85MOL   C43047638   7.054   0.040   7.494  0.0504  0.1556  0.7889
   85MOL   C43147639   7.024   0.065   7.347 -0.0492  0.1764  0.2092
   85MOL   C43247640   6.974   0.132   7.582 -0.0044 -0.2478 -1.4433
   85MOL   C43347641   6.986   0.110   0.105  0.2303  0.1503  0.8490
   85MOL   H43447642   6.888   7.621   0.496  1.4335 -0.0331 -0.2218
   85MOL   H43547643   6.909   0.130   0.389 -0.8851  0.1734  1.7517
   85MOL   H43647644   7.085   7.616   0.323 -0.0853 -0.8305  0.9240
   85MOL   H43747645   6.976   7.451   0.437 -0.0540  0.8986 -0.1435
   85MOL   H43847646   6.856   7.562   0.125  0.0078 -0.2547 -1.5390
   85MOL   H43947647   7.150   7.528   0.098  1.2166 -2.0447 -1.0206
   85MOL   H44047648   7.027   7.405   0.086 -0.2922 -0.5934 -1.3274
   85MOL   H44147649   6.948   7.479   7.500 -1.2626  2.7746  1.1156
   85MOL   H44247650   7.139   7.370   7.473  2.2976 -0.0076 -1.8202
   85MOL   H44347651   7.157   0.069   7.517 -0.2516  1.2792  0.7373
   85MOL   H44447652   7.058   0.163   7.315 -0.1883  0.4862  0.9892
   85MOL   H44547653   7.084   7.627   7.286 -2.0685  0.1932 -1.8483
   85MOL   H44647654   6.876   0.126   7.536  0.1020  0.2705 -1.7540
   85MOL   H44747655   6.996   0.235   7.553  0.0162 -0.1513 -1.0891
   85MOL   H44847656   6.916   0.178   0.152  1.4707  2.0103  0.0476
   85MOL   H44947657   7.087   0.141   0.133  0.9725 -0.7172 -0.7887
   85MOL   O45047658   6.893   0.029   7.312  0.1480 -0.4366 -0.2473
   85MOL   C45147659   6.844   0.084   7.193  0.4224  0.1013 -0.3817
   85MOL   C45247660   6.801   0.231   7.215  0.2010 -0.3069 -0.6206
   85MOL   O45347661   6.768   0.285   7.091 -0.1550 -0.4891  0.1557
   85MOL   C45447662   6.679   0.245   7.306 -0.3089 -0.4310 -0.5583
   85MOL   C45547663   6.556   0.174   7.253 -0.0705 -0.6506 -0.0900
   85MOL   C45647664   6.428   0.196   7.335  0.4321 -0.0330  0.3082
   85MOL   O45747665   6.319   0.164   7.248  0.6397 -0.3822  0.0433
   85MOL   C45847666   6.408   0.341   7.381  0.1273 -0.6626  0.8600
   85MOL   C45947667   6.275   0.379   7.455  0.1430  0.5547  0.3322
   85MOL   C46047668   6.536   0.402   7.445 -0.5377 -0.1150  1.2830
   85MOL   C46147669   6.647   0.390   7.339  0.8882  0.5326  0.8653
   85MOL   H46247670   6.775   0.011   7.151 -0.7473  0.7340  0.4078
   85MOL   H46347671   6.933   0.091   7.130 -0.0260 -1.0949 -1.1763
   85MOL   H46447672   6.885   0.286   7.257 -0.2257  0.5549 -0.8629
   85MOL   H46547673   6.737   0.373   7.105 -0.3001  0.0325 -2.9309
   85MOL   H46647674   6.693   0.197   7.403  0.0465  2.6489  0.9570
   85MOL   H46747675   6.556   0.199   7.147  0.0953  2.1920  0.5414
   85MOL   H46847676   6.580   0.068   7.261 -0.8242 -0.8532 -0.4962
   85MOL   H46947677   6.414   0.126   7.418 -2.8738  0.4313  0.2345
   85MOL   H47047678   6.328   0.225   7.177 -1.0307  0.7481  0.7688
   85MOL   H47147679   6.387   0.388   7.284  2.0962 -0.9244  0.2885
   85MOL   H47247680   6.282   0.488   7.460  3.4431  0.6121 -2.9743
   85MOL   H47347681   6.179   0.350   7.412  0.9221 -3.3580  1.0322
   85MOL   H47447682   6.562   0.343   7.533 -1.2134 -1.1503  0.7897
   85MOL   H47547683   6.527   0.509   7.467 -0.3781 -0.0369  0.9854
   85MOL   H47647684   6.733   0.444   7.380  0.9684  0.9213  0.1870
   85MOL   H47747685   6.615   0.454   7.257 -2.1340 -1.6642  0.2400
   85MOL   O47847686   6.279   0.323   7.590 -0.3157 -0.2353 -0.2667
   85MOL   C47947687   6.195   0.385   0.060 -0.5621 -0.0435 -0.1921
   85MOL   C48047688   6.222   0.306   0.189  0.1790 -0.1169  0.3664
   85MOL   O48147689   6.191   0.171   0.160  0.0128  0.0554 -0.2441
   85MOL   C48247690   6.367   0.315   0.236 -0.6178 -0.0766  0.7953
   85MOL   C48347691   6.373   0.273   0.377  0.0234 -0.0989 -0.6539
   85MOL   C48447692   6.523   0.274   0.433 -0.3654 -0.3812 -1.4535
   85MOL   O48547693   6.516   0.253   0.569 -0.0670 -0.1790 -0.1766
   85MOL   C48647694   6.594   0.409   0.423  0.1585  0.1003  0.2619
   85MOL   C48747695   6.746   0.402   0.452 -0.8158  0.7667 -0.1515
   85MOL   C48847696   6.575   0.458   0.276  0.2436 -0.2507 -0.1016
   85MOL   C48947697   6.431   0.463   0.222  0.0417 -0.7508  0.2584
   85MOL   H49047698   6.090   0.373   0.031 -0.7220 -0.1601  0.4401
   85MOL   H49147699   6.226   0.489   0.069 -1.8275  0.4882 -1.5800
   85MOL   H49247700   6.154   0.351   0.261  0.4654 -0.1216  0.6449
   85MOL   H49347701   6.215   0.163   0.068  0.4521 -1.1785 -0.0353
   85MOL   H49447702   6.427   0.242   0.181 -2.5010  0.1199 -1.5999
   85MOL   H49547703   6.316   0.333   0.447 -0.2382 -1.8681  0.7055
   85MOL   H49647704   6.337   0.171   0.397  0.5931 -0.3809 -1.0529
   85MOL   H49747705   6.589   0.193   0.400 -0.1971  0.1028 -2.3031
   85MOL   H49847706   6.525   0.160   0.583  0.2048 -0.2711 -0.9613
   85MOL   H49947707   6.548   0.480   0.491 -0.6469 -0.0460 -0.1311
   85MOL   H50047708   6.769   0.330   0.530  0.5487 -0.2104 -1.4312
   85MOL   H50147709   6.794   0.346   0.371  0.0259  2.1610 -0.6396
   85MOL   H50247710   6.622   0.382   0.212  1.3019 -0.7089  1.2068
   85MOL   H50347711   6.619   0.557   0.265 -3.8776  1.9378  2.0744
   85MOL   H50447712   6.434   0.494   0.118 -0.2236  0.2536  0.5496
   85MOL   H50547713   6.366   0.536   0.270 -1.4914 -0.1889 -2.5528
   85MOL   O50647714   6.800   0.537   0.475 -0.1108  0.1643 -0.0078
   85MOL   C50747715   6.940   0.546   0.442 -0.3754 -0.9052 -0.0599
   85MOL   C50847716   6.943   0.560   0.293 -0.5199 -0.3258  0.4332
   85MOL   O50947717   6.897   0.691   0.275 -0.7399 -0.1497  0.0143
   85MOL   C51047718   7.084   0.544   0.227  0.5283  0.4278  0.4632
   85MOL   C51147719   7.073   0.555   0.064 -0.4845 -0.3726  0.2460
   85MOL   C51247720   7.208   0.531   7.620 -0.2683 -0.4084 -0.0481
   85MOL   O51347721   7.181   0.547   7.482 -0.8197 -0.2505 -0.1932
   85MOL   C51447722   7.285   0.403   0.030 -0.2229  0.1042 -0.9878
   85MOL   C51547723   7.421   0.383   7.590  0.3374 -0.4620 -0.3389
   85MOL   C51647724   7.289   0.392   0.184 -0.7357  0.5685  0.0320
   85MOL   C51747725   7.152   0.408   0.253 -0.4043  0.4008  0.3872
   85MOL   H51847726   6.975   0.451   0.483 -1.2912 -0.6819  1.2732
   85MOL   H51947727   6.987   0.632   0.488  0.7427 -2.9494  2.7148
   85MOL   H52047728   6.867   0.503   0.240 -1.0831  1.8317 -1.1122
   85MOL   H52147729   6.823   0.711   0.330  1.4485 -1.1879  3.4703
   85MOL   H52247730   7.152   0.621   0.264  1.0185 -0.1443  0.7774
   85MOL   H52347731   6.995   0.483   0.037 -0.5274 -0.2856  0.1348
   85MOL   H52447732   7.030   0.649   0.028  2.4168  0.2750 -1.6849
   85MOL   H52547733   7.271   0.619   0.008 -1.3254  0.3548 -0.0050
   85MOL   H52647734   7.261   0.568   7.435  0.2742 -0.9115  1.3207
   85MOL   H52747735   7.229   0.322   7.613  0.6870 -0.9259 -0.3260
   85MOL   H52847736   7.483   0.472   7.597 -0.8862  0.6110 -2.7233
   85MOL   H52947737   7.475   0.299   0.004  0.6083  0.1291  0.4968
   85MOL   H53047738   7.344   0.480   0.219 -0.0445  0.1465  0.0137
   85MOL   H53147739   7.325   0.297   0.223 -3.3377 -0.4086  0.1182
   85MOL   H53247740   7.169   0.398   0.360 -0.8754  0.1985  0.4431
   85MOL   H53347741   7.076   0.334   0.230  1.1676 -0.7664 -1.1467
   85MOL   O53447742   7.407   0.359   7.450  0.3513 -0.0758 -0.1825
   85MOL   C53547743   7.514   0.306   7.384 -0.1978  0.2201 -1.1518
   85MOL   C53647744   7.511   0.336   7.233 -0.1724 -0.1538 -0.5882
   85MOL   O53747745   7.550   0.469   7.201  0.0949 -0.0697 -0.8808
   85MOL   C53847746   7.602   0.248   7.147  0.1326 -0.0622  0.0642
   85MOL   C53947747   7.577   0.286   6.994 -0.0543 -0.7347  0.3028
   85MOL   C54047748   0.054   0.207   6.915 -0.5010  0.1871  0.7819
   85MOL   O54147749   0.046   0.247   6.777 -0.2354 -0.1914 -0.4403
   85MOL   C54247750   0.016   0.061   6.924 -0.6251  1.0940  0.1874
   85MOL   C54347751   0.106   7.600   6.830  0.1344  0.0069 -0.7321
   85MOL   C54447752   0.022   0.012   7.069  0.2929  0.1391  0.1924
   85MOL   C54547753   7.571   0.098   7.170  0.0216  0.3605  0.4760
   85MOL   H54647754   7.520   0.199   7.403  0.5217  0.0146 -2.5180
   85MOL   H54747755   7.605   0.340   7.433 -0.2547 -1.2012 -0.0078
   85MOL   H54847756   7.406   0.325   7.204 -0.2680  1.5670 -0.9592
   85MOL   H54947757   7.499   0.523   7.259  1.1726 -1.2831  1.2533
   85MOL   H55047758   0.077   0.260   7.177  0.3165 -1.3590 -0.0286
   85MOL   H55147759   7.474   0.269   6.960 -0.5822  1.8387  0.5418
   85MOL   H55247760   7.602   0.391   6.979  1.2205 -1.1761 -0.8035
   85MOL   H55347761   0.153   0.226   6.956  0.1593 -1.4620 -0.0034
   85MOL   H55447762   0.106   0.317   6.756 -2.5479  1.8475 -0.4243
   85MOL   H55547763   7.545   0.058   6.883  0.3342  0.3618 -2.2159
   85MOL   H55647764   0.104   7.499   6.871  0.8125 -0.7491 -2.4998
   85MOL   H55747765   0.071   7.610   6.728 -0.4718  1.8642 -0.3660
   85MOL   H55847766   0.125   0.021   7.102 -0.2413 -0.1147  2.0215
   85MOL   H55947767   0.006   7.536   7.092  0.8200  0.9126  4.4953
   85MOL   H56047768   7.601   0.073   7.271 -0.5931  0.0705  0.5910
   85MOL   H56147769   7.465   0.071   7.164  0.4477 -1.0423 -1.1222
   85MOL   H56247770   0.211   7.628   6.830  0.2173 -0.1939  1.3404
   86MOL     O147771   4.689   1.155   5.295  0.3861  0.5577  0.3772
   86MOL     C247772   4.730   1.282   5.321 -0.1849 -0.3801 -0.2980
   86MOL     C347773   4.604   1.374   5.329 -0.5772  0.0139 -0.3329
   86MOL     O447774   4.519   1.317   5.421 -0.4909  0.1461  0.6768
   86MOL     C547775   4.618   1.527   5.364  0.5831  1.5321  0.1128
   86MOL     C647776   4.700   1.603   5.260 -0.4903  0.0322  0.3030
   86MOL     C747777   4.726   1.751   5.286  0.0048  0.1376 -0.0488
   86MOL     O847778   4.815   1.795   5.185 -0.1854  0.0375 -0.1959
   86MOL     C947779   4.776   1.769   5.432  0.5671  0.1136 -0.1184
   86MOL    C1047780   4.800   1.916   5.465 -0.7184  0.2721 -0.2163
   86MOL    C1147781   4.690   1.695   5.537 -0.0683  0.2213  0.3484
   86MOL    C1247782   4.671   1.548   5.513  0.2117 -0.0747  0.8018
   86MOL    H1347783   4.801   1.309   5.242  0.2646 -1.7985 -0.3840
   86MOL    H1447784   4.785   1.290   5.415  0.3671  2.4309 -0.8171
   86MOL    H1547785   4.555   1.372   5.231 -0.6346 -0.2475 -0.2979
   86MOL    H1647786   4.533   1.225   5.407 -0.5509  0.4244 -1.4356
   86MOL    H1747787   4.520   1.575   5.357  0.2209  0.6075 -1.2986
   86MOL    H1847788   4.795   1.551   5.245 -0.1638  0.0120  2.2929
   86MOL    H1947789   4.644   1.599   5.166  0.8240 -0.6154 -0.4736
   86MOL    H2047790   4.634   1.805   5.264 -0.6128 -1.1089 -0.5729
   86MOL    H2147791   4.753   1.811   5.115 -2.8128 -1.3134  1.7122
   86MOL    H2247792   4.876   1.726   5.434  0.9561  0.9679 -0.9196
   86MOL    H2347793   4.810   1.988   5.384  1.0574 -0.6577 -0.8517
   86MOL    H2447794   4.713   1.966   5.507 -0.5362 -0.4553  1.0491
   86MOL    H2547795   4.594   1.746   5.535  0.0772  0.5482  1.7108
   86MOL    H2647796   4.739   1.718   5.631  1.3764  2.3565 -0.8744
   86MOL    H2747797   4.601   1.512   5.589  0.3014  1.0932  1.4516
   86MOL    H2847798   4.762   1.499   5.548  1.1853  1.7243  0.8478
   86MOL    H2947799   4.762   1.096   5.305 -0.1765 -0.0053  1.1569
   86MOL    O3047800   4.900   1.930   5.560  0.2102 -0.1126 -0.0016
   86MOL    C3147801   4.952   2.061   5.583  0.1994 -0.0848  0.0890
   86MOL    C3247802   5.029   2.050   5.717  0.0667  0.3773 -0.1745
   86MOL    O3347803   5.154   1.975   5.693  0.0150 -0.7049  0.0580
   86MOL    C3447804   5.068   2.173   5.803  0.7508  0.0868  0.6507
   86MOL    C3547805   4.937   2.253   5.829  0.1293 -0.2906  0.0251
   86MOL    C3647806   4.969   2.366   5.923  0.1392  0.5887  0.2818
   86MOL    O3747807   4.853   2.448   5.931 -0.1777 -0.5317  0.0862
   86MOL    C3847808   5.086   2.459   5.886  0.2691  0.0529 -0.4364
   86MOL    C3947809   5.123   2.579   5.980  0.7385 -0.0684 -0.6553
   86MOL    C4047810   5.206   2.369   5.852  0.3420  0.1882  0.1845
   86MOL    C4147811   5.169   2.264   5.743 -0.1848 -0.1572 -0.1854
   86MOL    H4247812   4.867   2.124   5.609 -0.7810 -0.8592 -1.1582
   86MOL    H4347813   5.000   2.102   5.494  0.2416  0.5284  0.3937
   86MOL    H4447814   4.971   1.988   5.786 -0.6600  2.2095  0.9032
   86MOL    H4547815   5.137   1.916   5.621 -2.8482  1.1406 -0.8547
   86MOL    H4647816   5.101   2.134   5.899 -3.4793 -1.1034  1.7320
   86MOL    H4747817   4.899   2.293   5.735  2.0687  2.6018  0.4120
   86MOL    H4847818   4.858   2.192   5.872 -0.0392 -0.3467 -0.3565
   86MOL    H4947819   4.994   2.321   6.020 -0.4965 -0.1235  0.1132
   86MOL    H5047820   4.848   2.500   6.010 -0.9757 -0.0499 -0.2684
   86MOL    H5147821   5.052   2.513   5.797 -1.0081  0.3700  0.2260
   86MOL    H5247822   5.225   2.619   5.978  1.0735 -0.7000  1.7772
   86MOL    H5347823   5.042   2.650   5.966  1.2665 -0.1755 -4.8011
   86MOL    H5447824   5.264   2.333   5.937 -0.3801 -0.5180  0.3760
   86MOL    H5547825   5.274   2.439   5.803  1.8655 -1.2878  0.1369
   86MOL    H5647826   5.258   2.208   5.716 -0.1191 -0.5996  0.9058
   86MOL    H5747827   5.134   2.315   5.654  0.2968 -0.1851 -0.3901
   86MOL    O5847828   5.092   2.542   6.111 -0.1854 -0.3834  0.7008
   86MOL    C5947829   5.207   2.507   6.195 -0.1559  0.4359 -0.1341
   86MOL    C6047830   5.156   2.416   6.316 -0.4403 -0.0592  0.1270
   86MOL    O6147831   5.131   2.290   6.248 -0.0707  0.3296  0.1102
   86MOL    C6247832   5.259   2.391   6.429 -0.6799 -1.0803 -0.0386
   86MOL    C6347833   5.191   2.297   6.529  0.7611 -0.7927  0.2443
   86MOL    C6447834   5.279   2.258   6.655 -0.4780  0.0951  0.1122
   86MOL    O6547835   5.207   2.189   6.752  0.5849 -0.0680 -0.2378
   86MOL    C6647836   5.355   2.375   6.719 -0.1702  0.0294  0.3071
   86MOL    C6747837   5.467   2.313   6.811  0.3071  0.0865 -0.0077
   86MOL    C6847838   5.402   2.490   6.623  0.2898  0.0102  0.1031
   86MOL    C6947839   5.310   2.518   6.510  0.5510  0.3827 -1.4562
   86MOL    H7047840   5.243   2.606   6.222 -0.9588  0.5090  0.6909
   86MOL    H7147841   5.286   2.451   6.145 -0.0951  0.8666 -0.5244
   86MOL    H7247842   5.064   2.458   6.358 -0.0009 -0.3737  1.3979
   86MOL    H7347843   5.053   2.303   6.195  0.0016 -1.5436 -0.5053
   86MOL    H7447844   5.347   2.342   6.387 -1.3460 -1.6234 -0.8247
   86MOL    H7547845   5.097   2.339   6.565  1.5255 -0.8406  2.3833
   86MOL    H7647846   5.162   2.206   6.476  0.9767 -1.6435  1.5719
   86MOL    H7747847   5.358   2.202   6.606  0.9168  0.8612  1.4609
   86MOL    H7847848   5.222   2.100   6.725  0.0793  0.4423 -2.3369
   86MOL    H7947849   5.305   2.442   6.789  0.6768 -1.0438  1.9872
   86MOL    H8047850   5.416   2.239   6.872 -1.7176  1.6289  0.2488
   86MOL    H8147851   5.537   2.245   6.762 -0.8085 -1.9157  1.1302
   86MOL    H8247852   5.482   2.432   6.576  0.2481 -0.0375  0.0913
   86MOL    H8347853   5.433   2.583   6.670  0.1425  0.4797 -0.7112
   86MOL    H8447854   5.351   2.590   6.440 -0.1706  0.0121 -2.2682
   86MOL    H8547855   5.224   2.568   6.554  1.7595  1.6163 -0.4672
   86MOL    O8647856   5.535   2.416   6.882  0.2192  0.3307 -0.2657
   86MOL    C8747857   5.606   2.357   6.997 -0.6650 -1.2186  0.3994
   86MOL    C8847858   5.521   2.372   7.121  0.1482 -0.2970 -0.0227
   86MOL    O8947859   5.474   2.502   7.122  0.0501  0.1498 -0.6328
   86MOL    C9047860   5.421   2.264   7.162 -0.7612  0.2307 -0.8100
   86MOL    C9147861   5.330   2.302   7.281  1.2443  0.0651 -0.2611
   86MOL    C9247862   5.239   2.193   7.327 -0.0197  0.0190 -0.0535
   86MOL    O9347863   5.168   2.229   7.447 -0.5082 -0.5173 -0.1640
   86MOL    C9447864   5.310   2.063   7.356 -0.0565  0.3563  0.1745
   86MOL    C9547865   5.208   1.959   7.412 -0.0907  0.2684  0.1105
   86MOL    C9647866   5.386   2.022   7.229 -0.4836  0.0350 -0.2084
   86MOL    C9747867   5.492   2.126   7.180 -0.0996 -0.2471  0.2670
   86MOL    H9847868   5.701   2.408   7.010 -1.8654  1.5705 -1.3043
   86MOL    H9947869   5.651   2.259   6.979  2.1461  0.0771  0.1385
   86MOL   H10047870   5.582   2.361   7.210 -0.6699 -0.1734  0.5632
   86MOL   H10147871   5.445   2.518   7.034  0.2085 -1.7911 -1.0563
   86MOL   H10247872   5.354   2.261   7.076  1.7114 -1.2767 -2.7291
   86MOL   H10347873   5.391   2.319   7.370  0.6779  0.8006 -0.0061
   86MOL   H10447874   5.268   2.390   7.263  2.0220  0.5061 -0.8254
   86MOL   H10547875   5.163   2.168   7.252  1.0022  0.9755 -1.4416
   86MOL   H10647876   5.077   2.243   7.425 -0.9675 -0.7018  1.5387
   86MOL   H10747877   5.367   2.070   7.449 -1.1038 -1.5864  0.9744
   86MOL   H10847878   5.154   2.002   7.496  0.8751 -2.1281  1.9989
   86MOL   H10947879   5.127   1.938   7.342  1.3588 -0.1837 -1.4879
   86MOL   H11047880   5.310   2.006   7.152 -1.6031  1.6912  0.5190
   86MOL   H11147881   5.452   1.937   7.247 -0.4729  0.3623  1.4070
   86MOL   H11247882   5.535   2.098   7.084  1.1232  0.3342  0.6459
   86MOL   H11347883   5.580   2.124   7.243 -1.5340 -0.6855  2.3148
   86MOL   O11447884   5.283   1.843   7.447  0.5851 -0.4284 -0.2277
   86MOL   C11547885   5.218   1.752   7.522 -0.0085  0.1358  0.4371
   86MOL   C11647886   5.320   1.640   7.548  0.1397  0.1728  0.3055
   86MOL   O11747887   5.391   1.687   0.031 -0.3370 -0.3641  0.4515
   86MOL   C11847888   5.248   1.512   7.584 -0.7449 -0.0059 -0.1866
   86MOL   C11947889   5.162   1.511   0.085  0.6027 -0.2877  0.1728
   86MOL   C12047890   5.095   1.383   0.132 -0.3141 -0.1520  0.3076
   86MOL   O12147891   5.066   1.393   0.266 -0.4671 -0.6794  0.0960
   86MOL   C12247892   5.194   1.258   0.118  0.3406 -0.2751  0.7577
   86MOL   C12347893   5.106   1.130   0.096  0.0581  0.0337  0.6798
   86MOL   C12447894   5.288   1.267   7.621  0.0328 -0.3825  1.2314
   86MOL   C12547895   5.350   1.405   7.593  0.0326 -0.1386  0.2183
   86MOL   H12647896   5.133   1.711   7.469  0.8977 -1.3767  0.1209
   86MOL   H12747897   5.193   1.800   7.616  0.0606 -2.5408  1.8535
   86MOL   H12847898   5.383   1.626   7.460  0.2879  0.6815  0.3236
   86MOL   H12947899   5.461   1.741   7.629 -2.4046  2.5856  0.6498
   86MOL   H13047900   5.184   1.482   7.501 -1.2976  0.8288 -0.0667
   86MOL   H13147901   5.231   1.540   0.164 -2.0865  0.2324  2.3948
   86MOL   H13247902   5.098   1.598   0.075  1.5562  0.7160  2.3947
   86MOL   H13347903   5.001   1.374   0.077 -0.6422  3.1842  0.2420
   86MOL   H13447904   4.995   1.455   0.273  1.1448  1.2802 -0.3654
   86MOL   H13547905   5.255   1.254   0.208  0.4000  0.9339  0.7704
   86MOL   H13647906   5.171   1.043   0.098  1.9096  1.2958 -1.9573
   86MOL   H13747907   5.042   1.132   0.184 -1.4245  0.5189 -0.3820
   86MOL   H13847908   5.219   1.259   7.537 -0.3515  2.4164  1.2644
   86MOL   H13947909   5.366   1.191   7.620  0.7782  0.3856  0.8213
   86MOL   H14047910   5.414   1.399   7.505 -1.7619 -0.5077 -1.0953
   86MOL   H14147911   5.430   1.410   0.038 -1.3182  1.7571  1.5798
   86MOL   O14247912   5.019   1.145   7.617 -0.1923 -0.0456  0.1059
   86MOL   C14347913   4.922   1.048   7.621 -0.6804  0.0164  0.0860
   86MOL   C14447914   4.854   1.054   7.487 -0.1631 -0.2650 -0.9905
   86MOL   O14547915   4.919   0.964   7.401 -0.0772  0.0467  0.0037
   86MOL   C14647916   4.704   1.021   7.501 -0.3827  0.0987 -0.0443
   86MOL   C14747917   4.638   1.028   7.363 -0.0497  0.5912  0.4075
   86MOL   C14847918   4.486   1.007   7.362  0.8142  0.1891 -0.1766
   86MOL   O14947919   4.452   1.027   7.227  0.7813 -0.6304 -0.1757
   86MOL   C15047920   4.414   1.113   7.450  0.3851  0.0873 -0.1198
   86MOL   C15147921   4.267   1.110   7.447 -0.0675  0.4849 -0.7222
   86MOL   C15247922   4.475   1.094   7.588 -0.1064 -0.8545 -0.5346
   86MOL   C15347923   4.624   1.124   7.593  0.1005 -0.5495  0.3660
   86MOL   H15447924   4.854   1.071   0.074  1.4184  1.9049  1.3417
   86MOL   H15547925   4.957   0.947   0.009 -0.7389 -0.1325 -0.6603
   86MOL   H15647926   4.859   1.153   7.441  0.3214  0.3946  0.4508
   86MOL   H15747927   5.011   0.980   7.418  0.5333 -1.3281 -1.8784
   86MOL   H15847928   4.696   0.921   7.542 -1.1919  0.5769  0.9903
   86MOL   H15947929   4.660   1.124   7.316  1.7086  0.3525  0.7284
   86MOL   H16047930   4.677   0.950   7.298  0.2874 -0.0097  1.3281
   86MOL   H16147931   4.468   0.905   7.394 -0.2276  0.6171  0.6392
   86MOL   H16247932   4.493   1.108   7.197 -0.1116 -0.1579 -0.1223
   86MOL   H16347933   4.443   1.212   7.414  0.7847 -0.3914 -1.1087
   86MOL   H16447934   4.226   1.093   7.347 -1.3921 -2.0793  0.1983
   86MOL   H16547935   4.230   1.033   7.516  1.9806  0.4414  0.3414
   86MOL   H16647936   4.442   0.993   7.612  1.8427 -1.4048 -0.0966
   86MOL   H16747937   4.436   1.174   0.021  0.4617 -0.7385 -0.3328
   86MOL   H16847938   4.643   1.122   0.071 -0.3652  1.5511  0.5079
   86MOL   H16947939   4.652   1.221   7.552  0.4989 -0.6159  0.4804
   86MOL   O17047940   4.211   1.222   7.512 -0.4183 -0.1054 -0.0939
   86MOL   C17147941   4.137   1.303   7.423  0.5827  0.2444  0.4526
   86MOL   C17247942   4.066   1.417   7.493  0.3201 -0.3311  0.5914
   86MOL   O17347943   3.991   1.359   7.598  0.4440  0.2216  0.4182
   86MOL   C17447944   4.155   1.532   7.550  0.3062 -1.1146 -0.2959
   86MOL   C17547945   4.219   1.507   0.059 -0.3372  0.6069 -0.1625
   86MOL   C17647946   4.308   1.636   0.101  0.0277  0.3676 -1.1730
   86MOL   O17747947   4.376   1.611   0.220 -0.5919  0.7012 -0.5345
   86MOL   C17847948   4.209   1.760   0.115 -0.7248 -0.1037  1.1031
   86MOL   C17947949   4.277   1.896   0.150  0.9462  0.6181 -0.5177
   86MOL   C18047950   4.142   1.775   7.611  0.1633 -0.1452  0.1592
   86MOL   C18147951   4.061   1.654   7.574 -0.7878 -0.2772 -0.7373
   86MOL   H18247952   4.059   1.245   7.374  0.5908  0.1090  0.5989
   86MOL   H18347953   4.205   1.352   7.353  0.7832  1.0788  1.2285
   86MOL   H18447954   3.998   1.452   7.416 -0.3213 -3.6082 -0.4071
   86MOL   H18547955   4.047   1.290   7.629  0.9027  0.8657  1.0294
   86MOL   H18647956   4.234   1.565   7.482  1.4877  0.6299  1.8416
   86MOL   H18747957   4.140   1.482   0.131  2.1451  0.2532  2.5220
   86MOL   H18847958   4.279   1.417   0.051 -1.5933 -0.5334  2.5262
   86MOL   H18947959   4.390   1.661   0.034  3.0503  2.0112  2.9219
   86MOL   H19047960   4.392   1.699   0.251 -4.4177  1.1472  0.4212
   86MOL   H19147961   4.137   1.734   0.193 -2.0819  0.5716  0.1005
   86MOL   H19247962   4.319   1.954   0.067  0.8315  2.7512  0.8827
   86MOL   H19347963   4.201   1.961   0.194  0.3504  0.8413 -1.8312
   86MOL   H19447964   4.204   1.797   7.523  1.1335 -0.5506  0.7347
   86MOL   H19547965   4.079   1.864   7.620  0.2675 -0.1597  1.0193
   86MOL   H19647966   3.999   1.672   7.486 -0.4964 -0.8673 -1.0642
   86MOL   H19747967   3.986   1.634   0.020 -0.5957 -1.5932 -0.8838
   86MOL   O19847968   4.365   1.867   0.255 -0.2960  0.0052  0.3257
   86MOL   C19947969   4.427   1.991   0.306  0.3901 -0.7883 -0.0072
   86MOL   C20047970   4.492   1.979   0.447 -0.3545 -1.2305  0.0017
   86MOL   O20147971   4.399   1.911   0.526  0.0392 -0.1882 -1.1360
   86MOL   C20247972   4.630   1.905   0.450  0.6582 -0.7825 -0.2935
   86MOL   C20347973   4.629   1.770   0.372  0.0893  0.0372 -0.6537
   86MOL   C20447974   4.767   1.703   0.382 -0.4623 -0.3205  0.0590
   86MOL   O20547975   4.760   1.591   0.303 -0.4068  0.4705  1.1283
   86MOL   C20647976   4.801   1.667   0.530  0.6832 -0.0208 -0.9609
   86MOL   C20747977   4.945   1.613   0.542  0.3460  0.5828 -0.0198
   86MOL   C20847978   4.810   1.801   0.607  0.2637  0.0866  0.2734
   86MOL   C20947979   4.681   1.885   0.591 -0.4968  0.3697  0.3919
   86MOL   H21047980   4.365   2.079   0.324  2.9492  0.5073  3.0056
   86MOL   H21147981   4.510   2.015   0.240 -0.0787 -0.4893 -0.4912
   86MOL   H21247982   4.489   2.082   0.481  1.6753 -1.0265 -0.3989
   86MOL   H21347983   4.357   1.832   0.494 -0.9352 -0.5263  0.8872
   86MOL   H21447984   4.702   1.966   0.395 -1.3044  2.8156  0.9404
   86MOL   H21547985   4.554   1.710   0.424 -1.2637  2.7733  0.6185
   86MOL   H21647986   4.596   1.791   0.270 -2.4645  0.5404  0.2339
   86MOL   H21747987   4.837   1.778   0.345 -0.3376 -0.5535 -0.1793
   86MOL   H21847988   4.694   1.531   0.334 -1.0252  0.8421  0.5392
   86MOL   H21947989   4.729   1.599   0.574  0.1829  0.9693 -0.2492
   86MOL   H22047990   4.969   1.569   0.445 -4.9963 -0.8726 -0.8851
   86MOL   H22147991   5.018   1.692   0.559  1.2584 -0.0676 -0.8233
   86MOL   H22247992   4.897   1.862   0.580 -1.5782  2.6959  0.1118
   86MOL   H22347993   4.830   1.775   0.711  1.4180 -1.6409 -0.3505
   86MOL   H22447994   4.704   1.982   0.636 -0.4703 -0.5117  2.2873
   86MOL   H22547995   4.607   1.838   0.655 -0.6559  1.3064  0.9136
   86MOL   O22647996   4.953   1.515   0.646  0.0335  0.1185  0.0886
   86MOL   C22747997   5.082   1.458   0.654  0.5873 -0.1272 -0.2679
   86MOL   C22847998   5.071   1.348   0.757  0.3587 -0.5114  0.5491
   86MOL   O22947999   5.175   1.261   0.723  0.0513 -0.1339 -0.5773
   86MOL   C23048000   5.098   1.399   0.899 -0.4453  1.0942  0.0327
   86MOL   C23148001   5.149   1.288   1.001  0.3861  0.0040  1.3044
   86MOL   C23248002   5.179   1.360   1.132  0.0564  0.2573 -0.6826
   86MOL   O23348003   5.226   1.263   1.224 -0.1912  0.2521 -0.2601
   86MOL   C23448004   5.055   1.425   1.185 -0.3792  0.1468 -0.6986
   86MOL   C23548005   5.074   1.486   1.328 -0.8328 -0.1898 -0.1889
   86MOL   C23648006   4.997   1.531   1.094 -0.1738 -0.5197 -0.6329
   86MOL   C23748007   4.973   1.468   0.953  0.5289  0.0563  0.5939
   86MOL   H23848008   5.167   1.522   0.676  0.9390 -0.6709 -0.0121
   86MOL   H23948009   5.092   1.416   0.554  3.5383  0.7007 -0.3615
   86MOL   H24048010   4.976   1.297   0.739 -0.0317  1.5200 -4.0074
   86MOL   H24148011   5.255   1.308   0.740  0.3041 -1.5458  2.5242
   86MOL   H24248012   5.173   1.478   0.898 -0.7992  1.4224 -1.2664
   86MOL   H24348013   5.078   1.206   1.010  0.1263  0.1983  1.0605
   86MOL   H24448014   5.246   1.254   0.965 -0.8809 -1.3268 -1.0246
   86MOL   H24548015   5.256   1.434   1.113  0.3714 -0.0621 -0.6642
   86MOL   H24648016   5.310   1.234   1.190  0.1857  0.9784  0.0294
   86MOL   H24748017   4.985   1.343   1.202  0.2545  0.5500  4.6789
   86MOL   H24848018   5.117   1.411   1.395  0.8961  0.7489 -0.2110
   86MOL   H24948019   5.159   1.554   1.316  1.0778 -1.8643  2.9761
   86MOL   H25048020   5.064   1.617   1.090 -1.3181  0.8324  5.4618
   86MOL   H25148021   4.909   1.576   1.138 -1.2640 -2.2517 -0.9823
   86MOL   H25248022   4.933   1.542   0.883 -1.0769  0.0189  1.4544
   86MOL   H25348023   4.893   1.395   0.963 -1.3095  2.1218  1.2217
   86MOL   O25448024   4.956   1.551   1.373  0.1383  0.0188  0.5577
   86MOL   C25548025   4.877   1.462   1.451  0.4003 -0.3767 -0.2143
   86MOL   C25648026   4.734   1.521   1.485 -0.5356  0.2542  0.8847
   86MOL   O25748027   4.689   1.426   1.577 -0.1793 -0.2527  0.1387
   86MOL   C25848028   4.738   1.664   1.553  0.5627 -0.1164  0.0462
   86MOL   C25948029   4.806   1.664   1.695 -0.6083 -0.2005 -0.0405
   86MOL   C26048030   4.798   1.798   1.767  0.3309 -0.1404  0.2790
   86MOL   O26148031   4.849   1.806   1.900 -0.1381  0.6869 -0.0950
   86MOL   C26248032   4.648   1.849   1.773 -0.3477 -0.2152  0.3209
   86MOL   C26348033   4.635   1.981   1.846  0.4110  0.1265  0.2288
   86MOL   C26448034   4.596   1.858   1.630  0.8208 -0.9147 -0.2360
   86MOL   C26548035   4.592   1.722   1.565 -0.5967  0.3722 -0.7862
   86MOL   H26648036   4.930   1.447   1.545  2.7364  1.5085 -1.1872
   86MOL   H26748037   4.875   1.367   1.397  1.9911 -0.1600 -0.6843
   86MOL   H26848038   4.670   1.523   1.397  0.2383 -0.9606  0.2799
   86MOL   H26948039   4.673   1.347   1.528  0.2385  0.1340 -0.6374
   86MOL   H27048040   4.801   1.720   1.483  0.4252  0.0836  0.0835
   86MOL   H27148041   4.753   1.590   1.755  0.6202 -0.9078  0.1866
   86MOL   H27248042   4.908   1.626   1.702 -0.8989 -0.7602  1.4417
   86MOL   H27348043   4.855   1.861   1.700  0.6351  0.9174  1.5218
   86MOL   H27448044   4.865   1.898   1.918 -2.8881  1.5353 -1.6751
   86MOL   H27548045   4.582   1.778   1.822 -1.9068  0.4083 -0.8652
   86MOL   H27648046   4.532   2.012   1.833  0.2365 -0.2116  0.8128
   86MOL   H27748047   4.653   1.972   1.953  0.3115  0.8462  0.3061
   86MOL   H27848048   4.654   1.928   1.570 -2.4495  0.5116 -1.8875
   86MOL   H27948049   4.493   1.891   1.645  0.9534 -1.3581  1.7962
   86MOL   H28048050   4.539   1.719   1.470 -1.5000 -0.4462 -0.2700
   86MOL   H28148051   4.529   1.666   1.635  1.7765  0.8373  1.8172
   86MOL   O28248052   4.710   2.066   1.766 -1.0128 -0.7015  0.3389
   86MOL   C28348053   4.754   2.180   1.837  0.3631 -0.6718  0.2827
   86MOL   C28448054   4.899   2.175   1.886  0.5650  0.3581 -0.2440
   86MOL   O28548055   4.900   2.076   1.987  0.7058  0.0484  0.2824
   86MOL   C28648056   5.003   2.136   1.777  0.6804  0.6739  0.1116
   86MOL   C28748057   5.143   2.158   1.818 -0.6337 -0.1409 -0.6431
   86MOL   C28848058   5.257   2.132   1.712  0.3421 -0.5183 -0.8353
   86MOL   O28948059   5.380   2.189   1.764  0.0813 -0.6067 -0.3716
   86MOL   C29048060   5.223   2.203   1.579  0.1956 -0.3372 -0.1221
   86MOL   C29148061   5.331   2.172   1.472  0.2571 -0.7690  0.1536
   86MOL   C29248062   5.079   2.161   1.535  0.1288  0.4544  0.4387
   86MOL   C29348063   4.983   2.213   1.641 -0.5626  0.2229 -0.5256
   86MOL   H29448064   4.689   2.198   1.922  1.6799 -1.0389  1.3822
   86MOL   H29548065   4.742   2.279   1.792 -0.0062 -1.0667 -0.5068
   86MOL   H29648066   4.922   2.267   1.941 -0.9831 -0.2592  1.4848
   86MOL   H29748067   4.841   2.102   2.056  2.8012  0.7910  1.8416
   86MOL   H29848068   5.000   2.028   1.762 -0.5939  0.8862 -1.3054
   86MOL   H29948069   5.150   2.259   1.860  0.1992 -1.0671  1.5541
   86MOL   H30048070   5.157   2.096   1.906  2.2283  0.0544 -0.9211
   86MOL   H30148071   5.273   2.026   1.691 -2.2707 -1.0822 -0.1494
   86MOL   H30248072   5.369   2.283   1.769 -0.0036 -0.6170 -0.3672
   86MOL   H30348073   5.225   2.310   1.595  1.2704 -0.3708  0.0488
   86MOL   H30448074   5.417   2.230   1.505  1.2208 -1.1698 -1.6197
   86MOL   H30548075   5.350   2.065   1.478 -0.7510 -0.8815  1.6874
   86MOL   H30648076   5.073   2.053   1.524 -1.1090  0.3029  2.2876
   86MOL   H30748077   5.055   2.196   1.435  1.5614  2.1567  0.6632
   86MOL   H30848078   4.882   2.196   1.604 -0.3725  2.1367 -1.9626
   86MOL   H30948079   4.995   2.321   1.649 -0.5679  0.1232  0.9611
   86MOL   O31048080   5.287   2.216   1.346  0.6479  0.1887  0.2593
   86MOL   C31148081   5.405   2.224   1.266 -0.7728  1.2138  0.3901
   86MOL   C31248082   5.397   2.356   1.183  0.3302  0.0617  0.0363
   86MOL   O31348083   5.271   2.364   1.128  0.7579 -0.3660 -0.0773
   86MOL   C31448084   5.436   2.486   1.266 -0.0816 -0.1728  1.2302
   86MOL   C31548085   5.347   2.507   1.393 -0.5753  0.1720  0.4863
   86MOL   C31648086   5.377   2.638   1.473  0.2380  0.1916  0.5363
   86MOL   O31748087   5.269   2.653   1.565 -0.0296 -0.2418  0.1526
   86MOL   C31848088   5.372   2.755   1.379 -0.3662 -0.1011 -0.1873
   86MOL   C31948089   5.419   2.889   1.442 -0.2394  0.9965 -0.2318
   86MOL   C32048090   5.466   2.730   1.255  0.1075 -0.2745  0.9570
   86MOL   C32148091   5.435   2.598   1.174 -0.2872 -0.3902 -0.0719
   86MOL   H32248092   5.421   2.137   1.202 -2.5967  1.1305  0.0362
   86MOL   H32348093   5.496   2.224   1.326  0.5707  0.2244 -1.5987
   86MOL   H32448094   5.467   2.352   1.099 -1.8356  1.0173 -1.8583
   86MOL   H32548095   5.219   2.345   1.205 -0.2804  1.5266 -0.2841
   86MOL   H32648096   5.536   2.472   1.308  1.2004 -0.1091 -1.7298
   86MOL   H32748097   5.241   2.501   1.367 -0.3886 -1.0343 -0.0469
   86MOL   H32848098   5.361   2.427   1.467 -1.8770  0.4502  1.0530
   86MOL   H32948099   5.477   2.642   1.516  1.0446 -3.1981 -0.8760
   86MOL   H33048100   5.309   2.654   1.650  0.7362  0.1159 -0.2021
   86MOL   H33148101   5.267   2.769   1.352 -0.5128  0.2463  0.5651
   86MOL   H33248102   5.370   2.901   1.538  0.0906  1.7002 -0.1484
   86MOL   H33348103   5.525   2.880   1.467  0.1206  0.9285 -1.6882
   86MOL   H33448104   5.566   2.713   1.296  0.6525  0.3323 -0.1139
   86MOL   H33548105   5.465   2.820   1.194 -0.1330  0.7364  2.4439
   86MOL   H33648106   5.511   2.590   1.096  1.6698  2.1889  1.4719
   86MOL   H33748107   5.335   2.617   1.136  0.3540  3.9229  0.1844
   86MOL   O33848108   5.396   2.996   1.357 -0.0893 -0.4965 -0.1835
   86MOL   C33948109   5.435   3.119   1.404  0.0531  0.5994 -0.2926
   86MOL   C34048110   5.409   3.234   1.307  0.0733 -0.0515  0.1923
   86MOL   O34148111   5.280   3.283   1.321 -0.1419 -0.2767  0.3171
   86MOL   C34248112   5.518   3.344   1.313  0.3930 -0.1024  0.1912
   86MOL   C34348113   5.657   3.302   1.253 -0.0183 -0.3566 -1.0606
   86MOL   C34448114   5.751   3.415   1.248 -0.0269 -0.0065 -0.6155
   86MOL   O34548115   5.875   3.366   1.206  0.3617  0.2264 -0.0954
   86MOL   C34648116   5.779   3.484   1.388  0.4162  0.0359  0.8369
   86MOL   C34748117   5.879   3.598   1.402  0.2337  0.0439  0.0830
   86MOL   C34848118   5.636   3.519   1.452 -0.3694 -1.2072 -0.1813
   86MOL   C34948119   5.549   3.400   1.452  0.0545 -0.3775  0.1762
   86MOL   H35048120   5.539   3.111   1.436 -0.0182 -1.3200 -0.4823
   86MOL   H35148121   5.385   3.144   1.497  2.4996  0.7707  1.0074
   86MOL   H35248122   5.419   3.198   1.204  2.2169  2.4259 -0.5351
   86MOL   H35348123   5.218   3.220   1.287 -0.3384  0.5015 -0.7960
   86MOL   H35448124   5.483   3.430   1.256  0.9289  1.6481  2.4703
   86MOL   H35548125   5.705   3.224   1.312  1.3306  1.3557  0.1434
   86MOL   H35648126   5.646   3.259   1.153 -2.2442  0.1596 -1.0555
   86MOL   H35748127   5.714   3.492   1.180  0.7354 -0.6733 -1.8149
   86MOL   H35848128   5.939   3.418   1.251 -1.4215  0.4753  2.2472
   86MOL   H35948129   5.821   3.405   1.450  0.8065 -1.8159 -1.7063
   86MOL   H36048130   5.852   3.674   1.329 -2.9086  0.1261  1.2386
   86MOL   H36148131   5.876   3.642   1.502  3.1051 -0.4200  0.4271
   86MOL   H36248132   5.604   3.606   1.393 -1.2522 -1.1507  0.3825
   86MOL   H36348133   5.654   3.562   1.550 -0.7217 -2.9441  0.6581
   86MOL   H36448134   5.456   3.430   1.498 -0.0433  0.8818 -0.8201
   86MOL   H36548135   5.583   3.316   1.512 -0.3372 -1.0618 -0.5448
   86MOL   O36648136   6.008   3.537   1.374 -0.1599 -0.2704  0.0863
   86MOL   C36748137   6.120   3.624   1.379 -0.2089  0.2378 -0.0327
   86MOL   C36848138   6.156   3.685   1.241 -0.5948  0.6865 -0.4854
   86MOL   O36948139   6.200   3.815   1.260 -0.6333 -0.4178  0.1700
   86MOL   C37048140   6.256   3.602   1.150 -0.1780  0.1665  0.0635
   86MOL   C37148141   6.209   3.459   1.124  0.1284 -0.1789  0.5005
   86MOL   C37248142   6.295   3.394   1.021  0.2344  0.6365 -0.0637
   86MOL   O37348143   6.261   3.255   1.017  0.2901 -0.5485 -0.0620
   86MOL   C37448144   6.451   3.398   1.062  0.9456 -1.2747  0.8567
   86MOL   C37548145   6.529   3.351   0.937 -0.1505 -0.5642  0.6130
   86MOL   C37648146   6.502   3.535   1.107 -0.1211  0.5473 -0.1651
   86MOL   C37748147   6.402   3.601   1.205  0.0143 -0.9756 -0.5049
   86MOL   H37848148   6.201   3.557   1.408 -1.3215 -0.8297  0.6220
   86MOL   H37948149   6.099   3.701   1.454 -2.6136 -2.1861  1.8673
   86MOL   H38048150   6.062   3.690   1.186 -0.5384  1.1683 -0.5349
   86MOL   H38148151   6.129   3.874   1.280 -0.6974 -0.5784  0.4218
   86MOL   H38248152   6.266   3.640   1.048  1.9890 -1.8912 -0.5408
   86MOL   H38348153   6.219   3.406   1.218  1.7097  0.5303  0.7460
   86MOL   H38448154   6.105   3.454   1.093 -0.1448 -0.2864  1.4227
   86MOL   H38548155   6.286   3.439   0.922  0.6775  1.3719  0.2224
   86MOL   H38648156   6.168   3.250   0.997  0.3988  0.2328 -0.7929
   86MOL   H38748157   6.471   3.324   1.139 -0.4421 -1.2610  1.2340
   86MOL   H38848158   6.507   3.248   0.910  1.1696 -0.5822 -0.4252
   86MOL   H38948159   6.499   3.423   0.861 -3.8529  0.2308  2.6656
   86MOL   H39048160   6.502   3.584   1.009  0.7036  1.9452  0.5139
   86MOL   H39148161   6.607   3.527   1.135 -0.8887 -1.8504  2.1637
   86MOL   H39248162   6.429   3.703   1.232 -1.1643 -0.6938 -0.3667
   86MOL   H39348163   6.406   3.546   1.299  0.7131 -2.7311 -1.5294
   86MOL   O39448164   6.670   3.341   0.979 -0.3097  0.8549  0.0753
   86MOL   C39548165   6.750   3.335   0.863 -0.3551  0.2754 -0.2461
   86MOL   C39648166   6.892   3.358   0.910 -0.2040  0.5500 -0.4433
   86MOL   O39748167   6.922   3.237   0.986 -0.0914 -0.0319 -0.5214
   86MOL   C39848168   7.003   3.387   0.806 -0.1579 -0.5904  0.0564
   86MOL   C39948169   6.973   3.514   0.729  0.0890 -0.0356  0.5257
   86MOL   C40048170   7.098   3.542   0.633  0.5149  0.6274 -0.0835
   86MOL   O40148171   7.073   3.663   0.569 -0.1462 -0.1980 -0.5675
   86MOL   C40248172   7.127   3.430   0.530 -0.1159  0.1314  0.0302
   86MOL   C40348173   7.258   3.456   0.448 -0.3086 -0.2208  0.2511
   86MOL   C40448174   7.141   3.300   0.604 -0.1666 -0.4652 -0.3531
   86MOL   C40548175   7.017   3.274   0.694  0.6127 -0.0374  0.5317
   86MOL   H40648176   6.722   3.402   0.782 -0.7386  2.3225  1.5366
   86MOL   H40748177   6.732   3.239   0.814  0.8719  1.0107 -2.1906
   86MOL   H40848178   6.897   3.444   0.977  2.5787 -0.6445  0.9776
   86MOL   H40948179   6.841   3.197   1.016  0.8441 -1.4122  0.2109
   86MOL   H41048180   7.095   3.392   0.864  0.7307  1.1574 -1.4783
   86MOL   H41148181   6.881   3.512   0.670  1.0525 -0.2124 -1.0026
   86MOL   H41248182   6.968   3.598   0.797 -1.8230  0.4866 -0.2109
   86MOL   H41348183   7.194   3.550   0.683  0.4724  1.9233 -0.2022
   86MOL   H41448184   7.153   3.678   0.522  1.7784 -1.2848  2.2305
   86MOL   H41548185   7.033   3.433   0.475  0.2342  2.0219 -0.4952
   86MOL   H41648186   7.243   3.542   0.383 -1.0111 -0.0198  0.6798
   86MOL   H41748187   7.348   3.482   0.503  0.3704  0.5032 -1.1511
   86MOL   H41848188   7.222   3.307   0.676 -2.9119 -0.7932  2.8405
   86MOL   H41948189   7.154   3.220   0.531 -2.8836 -1.0207 -0.2704
   86MOL   H42048190   7.012   3.178   0.744  0.3833 -0.5846 -0.5318
   86MOL   H42148191   6.936   3.258   0.623  0.8309 -1.9301  0.6999
   86MOL   O42248192   7.289   3.351   0.362 -0.5868 -0.4609 -0.0992
   86MOL   C42348193   7.392   3.376   0.270  0.7318 -1.0454 -0.2882
   86MOL   C42448194   7.441   3.239   0.221  0.3270 -0.1192  1.0262
   86MOL   O42548195   7.515   3.256   0.102 -0.0798 -0.1173  0.7318
   86MOL   C42648196   7.537   3.167   0.312  0.8123  0.6714 -0.1425
   86MOL   C42748197   7.454   3.099   0.429  0.2596 -1.2301  0.7551
   86MOL   C42848198   7.535   2.997   0.515 -0.5061 -1.2305 -0.5002
   86MOL   O42948199   7.459   2.953   0.629  0.3482  0.3136 -0.3628
   86MOL   C43048200   0.036   3.063   0.562  0.1510  0.2899  0.6592
   86MOL   C43148201   0.131   2.972   0.637 -0.1126 -0.0531 -0.0476
   86MOL   C43248202   0.103   3.149   0.457 -0.9528  0.2488  0.5433
   86MOL   C43348203   0.013   3.244   0.378 -0.0337 -1.0863  0.6145
   86MOL   H43448204   7.469   3.437   0.318 -0.0725  0.2308 -0.6286
   86MOL   H43548205   7.345   3.422   0.184 -0.5635 -0.2708  0.8204
   86MOL   H43648206   7.354   3.182   0.191  0.1327  0.6581  0.0987
   86MOL   H43748207   7.553   3.174   0.075 -1.9632 -1.0104  0.7487
   86MOL   H43848208   7.590   3.088   0.258  0.3963  0.7231 -0.6186
   86MOL   H43948209   7.397   3.168   0.492  0.7426 -0.6280  0.5362
   86MOL   H44048210   7.375   3.038   0.386 -2.2596  1.1398  1.8101
   86MOL   H44148211   7.562   2.920   0.443  1.4714 -2.1021  1.1290
   86MOL   H44248212   7.375   2.942   0.588 -0.1294  1.6608  0.2215
   86MOL   H44348213   0.007   3.140   0.633 -1.3347  0.5746 -0.2385
   86MOL   H44448214   0.083   2.940   0.730 -0.2574 -2.6575 -0.9789
   86MOL   H44548215   0.134   2.878   0.582 -2.5453 -1.8981  2.8069
   86MOL   H44648216   0.154   3.084   0.386  1.8816  3.0679 -0.0968
   86MOL   H44748217   0.188   3.200   0.501 -0.9272 -1.4479  2.5545
   86MOL   H44848218   0.080   3.296   0.310 -1.3458  0.4332  0.4579
   86MOL   H44948219   7.612   3.327   0.442 -1.7360  0.5743 -2.2295
   86MOL   O45048220   0.259   3.024   0.662  0.0033 -0.2107 -0.3047
   86MOL   C45148221   0.277   3.128   0.759  0.4209 -0.5144 -0.3180
   86MOL   C45248222   0.418   3.180   0.750  0.3489 -0.5128  0.3424
   86MOL   O45348223   0.426   3.251   0.620 -0.2176 -0.5389 -0.0742
   86MOL   C45448224   0.453   3.278   0.864  0.0078  0.1242 -0.3412
   86MOL   C45548225   0.363   3.408   0.871  0.3993  1.0732  0.9428
   86MOL   C45648226   0.403   3.489   0.992 -0.1527  0.3059  0.6591
   86MOL   O45748227   0.308   3.597   1.009  0.1296 -0.0178  0.0189
   86MOL   C45848228   0.546   3.541   0.971 -0.2169  0.3894  0.4922
   86MOL   C45948229   0.599   3.633   1.085  0.6129 -0.0982 -0.2554
   86MOL   C46048230   0.640   3.425   0.958 -0.5670  0.1539  0.4930
   86MOL   C46148231   0.600   3.321   0.849  0.2482  0.2690  0.3719
   86MOL   H46248232   0.264   3.083   0.858 -0.2731  0.6951  0.1519
   86MOL   H46348233   0.203   3.206   0.741 -1.7974 -2.4228  0.3029
   86MOL   H46448234   0.473   3.086   0.742 -0.1854 -0.9397  1.7127
   86MOL   H46548235   0.410   3.190   0.550 -1.9814  0.9109 -0.9731
   86MOL   H46648236   0.437   3.217   0.953  3.0754 -2.4694 -1.4982
   86MOL   H46748237   0.372   3.472   0.783 -3.3665  1.2097  0.5793
   86MOL   H46848238   0.261   3.372   0.881  0.2511  2.0398  3.2878
   86MOL   H46948239   0.389   3.429   1.082  0.1611  1.5479  1.5615
   86MOL   H47048240   0.276   3.589   1.097 -1.1134 -3.6138 -0.6509
   86MOL   H47148241   0.545   3.600   0.879 -1.2581 -0.6328 -0.1688
   86MOL   H47248242   0.525   3.710   1.104  1.0686  0.3672 -0.3508
   86MOL   H47348243   0.607   3.574   1.176 -0.8624  0.0893 -0.0072
   86MOL   H47448244   0.643   3.360   1.045 -1.9826 -1.9211 -0.9282
   86MOL   H47548245   0.741   3.462   0.940 -0.0227 -1.1473  0.7828
   86MOL   H47648246   0.662   3.231   0.844  0.2956  0.2398  1.3996
   86MOL   H47748247   0.606   3.365   0.750 -1.0626 -0.4449 -0.0223
   86MOL   O47848248   0.714   3.694   1.027 -0.1126  0.4583  0.4104
   86MOL   C47948249   0.735   3.828   1.066 -0.2972 -0.1905  0.1161
   86MOL   C48048250   0.646   3.918   0.979  0.1716  0.3292  0.4221
   86MOL   O48148251   0.630   4.040   1.055  0.2371  0.2533  0.1703
   86MOL   C48248252   0.696   3.959   0.841  0.2066 -0.4970  0.0619
   86MOL   C48348253   0.580   4.016   0.759 -0.0567 -0.3829 -0.4580
   86MOL   C48448254   0.633   4.066   0.622  0.0575  0.2786  0.2776
   86MOL   O48548255   0.529   4.142   0.564  0.1826  0.1724  0.3928
   86MOL   C48648256   0.684   3.944   0.537 -0.0948 -0.2599 -0.1323
   86MOL   C48748257   0.720   3.984   0.388 -0.1039 -0.2370 -0.4846
   86MOL   C48848258   0.798   3.879   0.620  0.2946 -0.0591  0.4557
   86MOL   C48948259   0.749   3.832   0.760 -0.5913 -0.5628 -0.0916
   86MOL   H49048260   0.840   3.854   1.053 -0.3504  0.7930  1.6132
   86MOL   H49148261   0.706   3.839   1.170  1.2509 -0.6573  0.6076
   86MOL   H49248262   0.546   3.875   0.971  0.6918 -0.7383 -0.5045
   86MOL   H49348263   0.676   4.108   1.009  1.9467 -1.1159 -0.1957
   86MOL   H49448264   0.770   4.038   0.848  0.2363 -0.5349  0.1758
   86MOL   H49548265   0.503   3.940   0.744  1.5894 -2.0607 -0.7167
   86MOL   H49648266   0.546   4.099   0.820 -1.7735 -1.7420  0.4879
   86MOL   H49748267   0.717   4.133   0.638  1.5146 -0.7036 -2.7953
   86MOL   H49848268   0.566   4.213   0.513  2.5652 -0.5801  1.0094
   86MOL   H49948269   0.597   3.877   0.535 -0.5374  0.1740  2.3983
   86MOL   H50048270   0.774   3.899   0.344 -2.4568 -1.5738 -0.8613
   86MOL   H50148271   0.629   3.997   0.331  0.2304  0.2151 -0.9127
   86MOL   H50248272   0.891   3.932   0.637 -0.4798  1.3329  0.3724
   86MOL   H50348273   0.847   3.799   0.563  0.4682  0.4744 -0.1459
   86MOL   H50448274   0.835   3.789   0.812 -0.7477 -0.3109  0.3778
   86MOL   H50548275   0.672   3.755   0.755  0.8764 -1.8965 -5.1965
   86MOL   O50648276   0.799   4.104   0.384  0.0130  0.3051  0.0315
   86MOL   C50748277   0.872   4.116   0.261 -0.0906  0.1356  0.0635
   86MOL   C50848278   0.935   4.253   0.264 -0.0694 -0.0487 -0.0094
   86MOL   O50948279   0.836   4.346   0.273  0.3766  0.2478  0.5204
   86MOL   C51048280   1.044   4.276   0.368  0.1483  0.2206  0.7649
   86MOL   C51148281   0.988   4.320   0.500 -0.0081  0.0880  0.0140
   86MOL   C51248282   1.092   4.334   0.617  0.0449  0.0508 -0.2624
   86MOL   O51348283   1.030   4.389   0.731 -0.4954  0.2793  0.4360
   86MOL   C51448284   1.213   4.424   0.586  0.2737  0.1120  0.1526
   86MOL   C51548285   1.330   4.424   0.691 -0.2468  0.0467  0.1192
   86MOL   C51648286   1.261   4.390   0.435 -0.7074  0.1113 -0.1557
   86MOL   C51748287   1.147   4.377   0.326 -0.4645  0.1609  0.2161
   86MOL   H51848288   0.822   4.099   0.166  1.8477 -1.9292 -0.6330
   86MOL   H51948289   0.953   4.043   0.263 -0.6080 -0.4218  2.1349
   86MOL   H52048290   0.980   4.274   0.167 -0.3951 -2.1944 -0.6543
   86MOL   H52148291   0.767   4.301   0.320  0.2646 -0.3272 -0.1750
   86MOL   H52248292   1.103   4.184   0.373 -2.2099 -1.2370  2.9210
   86MOL   H52348293   0.945   4.420   0.497  0.2665  0.1799 -0.8528
   86MOL   H52448294   0.901   4.264   0.534  0.9618 -1.6966 -0.3548
   86MOL   H52548295   1.142   4.238   0.625 -0.8613 -0.3359  0.8542
   86MOL   H52648296   1.000   4.475   0.704 -0.8107 -0.2740 -1.0145
   86MOL   H52748297   1.183   4.528   0.583 -2.1663 -0.5961 -1.1263
   86MOL   H52848298   1.305   4.491   0.774 -0.9657 -0.6940  0.5112
   86MOL   H52948299   1.348   4.328   0.739  1.2451 -1.2378 -2.8810
   86MOL   H53048300   1.298   4.288   0.424 -1.3495 -0.1299 -0.1029
   86MOL   H53148301   1.328   4.471   0.407 -0.2605 -0.0638  0.4125
   86MOL   H53248302   1.198   4.347   0.234 -2.9255 -2.1916 -0.4783
   86MOL   H53348303   1.097   4.473   0.315  0.7186  0.8110  0.5611
   86MOL   O53448304   1.454   4.467   0.642  0.4386 -0.6229  0.0474
   86MOL   C53548305   1.561   4.470   0.737  0.3212  0.0679  0.3442
   86MOL   C53648306   1.700   4.481   0.667  1.0103  0.0053  0.3677
   86MOL   O53748307   1.748   4.358   0.613 -0.9143 -0.5421 -0.4425
   86MOL   C53848308   1.724   4.602   0.571  0.3169 -0.2213 -0.1382
   86MOL   C53948309   1.654   4.587   0.432  0.2900  0.1304 -0.6877
   86MOL   C54048310   1.683   4.705   0.344  0.2391 -0.2318  0.2665
   86MOL   O54148311   1.645   4.662   0.214  0.0095  0.0647 -0.5452
   86MOL   C54248312   1.838   4.728   0.325 -0.1021 -0.2739  0.0556
   86MOL   C54348313   1.875   4.843   0.235 -0.2478  0.1266  0.0832
   86MOL   C54448314   1.902   4.752   0.465 -0.8044 -0.0676 -0.3807
   86MOL   C54548315   1.874   4.630   0.557 -0.0998 -1.1057  0.4614
   86MOL   H54648316   1.560   4.375   0.790 -1.5032  1.0790  2.1982
   86MOL   H54748317   1.549   4.553   0.807 -0.7586  1.1727 -1.1106
   86MOL   H54848318   1.775   4.485   0.747 -0.4987  1.4793  1.7367
   86MOL   H54948319   1.710   4.280   0.650  1.0869 -1.2736  0.1080
   86MOL   H55048320   1.682   4.690   0.620 -1.6358 -1.6261  0.7634
   86MOL   H55148321   1.688   4.495   0.384 -0.3854  0.9592 -2.8616
   86MOL   H55248322   1.547   4.567   0.440  0.3508 -0.0867 -0.4175
   86MOL   H55348323   1.628   4.788   0.387  0.6225 -0.4854  1.2492
   86MOL   H55448324   1.553   4.640   0.210 -0.1182  0.0708  1.6898
   86MOL   H55548325   1.890   4.646   0.276  0.1373 -0.6445  0.9286
   86MOL   H55648326   1.979   4.848   0.204 -0.3314 -0.0387 -0.2212
   86MOL   H55748327   1.817   4.833   0.143 -1.4665  1.3170  0.7004
   86MOL   H55848328   1.860   4.833   0.524  0.5943  0.9141 -0.6947
   86MOL   H55948329   2.009   4.772   0.454 -1.0662  1.7878  0.2203
   86MOL   H56048330   1.912   4.655   0.656  0.1661  0.0365  0.0728
   86MOL   H56148331   1.932   4.545   0.521  1.0791 -1.0706  2.2000
   86MOL   H56248332   1.835   4.934   0.282 -0.0926  0.3984 -0.3070
   87MOL     O148333   4.329   7.048   6.033 -0.0478  0.3094  0.9289
   87MOL     C248334   4.292   6.959   5.926 -0.2639  0.1219  0.3194
   87MOL     C348335   4.236   6.833   5.996  0.1681  0.6195 -0.1980
   87MOL     O448336   4.143   6.881   6.087  0.4181 -0.7735 -0.4772
   87MOL     C548337   4.175   6.748   5.886  0.3714  0.1174 -0.6628
   87MOL     C648338   4.116   6.624   5.951  0.5570 -0.0120 -0.6225
   87MOL     C748339   4.038   6.535   5.861  0.2019 -0.0040  0.2112
   87MOL     O848340   3.979   6.433   5.928 -0.4415 -0.0820  0.0768
   87MOL     C948341   4.127   6.484   5.743  0.3147 -0.4629  0.0605
   87MOL    C1048342   4.066   6.404   5.629  0.0522 -0.6193  0.0389
   87MOL    C1148343   4.205   6.605   5.678 -0.6851 -0.1294  0.2206
   87MOL    C1248344   4.277   6.683   5.788  0.1734  0.1984  0.8224
   87MOL    H1348345   4.386   6.950   5.871  1.0500  0.8158  2.3841
   87MOL    H1448346   4.214   7.002   5.863  0.1754  0.4844  0.0170
   87MOL    H1548347   4.310   6.785   6.059  0.5947 -0.4292 -1.4800
   87MOL    H1648348   4.167   6.972   6.094 -1.6473 -0.2441  0.0186
   87MOL    H1748349   4.094   6.800   5.835  0.4674 -1.4034 -2.4158
   87MOL    H1848350   4.193   6.558   5.992  1.3026  0.5450 -1.1027
   87MOL    H1948351   4.052   6.651   6.034 -0.2444 -1.4532 -0.7556
   87MOL    H2048352   3.954   6.597   5.830 -0.1793 -1.5538 -2.0198
   87MOL    H2148353   3.886   6.446   5.913  0.2698  4.4862 -0.9531
   87MOL    H2248354   4.197   6.410   5.780  1.4457  0.7529  0.3820
   87MOL    H2348355   4.142   6.411   5.551 -1.3295 -0.1535 -1.2904
   87MOL    H2448356   4.051   6.302   5.666 -1.4588 -0.5040 -0.2085
   87MOL    H2548357   4.131   6.673   5.637 -0.1729  1.0486  1.2054
   87MOL    H2648358   4.277   6.587   5.597  2.8696 -0.6404  3.3424
   87MOL    H2748359   4.333   6.764   5.741  1.8511 -0.7254  1.2106
   87MOL    H2848360   4.348   6.618   5.838 -1.2072 -0.9065  1.3815
   87MOL    H2948361   4.370   7.123   5.994 -0.6327  0.0394 -0.2302
   87MOL    O3048362   3.949   6.468   5.571 -0.2898 -0.3205  0.2967
   87MOL    C3148363   3.827   6.395   5.589 -0.5867 -0.0267 -0.1188
   87MOL    C3248364   3.727   6.482   5.505 -0.0745 -0.6550  0.1262
   87MOL    O3348365   3.751   6.451   5.375 -0.4656  0.0670  0.3520
   87MOL    C3448366   3.585   6.462   5.547 -0.1634 -0.0947 -0.4543
   87MOL    C3548367   3.531   6.321   5.522 -0.9574  0.6839 -0.0624
   87MOL    C3648368   3.392   6.300   5.577  0.2769 -0.7630 -0.1275
   87MOL    O3748369   3.348   6.169   5.554  0.2948  0.0828  0.0880
   87MOL    C3848370   3.300   6.408   5.506 -0.1321 -0.2109  0.9558
   87MOL    C3948371   3.147   6.384   5.518  0.0916  0.3608  0.5815
   87MOL    C4048372   3.352   6.544   5.553 -0.0010 -0.3646  0.2637
   87MOL    C4148373   3.488   6.567   5.490  0.6648 -0.0126 -0.0239
   87MOL    H4248374   3.805   6.388   5.695 -1.2082  4.1334  0.0946
   87MOL    H4348375   3.838   6.296   5.544  0.4813 -0.1363  0.3534
   87MOL    H4448376   3.750   6.587   5.520 -2.8063  0.0850 -0.6030
   87MOL    H4548377   3.840   6.475   5.353  0.1975 -2.5432 -0.0555
   87MOL    H4648378   3.582   6.481   5.655 -1.8514  0.9070 -0.6648
   87MOL    H4748379   3.515   6.310   5.414 -1.7741  0.6155  0.0585
   87MOL    H4848380   3.583   6.238   5.569  1.4260  2.1279 -0.0944
   87MOL    H4948381   3.385   6.319   5.684 -1.4818 -1.2483 -0.1375
   87MOL    H5048382   3.366   6.128   5.638 -3.2892 -1.2275  0.2845
   87MOL    H5148383   3.311   6.414   5.398 -3.0038  1.0273  0.6902
   87MOL    H5248384   3.083   6.434   5.445 -0.7103 -3.0399 -1.1886
   87MOL    H5348385   3.124   6.279   5.496  0.7245  0.6616 -1.6197
   87MOL    H5448386   3.351   6.556   5.662 -0.8741 -0.0093  0.2266
   87MOL    H5548387   3.296   6.628   5.511  0.7622 -1.0456 -2.1581
   87MOL    H5648388   3.530   6.661   5.526 -0.2827  1.4943 -2.7405
   87MOL    H5748389   3.489   6.560   5.381  0.0794 -0.9595  0.0264
   87MOL    O5848390   3.109   6.397   5.652  0.3637 -0.0440 -0.3279
   87MOL    C5948391   2.989   6.340   5.702  0.0640  0.2265 -0.6003
   87MOL    C6048392   2.880   6.435   5.640  0.3428  1.1416  0.1551
   87MOL    O6148393   2.770   6.353   5.625 -0.2771  0.1695  0.2626
   87MOL    C6248394   2.846   6.550   5.734 -0.0005  0.4703 -0.0600
   87MOL    C6348395   2.723   6.632   5.675  0.3032 -0.1323 -0.0724
   87MOL    C6448396   2.673   6.737   5.775  0.6273  0.5882  0.1553
   87MOL    O6548397   2.563   6.806   5.718 -0.8438  0.4867 -0.5179
   87MOL    C6648398   2.792   6.831   5.800 -0.1013 -0.0403  0.1250
   87MOL    C6748399   2.745   6.946   5.881  0.6800 -0.3595 -0.5417
   87MOL    C6848400   2.917   6.757   5.867  0.2750  0.9254  0.2156
   87MOL    C6948401   2.968   6.647   5.769 -0.4877  0.1447  0.1211
   87MOL    H7048402   2.983   6.345   5.811  0.1460 -2.5152 -0.4252
   87MOL    H7148403   2.979   6.233   5.683 -1.6069  0.2704  0.0141
   87MOL    H7248404   2.895   6.470   5.538  0.6898  0.4899 -0.0202
   87MOL    H7348405   2.791   6.271   5.583 -0.5210  0.4936 -0.4933
   87MOL    H7448406   2.811   6.511   5.829 -0.4221 -0.0066 -0.4087
   87MOL    H7548407   2.759   6.689   5.589  0.9804  2.7903  2.0778
   87MOL    H7648408   2.640   6.566   5.652  0.3855 -0.6686  1.1500
   87MOL    H7748409   2.645   6.690   5.869  0.9360 -1.7919 -0.9126
   87MOL    H7848410   2.599   6.858   5.648  2.8989 -2.3851 -0.9025
   87MOL    H7948411   2.828   6.871   5.705  0.2506 -0.9497 -0.1294
   87MOL    H8048412   2.667   6.997   5.823 -0.8911 -0.5050  1.3804
   87MOL    H8148413   2.708   6.908   5.976  0.6180  0.5958 -0.1744
   87MOL    H8248414   2.883   6.713   5.960  0.0360 -0.3890 -0.4800
   87MOL    H8348415   2.992   6.830   5.895  2.0632 -0.4723 -0.7984
   87MOL    H8448416   3.047   6.597   5.825 -0.6385  1.5364  1.6178
   87MOL    H8548417   3.012   6.680   5.675 -0.1217  1.9588  0.8992
   87MOL    O8648418   2.844   7.043   5.881 -0.4842  0.0507  0.2598
   87MOL    C8748419   2.867   7.109   6.001  0.0274  0.1872 -0.6409
   87MOL    C8848420   2.771   7.223   6.034 -0.0078 -0.8837  0.2248
   87MOL    O8948421   2.769   7.251   6.172  0.1612 -0.1192 -0.5030
   87MOL    C9048422   2.812   7.356   5.968 -0.6268  0.5273 -0.1902
   87MOL    C9148423   2.749   7.487   6.023  0.4687 -0.4481  1.0251
   87MOL    C9248424   2.789   7.609   5.936  0.2980 -0.0293 -0.6332
   87MOL    O9348425   2.736   0.096   5.981 -0.4860  0.0051  0.6390
   87MOL    C9448426   2.744   7.593   5.784  0.0283 -0.3933  0.2503
   87MOL    C9548427   2.758   0.096   5.703 -0.3306 -0.0041 -0.2932
   87MOL    C9648428   2.828   7.479   5.729  0.6000  0.1505 -0.8183
   87MOL    C9748429   2.795   7.352   5.814  0.0473  0.3023  0.3307
   87MOL    H9848430   2.967   7.150   5.994  0.3040 -0.5877 -1.3427
   87MOL    H9948431   2.875   7.041   6.086 -0.0310  1.6702  0.5687
   87MOL   H10048432   2.664   7.204   6.023 -0.6823  1.9014  1.5296
   87MOL   H10148433   2.859   7.277   6.187  0.6061 -0.1538 -2.9874
   87MOL   H10248434   2.921   7.360   5.973 -0.7334  1.3019  1.9330
   87MOL   H10348435   2.640   7.482   6.024  0.3031  1.1405 -1.9894
   87MOL   H10448436   2.797   7.497   6.120  2.2797  1.8044 -0.0596
   87MOL   H10548437   2.895   0.001   5.952 -0.2689  1.4076  1.4165
   87MOL   H10648438   2.788   0.132   6.051  2.4329 -2.5975 -0.0642
   87MOL   H10748439   2.637   7.577   5.779  0.1583 -0.6003 -2.7188
   87MOL   H10848440   2.714   0.180   5.756  2.3738  0.9755  0.4570
   87MOL   H10948441   2.865   0.108   5.690 -0.4712  2.2810  0.5574
   87MOL   H11048442   2.936   7.491   5.723  1.1007 -3.2570 -0.0642
   87MOL   H11148443   2.808   7.468   5.622 -0.3328 -0.2202 -0.6081
   87MOL   H11248444   2.855   7.267   5.780 -1.3697  0.0519 -1.6431
   87MOL   H11348445   2.691   7.328   5.790  0.7513 -1.1724 -1.4309
   87MOL   O11448446   2.699   0.083   5.568 -0.2729 -0.0188  0.0785
   87MOL   C11548447   2.555   0.113   5.570  0.8972 -0.5168  0.3144
   87MOL   C11648448   2.499   0.080   5.427  0.9400 -0.4240 -0.5098
   87MOL   O11748449   2.510   7.576   5.424 -0.0196 -0.1460 -0.4004
   87MOL   C11848450   2.351   0.121   5.396 -0.0011  0.6312 -0.9470
   87MOL   C11948451   2.334   0.273   5.407 -0.0307  0.2582 -0.4982
   87MOL   C12048452   2.191   0.316   5.372 -0.0118 -0.1570  0.0769
   87MOL   O12148453   2.178   0.448   5.401 -0.0244 -0.2877 -0.3446
   87MOL   C12248454   2.088   0.243   5.462  0.2258  0.1491 -0.0654
   87MOL   C12348455   1.942   0.287   5.446 -0.7573  0.9197 -0.2546
   87MOL   C12448456   2.108   0.090   5.474  0.0860 -0.6753 -0.2419
   87MOL   C12548457   2.256   0.045   5.494  0.1365  1.2526 -0.5345
   87MOL   H12648458   2.558   0.218   5.598 -0.0810 -0.5888  0.6786
   87MOL   H12748459   2.509   0.054   5.649  0.1824 -0.5142 -0.0994
   87MOL   H12848460   2.563   0.130   5.354  1.4116  2.3680  1.7225
   87MOL   H12948461   2.596   7.557   5.456 -0.1831  1.9971  1.3529
   87MOL   H13048462   2.328   0.094   5.293 -0.5467  0.1302 -0.6923
   87MOL   H13148463   2.364   0.309   5.506  1.3137  1.6826 -1.3999
   87MOL   H13248464   2.400   0.337   5.348  0.6819  1.7363  1.8319
   87MOL   H13348465   2.184   0.297   5.265 -0.0880 -2.2693  0.4364
   87MOL   H13448466   2.185   0.452   5.495  2.6583  0.7194 -0.5205
   87MOL   H13548467   2.109   0.265   5.567  0.5962  1.8313 -0.4780
   87MOL   H13648468   1.946   0.396   5.441  1.0457  1.0342  2.3117
   87MOL   H13748469   1.907   0.251   5.350  0.0814 -0.2915 -0.1202
   87MOL   H13848470   2.076   0.032   5.387 -0.5475 -1.8851  0.7918
   87MOL   H13948471   2.044   0.055   5.555  1.0515  1.4983  1.5266
   87MOL   H14048472   2.261   7.566   5.486  0.9337  1.3149 -0.8869
   87MOL   H14148473   2.293   0.064   5.595  2.5660  2.6491 -1.6531
   87MOL   O14248474   1.863   0.230   5.552 -0.0533 -0.0432 -0.1567
   87MOL   C14348475   1.737   0.285   5.562  0.2416  0.3872 -0.1655
   87MOL   C14448476   1.627   0.222   5.477 -0.4200  0.5473  0.2923
   87MOL   O14548477   1.596   0.095   5.530  0.2641  0.5719 -0.1373
   87MOL   C14648478   1.493   0.304   5.462  0.7880  0.3473  0.3938
   87MOL   C14748479   1.496   0.435   5.378  0.2011 -0.6901 -0.0616
   87MOL   C14848480   1.360   0.498   5.349 -0.0304 -0.4872 -0.1597
   87MOL   O14948481   1.380   0.627   5.303 -0.5269  0.1659  0.2144
   87MOL   C15048482   1.262   0.493   5.468 -0.0722 -0.3591  0.4537
   87MOL   C15148483   1.112   0.511   5.421  0.0927 -0.5763  0.2962
   87MOL   C15248484   1.268   0.365   5.557  0.0908 -0.0900 -0.3182
   87MOL   C15348485   1.408   0.320   5.591  0.7683  0.8419  0.1273
   87MOL   H15448486   1.738   0.390   5.532  2.6991  0.7344  1.0209
   87MOL   H15548487   1.708   0.276   5.666 -1.6099 -1.0246 -0.7820
   87MOL   H15648488   1.675   0.216   5.379  0.3964  1.7424  0.6190
   87MOL   H15748489   1.677   0.056   5.558  0.4806  0.7404 -0.5305
   87MOL   H15848490   1.454   0.235   5.387 -2.1639  2.2333  0.1309
   87MOL   H15948491   1.553   0.508   5.435  0.3254 -1.4409  0.7824
   87MOL   H16048492   1.559   0.427   5.289 -0.3306  2.3993 -0.7846
   87MOL   H16148493   1.327   0.439   5.264 -0.9372 -0.9713  0.5129
   87MOL   H16248494   1.417   0.624   5.216  0.2299 -0.0834  0.5361
   87MOL   H16348495   1.289   0.581   5.527  0.0815 -0.4535  0.5244
   87MOL   H16448496   1.053   0.523   5.512 -1.8181  0.1315 -0.9983
   87MOL   H16548497   1.093   0.598   5.358  1.0880 -1.4687 -1.2795
   87MOL   H16648498   1.205   0.289   5.511  1.2506 -0.2980 -1.5676
   87MOL   H16748499   1.212   0.382   5.649 -0.8492 -2.5245 -0.4038
   87MOL   H16848500   1.397   0.239   5.662 -0.2522  1.0512  0.2204
   87MOL   H16948501   1.455   0.392   5.657  1.3524 -0.9293  1.6723
   87MOL   O17048502   1.080   0.396   5.353 -0.2047  0.5196 -0.0445
   87MOL   C17148503   0.942   0.382   5.340  0.5456  0.1156  0.1445
   87MOL   C17248504   0.920   0.240   5.290  0.4751 -0.6774 -0.4181
   87MOL   O17348505   0.961   0.153   5.394 -0.1218 -0.0046 -0.4064
   87MOL   C17448506   0.778   0.216   5.254  0.6735 -0.4389  0.5243
   87MOL   C17548507   0.738   0.291   5.121  0.4400  0.4871 -0.3574
   87MOL   C17648508   0.587   0.281   5.078  0.1645 -0.3795  0.0099
   87MOL   O17748509   0.554   0.386   4.981 -0.1556 -0.2507  0.5483
   87MOL   C17848510   0.493   0.316   5.198  0.1694 -0.5161  0.3019
   87MOL   C17948511   0.341   0.321   5.182 -0.1311 -0.1609  0.0291
   87MOL   C18048512   0.527   0.226   5.319  0.2082  0.6883  0.1547
   87MOL   C18148513   0.673   0.241   5.366  0.0657 -0.5724  0.1138
   87MOL   H18248514   0.896   0.457   5.276  0.6469 -1.4721 -1.8227
   87MOL   H18348515   0.892   0.383   5.437 -1.9047  1.0672 -1.1042
   87MOL   H18448516   0.990   0.216   5.210  0.1049  0.5202 -1.1123
   87MOL   H18548517   0.948   0.203   5.473 -1.5889 -0.0147 -0.6212
   87MOL   H18648518   0.772   0.112   5.222 -1.7713  0.1725 -1.1349
   87MOL   H18748519   0.752   0.399   5.131  1.2272  0.3489  0.1381
   87MOL   H18848520   0.802   0.258   5.039  0.0235  1.1607 -0.9669
   87MOL   H18948521   0.558   0.184   5.036 -0.5212  0.7256 -2.1530
   87MOL   H19048522   0.521   0.346   4.902  2.4624  0.6386 -1.0421
   87MOL   H19148523   0.519   0.418   5.226 -1.5151 -0.0237  0.1347
   87MOL   H19248524   0.300   0.391   5.254  0.0357 -0.6399  0.5907
   87MOL   H19348525   0.317   0.368   5.087  0.2339 -0.1097 -0.0365
   87MOL   H19448526   0.505   0.125   5.284 -0.3457  0.6952  0.4711
   87MOL   H19548527   0.452   0.247   5.395  1.4005 -0.0471  1.5660
   87MOL   H19648528   0.686   0.185   5.458  0.4769  1.2967  1.2087
   87MOL   H19748529   0.695   0.344   5.394  1.6128 -0.9769  0.4065
   87MOL   O19848530   0.278   0.185   5.184  0.6683 -0.4403  0.4381
   87MOL   C19948531   0.203   0.157   5.302 -0.0245  0.5625  0.1967
   87MOL   C20048532   0.129   0.025   5.274  0.4744  0.6270 -0.8931
   87MOL   O20148533   0.225   7.565   5.231 -0.4006 -0.1812  0.6178
   87MOL   C20248534   0.039   7.599   5.383  0.0302  0.1409  0.2888
   87MOL   C20348535   0.110   7.591   5.516  0.0170 -0.1127 -0.3993
   87MOL   C20448536   0.016   7.535   5.623  0.3010  0.5419 -0.7202
   87MOL   O20548537   0.086   7.531   5.745  0.1142  0.4786  0.0014
   87MOL   C20648538   7.621   7.389   5.588  0.7458 -0.6659 -0.9775
   87MOL   C20748539   7.536   7.314   5.694  0.1468 -0.3166  0.9661
   87MOL   C20848540   7.538   7.391   5.462 -0.6198 -0.3154  0.4233
   87MOL   C20948541   7.616   7.454   5.343 -0.7021  0.0699  0.0484
   87MOL   H21048542   0.124   0.230   5.323 -1.0758 -0.5555  0.1721
   87MOL   H21148543   0.280   0.140   5.377  0.1793  0.5663 -0.0123
   87MOL   H21248544   0.069   0.034   5.184  0.3460  1.8285 -0.6947
   87MOL   H21348545   0.292   7.620   5.195 -0.1020 -0.6078  0.5194
   87MOL   H21448546   7.592   0.047   5.379 -0.6347 -0.5273  0.1299
   87MOL   H21548547   0.202   7.534   5.511 -0.7754 -1.7331  2.4285
   87MOL   H21648548   0.140   0.062   5.547 -0.6344 -0.0446  0.0408
   87MOL   H21748549   7.553   7.593   5.631 -0.9968 -1.7075  1.2290
   87MOL   H21848550   0.154   7.597   5.753  2.2724 -1.7970  1.0569
   87MOL   H21948551   0.089   7.339   5.581  0.5491 -0.8910 -2.3436
   87MOL   H22048552   7.573   7.323   5.796 -0.0966  2.3691  0.8629
   87MOL   H22148553   7.433   7.351   5.700  0.6600  1.4111 -0.3533
   87MOL   H22248554   7.451   7.451   5.488  1.0685  1.4168  2.3215
   87MOL   H22348555   7.504   7.291   5.437  1.0114 -0.0856 -3.0712
   87MOL   H22448556   7.551   7.438   5.257  0.5412 -0.5821 -0.7715
   87MOL   H22548557   0.071   7.386   5.332  1.0385  1.3205  4.3935
   87MOL   O22648558   7.532   7.176   5.658  0.3829  0.3737 -0.6301
   87MOL   C22748559   0.018   7.100   5.700  0.8483 -0.1514  0.0331
   87MOL   C22848560   0.032   6.975   5.614 -0.0152 -0.1682  0.0967
   87MOL   O22948561   7.559   6.887   5.657  0.0132  0.7657  0.3257
   87MOL   C23048562   0.024   7.005   5.463  0.1764  0.1329  0.0640
   87MOL   C23148563   7.626   6.881   5.381 -0.2912  0.3042  0.3357
   87MOL   C23248564   7.627   6.898   5.229 -0.4166 -0.9806  0.5903
   87MOL   O23348565   7.595   6.778   5.168 -0.2966  0.1332  0.5538
   87MOL   C23448566   0.127   6.960   5.174  0.1028 -0.4878 -0.6442
   87MOL   C23548567   0.125   6.971   5.028 -0.1290  0.3812  0.1897
   87MOL   C23648568   0.135   7.098   5.243  0.4974  0.6416 -0.7384
   87MOL   C23748569   0.150   7.074   5.399 -0.2650 -0.4915  0.5222
   87MOL   H23848570   0.002   7.069   5.803  2.2871 -2.2625 -0.3446
   87MOL   H23948571   0.106   7.164   5.701  1.4539 -0.9868  2.0128
   87MOL   H24048572   0.130   6.935   5.638  0.4349  2.8369  3.7781
   87MOL   H24148573   7.483   6.939   5.678 -1.0469 -0.5004 -0.3263
   87MOL   H24248574   7.565   7.064   5.439  1.1480  0.4243 -3.1059
   87MOL   H24348575   0.069   6.802   5.399  0.9912  1.1801 -0.8502
   87MOL   H24448576   7.532   6.836   5.413 -0.8652  2.2161  1.4273
   87MOL   H24548577   7.544   6.964   5.202  0.2346 -0.3851  0.0058
   87MOL   H24648578   7.542   6.799   5.092  0.1909 -1.0919 -0.1306
   87MOL   H24748579   0.207   6.897   5.211  0.5709  0.3215 -0.2596
   87MOL   H24848580   0.097   6.876   4.982 -3.9187  1.5944 -0.1637
   87MOL   H24948581   0.037   7.031   5.005 -1.0345 -1.0928 -0.2189
   87MOL   H25048582   0.052   7.166   5.225 -0.2168 -0.2594 -0.8564
   87MOL   H25148583   0.224   7.142   5.197  0.2319  0.2823 -1.6079
   87MOL   H25248584   0.163   7.170   5.448 -2.3250 -0.9197  1.9986
   87MOL   H25348585   0.234   7.012   5.427  3.0467  3.4682 -0.2103
   87MOL   O25448586   0.234   7.036   4.975 -0.0929 -0.1982  0.1046
   87MOL   C25548587   0.352   6.955   4.970  0.0915  0.2740 -0.3211
   87MOL   C25648588   0.453   7.051   4.900  0.0328 -0.5615 -0.2823
   87MOL   O25748589   0.465   7.143   5.010  0.2679  0.3735  0.2686
   87MOL   C25848590   0.596   6.991   4.881  0.6598 -0.5288  0.0499
   87MOL   C25948591   0.708   7.094   4.864  0.1319 -0.0198  1.3588
   87MOL   C26048592   0.840   7.016   4.833  0.0495  0.3303 -0.8205
   87MOL   O26148593   0.937   7.112   4.814 -0.2496 -0.3457  1.1799
   87MOL   C26248594   0.822   6.916   4.713  0.1081 -0.1300  0.7284
   87MOL   C26348595   0.953   6.842   4.686 -0.0158 -0.1829 -0.2620
   87MOL   C26448596   0.714   6.817   4.741 -0.5082 -0.0933  0.5646
   87MOL   C26548597   0.579   6.888   4.762  0.4645 -0.2255 -0.5175
   87MOL   H26648598   0.333   6.867   4.907  0.4820  1.0790 -1.5942
   87MOL   H26748599   0.379   6.931   5.072 -2.2390  0.0169  0.2689
   87MOL   H26848600   0.408   7.096   4.811  2.1266 -0.9492 -1.5592
   87MOL   H26948601   0.375   7.164   5.028  0.1980  3.4030 -3.1354
   87MOL   H27048602   0.616   6.938   4.974  1.7787  0.7325  0.5436
   87MOL   H27148603   0.697   7.166   4.782  1.2549 -1.1878  0.1487
   87MOL   H27248604   0.721   7.140   4.962  1.1930  2.0878  0.2687
   87MOL   H27348605   0.853   6.961   4.926 -0.4509  1.2301 -0.2109
   87MOL   H27448606   0.996   7.104   4.888 -1.2470  2.0623  2.3052
   87MOL   H27548607   0.788   6.972   4.625 -1.8298  0.3456  1.7380
   87MOL   H27648608   0.957   6.795   4.588 -0.3783 -0.3697 -0.1867
   87MOL   H27748609   1.025   6.922   4.668 -2.1178  1.9773  0.6098
   87MOL   H27848610   0.740   6.767   4.835  1.8617  2.4851  1.3454
   87MOL   H27948611   0.712   6.739   4.665  2.6505  0.1810  0.1430
   87MOL   H28048612   0.505   6.811   4.782  0.9768 -0.2489  1.4799
   87MOL   H28148613   0.546   6.946   4.677 -0.5372  0.2727  0.2080
   87MOL   O28248614   0.980   6.747   4.784  0.0580 -0.3523  0.6200
   87MOL   C28348615   1.112   6.693   4.780  0.4514  0.3886 -0.1284
   87MOL   C28448616   1.151   6.631   4.919 -0.2435  0.2929 -0.2395
   87MOL   O28548617   1.198   6.499   4.905 -0.1049 -0.7694 -0.1601
   87MOL   C28648618   1.264   6.715   4.987 -0.1063 -0.0605  0.2596
   87MOL   C28748619   1.330   6.659   5.118  0.9843  0.2184 -0.1330
   87MOL   C28848620   1.448   6.748   5.168  0.0277 -0.1335  0.4125
   87MOL   O28948621   1.493   6.711   5.299 -0.1373  0.0951  0.1420
   87MOL   C29048622   1.419   6.898   5.174  0.2631  0.4907  0.0263
   87MOL   C29148623   1.543   6.989   5.203 -0.3301 -0.3106 -0.6370
   87MOL   C29248624   1.338   6.953   5.054  0.3226 -0.3768  0.5071
   87MOL   C29348625   1.217   6.862   5.028  0.1863 -0.3606  0.3825
   87MOL   H29448626   1.190   6.761   4.743 -0.4277  0.2246 -2.3530
   87MOL   H29548627   1.113   6.621   4.699  0.4562 -0.5181  0.6737
   87MOL   H29648628   1.063   6.637   4.983 -0.0238 -0.7912  0.1757
   87MOL   H29748629   1.281   6.510   4.861  0.1669  1.0672  0.8009
   87MOL   H29848630   1.348   6.721   4.917 -1.0539 -1.5655 -1.0572
   87MOL   H29948631   1.246   6.657   5.188  1.2230  1.4696  0.2056
   87MOL   H30048632   1.368   6.559   5.098  0.9574  0.4332 -1.3055
   87MOL   H30148633   1.535   6.731   5.105 -1.7862  0.2193 -2.2583
   87MOL   H30248634   1.546   6.782   5.334 -0.4379 -0.8610  2.6239
   87MOL   H30348635   1.357   6.909   5.264 -0.6695  2.0842 -0.7872
   87MOL   H30448636   1.615   6.986   5.121  2.2332  0.2820  1.5294
   87MOL   H30548637   1.507   7.091   5.214  1.2740  0.3628 -1.4878
   87MOL   H30648638   1.400   6.955   4.964 -0.8133 -1.2834 -0.3098
   87MOL   H30748639   1.297   7.053   5.069  0.0980 -0.6913  2.0331
   87MOL   H30848640   1.160   6.908   4.947  3.2666 -0.4396 -1.9258
   87MOL   H30948641   1.143   6.862   5.108 -0.2224 -2.2725  0.0323
   87MOL   O31048642   1.591   6.961   5.339  0.1842  0.0706  1.3694
   87MOL   C31148643   1.708   7.031   5.353 -0.0087 -0.2986  0.4400
   87MOL   C31248644   1.734   7.034   5.500  0.2284 -0.2065 -0.2109
   87MOL   O31348645   1.868   7.012   5.509 -0.0551  0.1529 -0.4215
   87MOL   C31448646   1.697   7.163   5.582 -0.0022 -0.2665 -0.1991
   87MOL   C31548647   1.768   7.302   5.543 -0.1440  0.7239  0.2836
   87MOL   C31648648   1.715   7.422   5.615  0.0493  0.2896  0.2791
   87MOL   O31748649   1.801   7.534   5.590  0.0064 -0.2459  0.2552
   87MOL   C31848650   1.714   7.399   5.770  0.0199 -0.6795 -0.5777
   87MOL   C31948651   1.644   7.514   5.845  0.1350 -0.6823  0.5131
   87MOL   C32048652   1.641   7.273   5.801  0.1234 -0.1995  0.1211
   87MOL   C32148653   1.697   7.144   5.731  0.1430 -0.9918  0.0696
   87MOL   H32248654   1.718   7.134   5.317 -0.5454 -0.9265 -1.5862
   87MOL   H32348655   1.779   6.963   5.305 -2.3344 -1.4482 -1.4599
   87MOL   H32448656   1.688   6.947   5.548 -0.5552  1.1478  1.5528
   87MOL   H32548657   1.883   6.920   5.495 -1.9471 -0.1923 -0.3148
   87MOL   H32648658   1.591   7.177   5.559  0.0635  1.7168  0.5948
   87MOL   H32748659   1.877   7.291   5.546 -0.2458 -1.1823 -1.5924
   87MOL   H32848660   1.745   7.318   5.437 -2.3574 -1.1763  0.4495
   87MOL   H32948661   1.609   7.436   5.598  0.1316 -0.7582 -1.1721
   87MOL   H33048662   1.873   7.509   5.534  0.5689  1.1443  0.3464
   87MOL   H33148663   1.817   7.397   5.806 -0.2830 -0.0417  0.3392
   87MOL   H33248664   1.693   7.612   5.842  0.1108 -0.6573  0.9367
   87MOL   H33348665   1.549   7.543   5.801  0.1253 -1.3883  0.0638
   87MOL   H33448666   1.533   7.276   5.792  0.2686  1.3490 -1.4636
   87MOL   H33548667   1.664   7.245   5.904 -1.5941  1.9527  1.1173
   87MOL   H33648668   1.636   7.060   5.764  0.5011 -1.0809  0.5182
   87MOL   H33748669   1.802   7.133   5.759 -0.0403 -0.6901  0.8965
   87MOL   O33848670   1.610   7.474   5.977 -0.1132 -0.0587 -0.3276
   87MOL   C33948671   1.484   7.513   6.035  0.4944 -0.2111 -0.1021
   87MOL   C34048672   1.466   0.034   6.049 -0.3313  0.1570 -0.2977
   87MOL   O34148673   1.340   0.071   6.072 -0.3465 -0.0841  0.1975
   87MOL   C34248674   1.567   0.102   6.147 -0.6044 -0.1630 -1.2145
   87MOL   C34348675   1.539   0.074   6.304  0.0061  0.2733 -0.7615
   87MOL   C34448676   1.670   0.124   6.370  0.2831  0.6515 -1.0832
   87MOL   O34548677   1.679   0.086   6.506  0.2914 -0.1650  0.1905
   87MOL   C34648678   1.700   0.275   6.343 -0.6391 -0.8873  0.0549
   87MOL   C34748679   1.822   0.330   6.422  0.0400 -0.4719  0.6826
   87MOL   C34848680   1.706   0.297   6.193 -0.8355 -0.0922 -0.1290
   87MOL   C34948681   1.584   0.247   6.120 -0.4395  0.1985 -0.2246
   87MOL   H35048682   1.463   7.471   6.133 -0.3004  0.2903 -0.0596
   87MOL   H35148683   1.410   7.473   5.965 -0.6607  0.3508  0.7766
   87MOL   H35248684   1.489   0.075   5.950  2.9995 -0.1579  0.3051
   87MOL   H35348685   1.315   0.039   6.157 -0.8092  1.0358  0.4904
   87MOL   H35448686   1.664   0.061   6.119 -0.3385  0.1336 -0.7306
   87MOL   H35548687   1.448   0.130   6.327 -0.3988 -0.3138 -0.9180
   87MOL   H35648688   1.523   7.599   6.327  1.3168  0.6407  1.9461
   87MOL   H35748689   1.752   0.069   6.322  0.9076 -1.7337  2.4999
   87MOL   H35848690   1.684   7.621   6.502  0.1163 -0.1507 -0.4648
   87MOL   H35948691   1.615   0.327   6.386 -0.1179 -0.2588  0.3452
   87MOL   H36048692   1.815   0.304   6.527  0.3773 -4.1040 -0.1499
   87MOL   H36148693   1.911   0.281   6.384  0.6109 -0.9173  2.5811
   87MOL   H36248694   1.797   0.248   6.157 -1.8583 -0.8136 -1.8230
   87MOL   H36348695   1.711   0.406   6.186 -3.0149 -0.0846 -2.4149
   87MOL   H36448696   1.592   0.268   6.013 -1.4748 -1.2318 -0.5969
   87MOL   H36548697   1.496   0.304   6.150 -1.4110 -0.4821 -1.7041
   87MOL   O36648698   1.847   0.467   6.391 -0.4256  0.0972 -0.7100
   87MOL   C36748699   1.783   0.566   6.472 -0.2295  0.2860 -0.2448
   87MOL   C36848700   1.741   0.692   6.397 -0.4866 -0.6199 -0.0493
   87MOL   O36948701   1.645   0.755   6.472  0.5694  0.0568 -0.2273
   87MOL   C37048702   1.865   0.783   6.369  0.0432  0.2485 -0.3132
   87MOL   C37148703   1.936   0.836   6.501 -0.0865  0.1441 -0.4626
   87MOL   C37248704   2.060   0.921   6.467 -0.3035 -0.2570  0.1010
   87MOL   O37348705   2.128   0.956   6.589 -0.3243 -0.1877  0.3064
   87MOL   C37448706   2.027   1.039   6.377  0.5293  0.0119 -0.3234
   87MOL   C37548707   2.148   1.117   6.334 -0.5994 -0.0172 -0.7409
   87MOL   C37648708   1.943   1.001   6.252 -0.7287 -0.3893  0.7688
   87MOL   C37748709   1.824   0.905   6.281 -0.0099 -0.1333  0.4284
   87MOL   H37848710   1.841   0.586   6.563  0.5520  1.0540 -0.9107
   87MOL   H37948711   1.684   0.530   6.503  0.7443 -0.0805  2.5746
   87MOL   H38048712   1.694   0.665   6.302 -0.7454 -1.9973  0.4668
   87MOL   H38148713   1.675   0.776   6.559  0.5346 -0.3955 -0.1035
   87MOL   H38248714   1.941   0.735   6.307 -1.6661 -0.8774 -1.5749
   87MOL   H38348715   1.869   0.891   6.567  0.0821  0.4972 -0.5854
   87MOL   H38448716   1.959   0.753   6.568 -1.0925  0.1145 -0.1596
   87MOL   H38548717   2.126   0.851   6.414  1.5595  1.9019 -0.5106
   87MOL   H38648718   2.107   1.045   6.612  2.1350  0.8693 -1.2715
   87MOL   H38748719   1.966   1.108   6.436 -0.4769 -0.8000 -0.3879
   87MOL   H38848720   2.238   1.116   6.397  0.6267 -1.1090 -2.4649
   87MOL   H38948721   2.188   1.068   6.245  1.7072  1.3230 -0.4779
   87MOL   H39048722   2.001   0.959   6.170 -1.3759  1.5206 -0.7077
   87MOL   H39148723   1.893   1.091   6.216 -1.3145 -1.2814 -0.7201
   87MOL   H39248724   1.788   0.883   6.180 -0.0796  0.3684  0.3425
   87MOL   H39348725   1.747   0.962   6.334 -0.0015 -0.1008  0.4060
   87MOL   O39448726   2.111   1.257   6.312 -0.1107  0.0735 -0.3551
   87MOL   C39548727   2.173   1.316   6.194 -0.0469  0.5599  0.6313
   87MOL   C39648728   2.094   1.443   6.159 -1.0380  0.3461 -0.4111
   87MOL   O39748729   1.969   1.413   6.096 -0.2640  0.3303 -0.1444
   87MOL   C39848730   2.061   1.542   6.281  1.0332 -0.4693  0.6304
   87MOL   C39948731   1.921   1.513   6.348  0.6653  0.2610 -0.3220
   87MOL   C40048732   1.905   1.610   6.469 -0.6139  0.1798 -0.4304
   87MOL   O40148733   1.778   1.600   6.521  0.2654  0.1307  0.3094
   87MOL   C40248734   1.916   1.759   6.431  0.5216  0.2909 -0.0244
   87MOL   C40348735   1.931   1.846   6.558 -0.1302  0.1816 -0.2079
   87MOL   C40448736   2.051   1.778   6.361 -0.1837 -0.0656  0.3390
   87MOL   C40548737   2.067   1.692   6.236 -0.4211 -0.5072 -0.4541
   87MOL   H40648738   2.174   1.252   6.106  0.7988 -0.3795  1.3103
   87MOL   H40748739   2.274   1.351   6.216  1.8373 -3.3548 -1.2268
   87MOL   H40848740   2.149   1.491   6.078  0.1192 -1.6870 -0.8611
   87MOL   H40948741   1.919   1.385   6.172  0.3251 -1.4897 -0.3896
   87MOL   H41048742   2.138   1.519   6.355  2.5685  0.3943 -0.6615
   87MOL   H41148743   1.833   1.532   6.287  1.3337  1.5950 -0.8841
   87MOL   H41248744   1.914   1.413   6.391 -1.8369  0.0031 -1.2700
   87MOL   H41348745   1.974   1.593   6.552 -2.2017  0.6267  1.0067
   87MOL   H41448746   1.749   1.678   6.566 -1.9975 -0.7120  0.4126
   87MOL   H41548747   1.831   1.782   6.367 -0.3872 -2.2839  0.1961
   87MOL   H41648748   1.992   1.799   6.634  0.1119  0.4213 -0.2525
   87MOL   H41748749   1.991   1.935   6.538  0.2918  0.2058  1.1748
   87MOL   H41848750   2.127   1.746   6.431 -0.3509 -1.0859  0.0667
   87MOL   H41948751   2.065   1.885   6.345 -2.0753  0.0273 -0.9322
   87MOL   H42048752   2.163   1.705   6.185  0.0693 -2.1133  0.0204
   87MOL   H42148753   1.984   1.712   6.169  0.3749 -1.1103 -1.6514
   87MOL   O42248754   1.801   1.875   6.603  0.3047 -1.0019 -0.4067
   87MOL   C42348755   1.819   1.957   6.714 -0.3443 -0.4598 -0.5859
   87MOL   C42448756   1.688   1.989   6.792  0.1441  0.5881  0.3008
   87MOL   O42548757   1.651   1.862   6.827 -0.9658 -0.7045  0.4103
   87MOL   C42648758   1.712   2.083   6.917 -0.3302  0.2663 -0.0639
   87MOL   C42748759   1.584   2.093   6.999 -0.2876  0.3797  0.6272
   87MOL   C42848760   1.621   2.170   7.127  0.6910  0.1679  0.9122
   87MOL   O42948761   1.491   2.198   7.172 -0.7433  0.2848  0.8002
   87MOL   C43048762   1.691   2.309   7.117  0.8515  0.1148 -0.0885
   87MOL   C43148763   1.747   2.351   7.254  0.3729 -0.0876 -0.0450
   87MOL   C43248764   1.816   2.291   7.020  0.5904  0.5203  1.0251
   87MOL   C43348765   1.767   2.225   6.886 -0.3412 -0.0579  0.2619
   87MOL   H43448766   1.870   2.044   6.672  2.0101 -1.1737  0.7162
   87MOL   H43548767   1.892   1.919   6.785 -1.4755  3.0396  2.6330
   87MOL   H43648768   1.629   2.040   6.716  1.6749 -0.6661 -1.7597
   87MOL   H43748769   1.635   1.818   6.745  0.6662  0.6238 -0.6495
   87MOL   H43848770   1.785   2.026   6.976 -1.0045 -1.0705 -0.5100
   87MOL   H43948771   1.512   2.147   6.938 -0.0533  0.0378  0.0493
   87MOL   H44048772   1.553   1.994   7.031  1.7375 -0.2035  0.8485
   87MOL   H44148773   1.664   2.099   7.198  0.4650  0.1832  1.0676
   87MOL   H44248774   1.497   2.258   7.245 -0.0862 -1.1443  1.9407
   87MOL   H44348775   1.630   2.384   7.067  1.3547 -0.4226 -1.5367
   87MOL   H44448776   1.823   2.428   7.238  0.1760  0.6480  2.3515
   87MOL   H44548777   1.670   2.383   7.324  0.2314  1.0018 -0.6903
   87MOL   H44648778   1.877   2.216   7.071  0.8544 -0.0451 -0.1068
   87MOL   H44748779   1.871   2.384   7.006  1.1153  0.0859  0.1123
   87MOL   H44848780   1.863   2.220   6.835  0.0834  0.2371  1.0173
   87MOL   H44948781   1.692   2.290   6.839 -1.1019 -1.4534 -0.4886
   87MOL   O45048782   1.836   2.252   7.308  0.1608  0.1931 -0.2314
   87MOL   C45148783   1.902   2.278   7.435  0.1257 -0.0459 -0.5664
   87MOL   C45248784   1.991   2.159   7.489  0.7377  0.5064  0.0330
   87MOL   O45348785   2.121   2.178   7.432 -0.0493  1.3502  0.0150
   87MOL   C45448786   2.013   2.146   0.010 -0.2627 -0.0315  0.1368
   87MOL   C45548787   2.119   2.039   0.053 -0.5653  0.1560 -0.3121
   87MOL   C45648788   2.144   2.034   0.204  0.1458 -0.0268 -0.1841
   87MOL   O45748789   2.239   1.936   0.234  0.6788  0.8363  0.3600
   87MOL   C45848790   2.004   2.001   0.262 -0.1333 -0.7841  0.2864
   87MOL   C45948791   2.009   1.957   0.410  0.0645  0.5420  0.1535
   87MOL   C46048792   1.904   2.111   0.238 -1.3976 -0.7760  0.9432
   87MOL   C46148793   1.883   2.130   0.081 -0.5526 -0.3731  0.3064
   87MOL   H46248794   1.828   2.308   7.510  1.0197  0.7427  0.0276
   87MOL   H46348795   1.963   2.368   7.433  0.9810 -0.5060  2.6778
   87MOL   H46448796   1.953   2.066   7.447 -0.1570  0.7764  0.2399
   87MOL   H46548797   2.122   2.138   7.346 -1.5249 -0.0389  0.6197
   87MOL   H46648798   2.052   2.244   0.040  1.4577  0.4924 -3.5679
   87MOL   H46748799   2.097   1.946   0.001 -0.7293 -1.4866  2.6297
   87MOL   H46848800   2.217   2.071   0.016 -0.1784  1.0321  1.4203
   87MOL   H46948801   2.171   2.129   0.251 -2.4885 -0.0691  1.5196
   87MOL   H47048802   2.211   1.854   0.196  3.9032 -0.8499  1.4629
   87MOL   H47148803   1.963   1.911   0.215  4.6861 -3.0772  0.2052
   87MOL   H47248804   2.073   1.873   0.433 -0.0252  0.8963  1.7176
   87MOL   H47348805   2.045   2.032   0.480  0.0861 -0.7110  1.5103
   87MOL   H47448806   1.942   2.198   0.291  1.9186 -1.2433 -0.4972
   87MOL   H47548807   1.807   2.081   0.278 -2.5899  0.7269 -0.7402
   87MOL   H47648808   1.820   2.218   0.067 -0.8411 -0.9497 -2.4606
   87MOL   H47748809   1.822   2.052   0.034  1.2173 -2.1642  0.9504
   87MOL   O47848810   1.878   1.941   0.456  0.4327  0.0954  0.2987
   87MOL   C47948811   1.872   1.898   0.589  0.7930  0.0279 -0.1783
   87MOL   C48048812   1.731   1.946   0.620  0.6889  1.1143 -0.7717
   87MOL   O48148813   1.687   1.863   0.725  0.7150 -0.5957 -0.0129
   87MOL   C48248814   1.710   2.099   0.643  0.0025  0.1220  0.1059
   87MOL   C48348815   1.775   2.146   0.770 -0.1509  0.5696 -0.0251
   87MOL   C48448816   1.756   2.300   0.793 -0.2382 -0.2762  0.4789
   87MOL   O48548817   1.815   2.334   0.915 -0.2192 -0.2748  0.1958
   87MOL   C48648818   1.606   2.329   0.800  0.2201  0.4351  0.5451
   87MOL   C48748819   1.578   2.480   0.828 -0.3331  0.0069 -0.4287
   87MOL   C48848820   1.528   2.281   0.675  0.9210  0.3211  0.7910
   87MOL   C48948821   1.559   2.136   0.639  0.6992  0.4741 -0.1142
   87MOL   H49048822   1.946   1.943   0.656 -0.8062  2.7604 -0.2109
   87MOL   H49148823   1.884   1.790   0.578  1.1972 -0.0902  1.2406
   87MOL   H49248824   1.661   1.917   0.541  1.0654  2.6466 -1.6948
   87MOL   H49348825   1.760   1.829   0.775  0.1013  1.0685  2.0710
   87MOL   H49448826   1.757   2.153   0.560  1.0333 -1.4268 -0.3358
   87MOL   H49548827   1.751   2.084   0.856  1.2531 -1.4384 -1.0450
   87MOL   H49648828   1.883   2.137   0.762 -0.2493 -2.4403  1.4051
   87MOL   H49748829   1.803   2.343   0.705  0.1807 -1.6323  0.0302
   87MOL   H49848830   1.900   2.296   0.926  0.3851  1.4799  1.9016
   87MOL   H49948831   1.569   2.279   0.890  1.0444 -0.6845  0.2862
   87MOL   H50048832   1.630   2.501   0.922 -3.2246 -2.9050  1.9306
   87MOL   H50148833   1.617   2.541   0.747  0.1907 -0.1006 -0.2624
   87MOL   H50248834   1.552   2.339   0.587  2.5129  0.5908  1.3880
   87MOL   H50348835   1.420   2.287   0.690  0.4565  0.0631 -2.1957
   87MOL   H50448836   1.515   2.096   0.547  0.4504 -2.2941  1.1664
   87MOL   H50548837   1.510   2.068   0.709  0.4206  1.2725  0.4760
   87MOL   O50648838   1.437   2.507   0.847  0.4571  0.0439 -0.1029
   87MOL   C50748839   1.401   2.626   0.774 -0.9904  0.5315 -0.9916
   87MOL   C50848840   1.252   2.673   0.787  0.6808 -0.0173  0.3943
   87MOL   O50948841   1.231   2.778   0.883 -0.4469  0.2813  0.4664
   87MOL   C51048842   1.193   2.710   0.645  0.3182  0.4341 -0.4784
   87MOL   C51148843   1.244   2.852   0.600  0.3491 -0.7443  0.1218
   87MOL   C51248844   1.172   2.909   0.475 -0.5554 -0.8025  0.0739
   87MOL   O51348845   1.218   3.043   0.453  0.1610 -0.0006  0.4376
   87MOL   C51448846   1.020   2.895   0.481 -0.6670 -0.8482 -0.2369
   87MOL   C51548847   0.958   2.957   0.356  0.0542 -0.5046  0.4530
   87MOL   C51648848   0.986   2.749   0.504 -0.0638 -0.4754  0.2364
   87MOL   C51748849   1.040   2.695   0.635 -0.0362  0.4159  0.6606
   87MOL   H51848850   1.423   2.600   0.670  0.0920 -3.9779  0.2290
   87MOL   H51948851   1.470   2.707   0.797 -0.7039  0.3519 -1.2089
   87MOL   H52048852   1.201   2.583   0.821  2.0859 -0.2597  1.9181
   87MOL   H52148853   1.309   2.796   0.933 -2.3748  2.2002  2.9352
   87MOL   H52248854   1.229   2.636   0.572  0.7719  0.2909 -0.1076
   87MOL   H52348855   1.231   2.923   0.682  1.7080 -0.4773  0.1123
   87MOL   H52448856   1.352   2.864   0.595  0.1965  0.9853  0.6827
   87MOL   H52548857   1.208   2.849   0.391 -0.5763 -0.5155 -0.1376
   87MOL   H52648858   1.312   3.035   0.444  0.0378 -2.0052  0.7286
   87MOL   H52748859   0.977   2.947   0.567 -0.2775 -1.4103  0.2995
   87MOL   H52848860   0.851   2.975   0.367 -0.1636 -1.1473 -0.4945
   87MOL   H52948861   1.012   3.050   0.338  2.8613 -1.9597  1.1346
   87MOL   H53048862   1.027   2.697   0.418  1.0784 -0.6009  0.8470
   87MOL   H53148863   0.878   2.736   0.499  0.0865 -1.1203 -1.6719
   87MOL   H53248864   0.995   2.596   0.644  1.8632 -0.2824  3.1261
   87MOL   H53348865   0.998   2.735   0.728  0.5442  2.2857  0.1348
   87MOL   O53448866   0.981   2.887   0.231  0.0377  0.2135  0.0476
   87MOL   C53548867   0.934   2.963   0.114  0.8334  0.3344 -0.0579
   87MOL   C53648868   1.041   3.036   0.038 -0.5328  0.7306 -0.5508
   87MOL   O53748869   1.080   3.145   0.108  0.4162 -0.3490  0.6663
   87MOL   C53848870   1.171   2.964   0.002 -0.1301 -0.5250  0.4034
   87MOL   C53948871   1.264   3.052   7.542 -0.5722  0.0508  0.0806
   87MOL   C54048872   1.397   2.968   7.522 -0.4703  0.4057 -0.0233
   87MOL   O54148873   1.483   3.044   7.444 -0.3593  0.1240  0.5601
   87MOL   C54248874   1.363   2.835   7.453  0.0556  0.7801 -0.4156
   87MOL   C54348875   1.486   2.753   7.406 -1.0803 -0.3703  0.2834
   87MOL   C54448876   1.275   2.747   7.551  0.2971  0.1402  0.3620
   87MOL   C54548877   1.146   2.824   7.571  0.6410  0.7969 -0.3793
   87MOL   H54648878   0.848   3.025   0.141  0.8524 -0.2984  1.5503
   87MOL   H54748879   0.888   2.894   0.042 -1.0356 -0.2228  1.5986
   87MOL   H54848880   0.998   3.071   7.574 -0.3952  0.4256 -0.7277
   87MOL   H54948881   1.086   3.116   0.198  3.6449 -0.8329  0.3400
   87MOL   H55048882   1.231   2.943   0.090  3.3011 -0.0411 -1.6967
   87MOL   H55148883   1.220   3.076   7.446  3.2821 -0.9323 -2.0540
   87MOL   H55248884   1.286   3.146   7.592 -0.1274  0.1449 -0.2898
   87MOL   H55348885   1.443   2.947   7.618  2.5787  2.8313 -0.8250
   87MOL   H55448886   1.564   3.056   7.490  0.2262 -2.9698  0.4517
   87MOL   H55548887   1.309   2.857   7.361 -0.7587  0.4701 -0.0116
   87MOL   H55648888   1.451   2.664   7.353 -0.9151  0.1993 -0.8086
   87MOL   H55748889   1.554   2.814   7.346  0.3237 -1.6011  0.5882
   87MOL   H55848890   1.320   2.728   0.019  0.5802 -1.5042 -0.0758
   87MOL   H55948891   1.245   2.653   7.504 -0.4404 -0.4619  2.0025
   87MOL   H56048892   1.081   2.760   0.002  0.2659 -0.0136 -1.6256
   87MOL   H56148893   1.088   2.842   7.480 -1.5172 -1.0696  0.5762
   87MOL   H56248894   1.538   2.724   7.497  0.6230 -0.4971 -0.7043
   88MOL     O148895   6.070   5.553   2.935  0.1222  0.4497  0.2524
   88MOL     C248896   5.982   5.536   3.047 -0.1128 -0.3037 -0.1974
   88MOL     C348897   6.013   5.393   3.111 -0.0229 -0.1745  1.2310
   88MOL     O448898   5.992   5.309   2.996 -0.4697  0.1055 -0.3463
   88MOL     C548899   6.157   5.367   3.161  0.2366 -0.5290  0.2861
   88MOL     C648900   6.186   5.214   3.179  0.6017  0.2125  0.6950
   88MOL     C748901   6.334   5.191   3.205 -0.0692  0.1823 -0.9487
   88MOL     O848902   6.353   5.046   3.210  0.1897  0.8503 -0.1512
   88MOL     C948903   6.361   5.259   3.334 -0.4324 -0.7656  0.0906
   88MOL    C1048904   6.512   5.253   3.380 -0.2719 -1.0587  0.4512
   88MOL    C1148905   6.326   5.411   3.341  0.0306 -0.6523  0.2167
   88MOL    C1248906   6.183   5.446   3.291  0.0231 -0.1079  0.0015
   88MOL    H1348907   5.879   5.543   3.013 -0.0959  1.4795  0.0481
   88MOL    H1448908   6.000   5.615   3.120 -1.8206  0.1325 -0.2281
   88MOL    H1548909   5.941   5.360   3.186 -0.0828 -1.2964  0.6970
   88MOL    H1648910   5.988   5.223   3.034  1.3727  0.9480  1.9700
   88MOL    H1748911   6.226   5.405   3.086  1.2860  1.3085  2.1273
   88MOL    H1848912   6.108   5.169   3.241  0.1611  0.2280  0.1603
   88MOL    H1948913   6.179   5.168   3.080 -0.3797 -1.8699  1.7011
   88MOL    H2048914   6.391   5.227   3.120 -1.6070  0.3950 -1.8941
   88MOL    H2148915   6.337   5.022   3.120 -0.4796 -0.3570  0.2836
   88MOL    H2248916   6.302   5.212   3.413  0.0292 -2.2610 -0.4456
   88MOL    H2348917   6.534   5.151   3.411 -0.0027 -1.0303  0.3571
   88MOL    H2448918   6.578   5.269   3.294  1.4803 -0.8635  1.7963
   88MOL    H2548919   6.390   5.453   3.264 -0.2853 -0.4383  0.0712
   88MOL    H2648920   6.344   5.465   3.434  1.5678  2.1025 -1.6208
   88MOL    H2748921   6.184   5.553   3.270  2.9276 -0.6321 -3.0320
   88MOL    H2848922   6.099   5.428   3.359  0.4758 -1.5416  0.2044
   88MOL    H2948923   6.057   5.470   2.892 -1.0816  0.9380 -0.3361
   88MOL    O3048924   6.540   5.338   3.490 -0.2352  0.0645 -0.0295
   88MOL    C3148925   6.667   5.394   3.482 -0.6882 -0.2210 -0.3951
   88MOL    C3248926   6.679   5.495   3.601 -0.8601  0.1777 -0.1447
   88MOL    O3348927   6.581   5.594   3.596  0.4351  0.3167  0.3960
   88MOL    C3448928   6.688   5.425   3.734 -0.0086 -0.9285  0.1903
   88MOL    C3548929   6.562   5.357   3.786 -0.0971 -0.0967  0.5813
   88MOL    C3648930   6.590   5.286   3.921 -0.0491  0.1397  0.4701
   88MOL    O3748931   6.472   5.228   3.970  0.0730 -0.2460  0.1299
   88MOL    C3848932   6.646   5.389   4.022  0.5912 -0.0565  0.5160
   88MOL    C3948933   6.690   5.332   4.152 -1.0290  0.4374  0.2356
   88MOL    C4048934   6.767   5.465   3.966  0.1246  0.1464  0.5421
   88MOL    C4148935   6.723   5.532   3.840 -0.6680 -1.3050 -0.2068
   88MOL    H4248936   6.683   5.457   3.395 -0.3687 -0.2636 -0.3683
   88MOL    H4348937   6.748   5.321   3.492  1.0449  2.0411  3.1167
   88MOL    H4448938   6.778   5.538   3.587 -0.2297 -0.8354  1.1246
   88MOL    H4548939   6.506   5.546   3.566  0.9315  2.3190 -4.4485
   88MOL    H4648940   6.758   5.343   3.726  0.2504 -0.5905 -1.1629
   88MOL    H4748941   6.476   5.425   3.789 -2.3034 -2.7854  0.4327
   88MOL    H4848942   6.533   5.281   3.713  1.3540  0.0533 -0.1760
   88MOL    H4948943   6.667   5.210   3.908 -1.5515 -1.1824 -1.0320
   88MOL    H5048944   6.498   5.222   4.061  3.5334 -0.5176 -0.7785
   88MOL    H5148945   6.574   5.466   4.048  0.2875 -0.4743  0.9172
   88MOL    H5248946   6.771   5.261   4.137  0.9658  2.4012  1.4460
   88MOL    H5348947   6.724   5.412   4.217  1.0190  0.6300 -1.0271
   88MOL    H5448948   6.845   5.394   3.940  0.3276  1.1006 -1.6059
   88MOL    H5548949   6.808   5.534   4.039  0.6490 -0.9353  1.2733
   88MOL    H5648950   6.802   5.596   3.802 -0.4130  0.0142  2.4846
   88MOL    H5748951   6.640   5.602   3.847 -0.6953 -0.6850 -4.9373
   88MOL    O5848952   6.583   5.264   4.205  0.3135 -0.6286 -0.1355
   88MOL    C5948953   6.600   5.211   4.329  0.6023  0.5216 -0.3417
   88MOL    C6048954   6.560   5.061   4.318  0.2416 -0.1564 -0.2153
   88MOL    O6148955   6.610   4.993   4.429 -0.5847  0.2953 -0.0489
   88MOL    C6248956   6.414   5.033   4.284 -0.7470 -0.0046 -0.1988
   88MOL    C6348957   6.318   5.073   4.397  0.1980 -0.2478  0.7141
   88MOL    C6448958   6.168   5.043   4.366 -0.1009  0.2391  0.0903
   88MOL    O6548959   6.092   5.062   4.485  0.3764 -0.3988 -0.2061
   88MOL    C6648960   6.154   4.895   4.318  0.0773  0.0224 -0.0570
   88MOL    C6748961   6.016   4.865   4.265  0.4588  0.6526 -0.6747
   88MOL    C6848962   6.257   4.855   4.210  0.6469 -0.2663 -0.7024
   88MOL    C6948963   6.401   4.893   4.243  0.1011  0.0546  0.2091
   88MOL    H7048964   6.529   5.261   4.395  1.6982  2.1925 -0.4030
   88MOL    H7148965   6.702   5.223   4.365  1.7703  1.2594 -3.7715
   88MOL    H7248966   6.622   5.022   4.238  0.6780 -0.3261  0.2039
   88MOL    H7348967   6.555   5.011   4.505  0.3186 -1.2552  0.9994
   88MOL    H7448968   6.387   5.094   4.197  0.5228 -1.5363 -1.7103
   88MOL    H7548969   6.346   5.012   4.483  3.5885  0.4289  0.1694
   88MOL    H7648970   6.329   5.178   4.425  1.6472  0.6186 -2.8277
   88MOL    H7748971   6.129   5.111   4.290  0.4072  0.2118 -0.1982
   88MOL    H7848972   6.077   5.155   4.497 -1.8332 -0.7612 -0.0250
   88MOL    H7948973   6.152   4.826   4.403 -0.1295  0.6348  0.4439
   88MOL    H8048974   5.949   4.870   4.351  0.7016 -0.4110 -0.4075
   88MOL    H8148975   5.970   4.927   4.188  0.0986 -0.2778 -1.2274
   88MOL    H8248976   6.233   4.887   4.109  0.8098  0.4349 -0.5202
   88MOL    H8348977   6.260   4.746   4.204 -0.3832 -0.2250 -2.3894
   88MOL    H8448978   6.459   4.885   4.152 -0.1126  0.9324 -0.0113
   88MOL    H8548979   6.444   4.827   4.318 -1.5213  1.0964  2.1307
   88MOL    O8648980   6.010   4.722   4.231  0.0372 -0.6790 -0.0973
   88MOL    C8748981   5.922   4.686   4.132  0.4584  0.1236  0.3552
   88MOL    C8848982   5.962   4.539   4.102 -0.6364  0.3780  1.0583
   88MOL    O8948983   5.900   4.462   4.201  0.5149  0.3200  0.5311
   88MOL    C9048984   5.905   4.493   3.957 -0.2899  0.1680  0.0631
   88MOL    C9148985   5.905   4.344   3.937 -0.1986  0.1094 -0.1610
   88MOL    C9248986   5.849   4.288   3.804  0.0510 -0.4487 -0.3047
   88MOL    O9348987   5.887   4.152   3.787  0.3759  0.1369  0.5888
   88MOL    C9448988   5.903   4.368   3.678 -0.5833 -0.3176  0.7916
   88MOL    C9548989   5.828   4.312   3.557 -0.2065 -0.2161  0.2192
   88MOL    C9648990   5.885   4.513   3.708  0.1550 -0.4145 -0.7055
   88MOL    C9748991   5.960   4.566   3.831 -0.3186  1.0173 -0.5819
   88MOL    H9848992   5.945   4.736   4.038 -0.4781 -2.1996 -1.1400
   88MOL    H9948993   5.816   4.683   4.156  0.3999  2.4482  0.4830
   88MOL   H10048994   6.071   4.530   4.097 -0.5049  2.4849 -1.1458
   88MOL   H10148995   5.969   4.435   4.259  0.5919 -1.3822 -0.3235
   88MOL   H10248996   5.799   4.516   3.966 -0.2087  0.8078 -0.5265
   88MOL   H10348997   6.013   4.333   3.949 -0.6034 -2.0328  2.0236
   88MOL   H10448998   5.850   4.294   4.017 -0.0873  0.0274 -0.1359
   88MOL   H10548999   5.740   4.284   3.811  0.0095 -2.8071 -1.8710
   88MOL   H10649000   5.981   4.156   3.795  0.4538 -2.0452  1.0624
   88MOL   H10749001   6.010   4.351   3.664 -0.5616  1.0716 -0.8613
   88MOL   H10849002   5.838   4.204   3.542 -0.7399 -0.3599  0.8346
   88MOL   H10949003   5.721   4.324   3.577  0.5224  0.5565  3.9018
   88MOL   H11049004   5.779   4.538   3.715 -0.1679 -2.1183  1.2114
   88MOL   H11149005   5.916   4.564   3.617  0.1924 -0.2621 -0.6071
   88MOL   H11249006   5.961   4.675   3.829  1.2340  1.0803  1.6720
   88MOL   H11349007   6.067   4.550   3.819 -0.2127 -2.4096  3.5752
   88MOL   O11449008   5.849   4.388   3.440 -0.8305  0.0030 -0.4678
   88MOL   C11549009   5.959   4.334   3.369 -0.5914 -0.1841  0.4200
   88MOL   C11649010   5.954   4.364   3.220 -0.0532  0.2205 -0.0761
   88MOL   O11749011   6.060   4.301   3.148  0.1901  0.2304 -0.6049
   88MOL   C11849012   5.818   4.318   3.156  0.1625  0.5193  0.0872
   88MOL   C11949013   5.788   4.159   3.166  0.8862 -0.0434 -0.4111
   88MOL   C12049014   5.642   4.140   3.127  0.2100  0.4663 -0.2314
   88MOL   O12149015   5.628   4.003   3.135  0.3098  0.0415  0.1930
   88MOL   C12249016   5.607   4.187   2.976  0.2663  0.0635 -0.6722
   88MOL   C12349017   5.462   4.156   2.941  0.1342 -0.4271  0.2753
   88MOL   C12449018   5.639   4.335   2.971  0.0777  0.2124 -0.0049
   88MOL   C12549019   5.789   4.379   3.014  0.2149  0.7181 -0.8313
   88MOL   H12649020   5.982   4.230   3.395 -0.2655 -0.4180 -0.7888
   88MOL   H12749021   6.049   4.378   3.410  1.2370 -2.6069 -0.8348
   88MOL   H12849022   5.971   4.471   3.208  1.3692 -0.2594 -2.8225
   88MOL   H12949023   6.041   4.209   3.139 -1.9058  0.0135  4.6410
   88MOL   H13049024   5.740   4.364   3.217 -0.6330 -1.4091  0.5388
   88MOL   H13149025   5.850   4.097   3.100  3.2637  0.6184  1.1161
   88MOL   H13249026   5.810   4.116   3.264 -1.2551 -1.3929 -0.4800
   88MOL   H13349027   5.574   4.192   3.194 -0.4363  2.6379 -2.4968
   88MOL   H13449028   5.603   3.981   3.223  0.5581 -1.8590 -0.1917
   88MOL   H13549029   5.672   4.139   2.903  0.8038  1.9566 -1.4815
   88MOL   H13649030   5.432   4.054   2.962 -0.3933  0.3252  3.3499
   88MOL   H13749031   5.393   4.209   3.006  0.6552  0.4224  0.1593
   88MOL   H13849032   5.558   4.387   3.023 -0.4122  0.2567 -0.8178
   88MOL   H13949033   5.637   4.368   2.868 -0.9402 -0.6904 -0.2788
   88MOL   H14049034   5.806   4.486   3.022 -0.4938  0.7587  0.1882
   88MOL   H14149035   5.853   4.332   2.939 -0.9510 -0.7442 -0.9419
   88MOL   O14249036   5.445   4.205   2.806 -0.4040 -0.4006  0.4231
   88MOL   C14349037   5.321   4.191   2.747  0.2099  0.5850 -0.0932
   88MOL   C14449038   5.316   4.273   2.614  0.3731 -0.6458  0.4799
   88MOL   O14549039   5.197   4.236   2.544 -0.4610 -0.1094 -0.0786
   88MOL   C14649040   5.298   4.430   2.634  1.1065 -0.5271 -0.0770
   88MOL   C14749041   5.422   4.496   2.702 -0.0279  1.2871 -0.0966
   88MOL   C14849042   5.413   4.646   2.730  0.3688  0.4279 -0.1280
   88MOL   O14949043   5.521   4.670   2.815  0.3997 -0.1015  0.2812
   88MOL   C15049044   5.280   4.681   2.797 -0.5902  0.4752  0.6653
   88MOL   C15149045   5.261   4.836   2.811 -0.0791  0.1111 -0.0489
   88MOL   C15249046   5.155   4.624   2.725 -0.6434  0.3485  0.2445
   88MOL   C15349047   5.170   4.474   2.711  0.1202  0.3861 -0.3998
   88MOL   H15449048   5.249   4.226   2.821  0.7455 -0.2573  0.8322
   88MOL   H15549049   5.297   4.085   2.737  0.4002  0.4836  0.5085
   88MOL   H15649050   5.409   4.256   2.559  0.6223  1.6689  0.1269
   88MOL   H15749051   5.214   4.254   2.452  1.2831 -1.7311 -0.1268
   88MOL   H15849052   5.295   4.467   2.531 -1.6890  0.0744  0.1647
   88MOL   H15949053   5.437   4.443   2.796  0.2282 -0.3380 -1.0454
   88MOL   H16049054   5.511   4.488   2.641 -1.0126 -1.5422 -1.2368
   88MOL   H16149055   5.431   4.696   2.634  1.3755 -0.7221 -0.5568
   88MOL   H16249056   5.600   4.652   2.766 -0.0135 -1.2110 -0.0029
   88MOL   H16349057   5.285   4.645   2.900 -0.4793  0.0512  0.5146
   88MOL   H16449058   5.347   4.880   2.862 -0.1943  1.1401 -0.7277
   88MOL   H16549059   5.254   4.889   2.716 -0.0589 -0.5279 -0.4141
   88MOL   H16649060   5.137   4.674   2.630  0.3695 -0.8709 -0.6069
   88MOL   H16749061   5.072   4.639   2.794 -0.0048  0.4906  0.9887
   88MOL   H16849062   5.089   4.439   2.647  0.2897  3.6358 -2.4960
   88MOL   H16949063   5.160   4.424   2.807 -2.8938  1.4155 -0.1529
   88MOL   O17049064   5.141   4.862   2.887 -0.1146  0.0458  0.2701
   88MOL   C17149065   5.170   4.885   3.017  0.1074 -1.2936 -0.1493
   88MOL   C17249066   5.035   4.906   3.093 -0.0541  0.4871  0.2103
   88MOL   O17349067   5.051   4.919   3.234  0.0568  0.0594 -0.3034
   88MOL   C17449068   4.957   5.029   3.047 -0.1019  0.5639  0.3381
   88MOL   C17549069   5.012   5.167   3.088 -0.5628  1.0014  0.9463
   88MOL   C17649070   4.928   5.292   3.052  0.3503  0.1562 -0.3024
   88MOL   O17749071   4.987   5.404   3.118 -0.1227  0.5545 -0.0256
   88MOL   C17849072   4.778   5.275   3.081 -0.4447  0.7277  0.2453
   88MOL   C17949073   4.697   5.389   3.028 -0.4646 -0.0629  0.2233
   88MOL   C18049074   4.727   5.134   3.025 -0.5970  0.1749  0.1802
   88MOL   C18149075   4.811   5.015   3.086  0.1077  0.0283  0.0362
   88MOL   H18249076   5.231   4.975   3.025 -1.1141 -0.5802  1.6412
   88MOL   H18349077   5.220   4.801   3.065  1.1650 -0.4590  0.2011
   88MOL   H18449078   4.990   4.807   3.083 -1.0431  0.9817 -0.3502
   88MOL   H18549079   4.968   4.946   3.268  0.4447 -0.1230  0.7905
   88MOL   H18649080   4.962   5.025   2.938 -2.6865  1.0870  0.1689
   88MOL   H18749081   5.039   5.169   3.193 -0.5969  0.1889  0.9727
   88MOL   H18849082   5.105   5.188   3.035 -1.4612 -1.2423 -1.6695
   88MOL   H18949083   4.921   5.298   2.943 -0.6612  0.8013 -0.2022
   88MOL   H19049084   5.010   5.371   3.204 -1.1210  1.4975  0.6140
   88MOL   H19149085   4.779   5.258   3.188  0.0712 -1.6387 -0.1188
   88MOL   H19249086   4.721   5.455   3.112  0.5089 -1.0914  0.7779
   88MOL   H19349087   4.719   5.425   2.928  1.6458 -2.1793 -0.1380
   88MOL   H19449088   4.709   5.129   2.918 -2.9048  1.3647  0.4945
   88MOL   H19549089   4.630   5.123   3.074 -1.0668 -0.6807 -0.9322
   88MOL   H19649090   4.775   4.916   3.061 -1.1967  0.1565  1.3589
   88MOL   H19749091   4.793   5.027   3.192 -3.6828 -1.4678 -0.3699
   88MOL   O19849092   4.561   5.365   3.041  0.1794  0.5983  0.1600
   88MOL   C19949093   4.482   5.485   3.000 -0.4407  0.5839 -1.0780
   88MOL   C20049094   4.438   5.473   2.853  0.8343 -0.2503  0.0502
   88MOL   O20149095   4.530   5.498   2.749 -0.0488  0.3961  0.0876
   88MOL   C20249096   4.357   5.347   2.818 -0.7255  0.8587 -0.7609
   88MOL   C20349097   4.431   5.212   2.821  0.1449 -0.0001 -0.2798
   88MOL   C20449098   4.339   5.098   2.779 -0.4496 -0.1060 -0.7153
   88MOL   O20549099   4.411   4.981   2.769 -0.3008  0.1369 -0.1148
   88MOL   C20649100   4.255   5.116   2.654 -0.1567  0.2745 -0.1488
   88MOL   C20749101   4.154   5.001   2.633 -0.3782  0.3348  0.3467
   88MOL   C20849102   4.179   5.250   2.657  0.2545 -0.5163 -0.3657
   88MOL   C20949103   4.281   5.361   2.686 -0.0377 -0.9130  0.1623
   88MOL   H21049104   4.536   5.578   3.018 -1.2939  0.7611  0.7320
   88MOL   H21149105   4.396   5.505   3.064 -0.6306 -2.1120 -0.4334
   88MOL   H21249106   4.369   5.556   2.839  0.2600 -0.8778 -0.8762
   88MOL   H21349107   4.580   5.424   2.719  2.1021  2.1448 -0.7464
   88MOL   H21449108   4.276   5.337   2.891  1.6572 -0.1834  1.8212
   88MOL   H21549109   4.528   5.222   2.771  0.5854  1.8930  0.9047
   88MOL   H21649110   4.445   5.193   2.927  0.3951  1.6409 -0.0122
   88MOL   H21749111   4.262   5.082   2.854  1.3282 -1.2074  0.9438
   88MOL   H21849112   4.484   4.980   2.710  0.6970 -0.2659  1.1165
   88MOL   H21949113   4.325   5.113   2.570 -0.8421 -1.5087 -0.6751
   88MOL   H22049114   4.215   4.912   2.649  0.3937  0.7720 -0.1104
   88MOL   H22149115   4.072   5.008   2.705  0.3468  2.8258  0.9757
   88MOL   H22249116   4.103   5.257   2.735  1.0341  1.7162  0.2341
   88MOL   H22349117   4.126   5.265   2.563  1.3061  1.9651 -0.5887
   88MOL   H22449118   4.231   5.457   2.693  1.0736 -0.4816  2.7446
   88MOL   H22549119   4.357   5.374   2.609 -0.7923 -1.4183 -0.6753
   88MOL   O22649120   4.113   4.995   2.502 -0.5009 -0.1855 -0.3329
   88MOL   C22749121   4.027   4.885   2.470 -0.4215  0.7391  0.0900
   88MOL   C22849122   4.093   4.759   2.404  0.0037  0.2589  0.5782
   88MOL   O22949123   3.990   4.667   2.361  0.4694 -0.1335  0.2985
   88MOL   C23049124   4.188   4.796   2.286 -0.7611  0.3942  0.1698
   88MOL   C23149125   4.114   4.865   2.171  0.0104 -0.5134  0.0550
   88MOL   C23249126   4.223   4.911   2.071 -0.2941  0.1092 -0.0075
   88MOL   O23349127   4.152   4.965   1.966  0.6800  0.0142 -0.6030
   88MOL   C23449128   4.317   4.795   2.017 -0.0334 -0.2523 -0.0789
   88MOL   C23549129   4.436   4.846   1.932  0.3835  0.2067 -0.1065
   88MOL   C23649130   4.368   4.692   2.132 -0.1230 -0.3545 -0.4911
   88MOL   C23749131   4.261   4.665   2.240 -0.4113 -0.2694  0.4531
   88MOL   H23849132   3.940   4.917   2.414 -0.5207  0.0113 -0.1830
   88MOL   H23949133   3.975   4.860   2.563  1.0352  0.9203  0.9732
   88MOL   H24049134   4.162   4.710   2.473  0.6934  0.3793 -0.0267
   88MOL   H24149135   3.971   4.690   2.272  2.4003 -0.1728 -0.1411
   88MOL   H24249136   4.267   4.868   2.310 -1.4854  0.9599  0.8729
   88MOL   H24349137   4.043   4.802   2.118 -2.5237  2.3755 -0.1822
   88MOL   H24449138   4.057   4.953   2.202 -1.7558 -1.9212  0.8465
   88MOL   H24549139   4.285   4.992   2.108  1.0264 -0.0388 -1.8674
   88MOL   H24649140   4.093   4.902   1.928 -2.0963  1.5089  1.0385
   88MOL   H24749141   4.247   4.737   1.957  0.4090 -0.9285  0.0512
   88MOL   H24849142   4.481   4.772   1.866 -1.1614 -0.8898  0.0386
   88MOL   H24949143   4.399   4.926   1.868 -0.7201 -1.4585 -1.6214
   88MOL   H25049144   4.456   4.726   2.186 -0.2561 -0.3014 -0.3047
   88MOL   H25149145   4.381   4.597   2.081 -1.1964  0.0433 -1.5290
   88MOL   H25249146   4.314   4.616   2.322 -0.7017 -1.6183 -0.1587
   88MOL   H25349147   4.198   4.586   2.200 -0.8117  0.2556  0.0491
   88MOL   O25449148   4.537   4.887   2.016  0.1465  0.0767  0.3200
   88MOL   C25549149   4.650   4.944   1.945 -0.5024 -0.0282  0.2386
   88MOL   C25649150   4.740   5.022   2.030 -0.4723 -0.0577  0.8526
   88MOL   O25749151   4.711   5.162   2.023  0.0441 -0.3769  0.2317
   88MOL   C25849152   4.759   4.974   2.175  0.1089 -0.5208 -0.7936
   88MOL   C25949153   4.649   5.027   2.275 -0.1447  0.0543 -0.0581
   88MOL   C26049154   4.670   4.975   2.424  0.1841  0.6466  0.1840
   88MOL   O26149155   4.576   5.031   2.509  0.8604  0.5607  0.4365
   88MOL   C26249156   4.813   4.999   2.480 -0.0466 -0.0677  0.6713
   88MOL   C26349157   4.833   4.952   2.622  0.0010 -0.3187  0.2393
   88MOL   C26449158   4.913   4.941   2.382  0.4036 -0.0694 -0.6033
   88MOL   C26549159   4.897   4.997   2.237  0.1052  0.0388  0.3771
   88MOL   H26649160   4.610   5.005   1.864 -3.1978 -0.9179  0.8369
   88MOL   H26749161   4.705   4.867   1.890 -0.7290 -0.4521  0.6039
   88MOL   H26849162   4.839   5.024   1.984 -0.9319  0.8310 -0.1422
   88MOL   H26949163   4.641   5.176   2.084  0.6780  0.3585  0.7934
   88MOL   H27049164   4.745   4.866   2.172 -0.2445 -0.4704 -1.0483
   88MOL   H27149165   4.646   5.136   2.272  0.9597  0.0783 -0.5784
   88MOL   H27249166   4.552   4.993   2.240  0.3500 -1.5696  0.0922
   88MOL   H27349167   4.643   4.870   2.435  0.5221  0.4819 -0.5101
   88MOL   H27449168   4.584   5.126   2.510  0.2339  0.6124  1.1662
   88MOL   H27549169   4.842   5.104   2.485  1.2174 -0.2384 -1.8356
   88MOL   H27649170   4.938   4.972   2.645  0.4239 -1.1705 -0.8972
   88MOL   H27749171   4.774   5.021   2.682 -0.3201  0.7376 -1.2774
   88MOL   H27849172   4.892   4.835   2.368  1.9571 -0.6872  1.4849
   88MOL   H27949173   5.015   4.961   2.415  0.0911  1.7413 -0.6746
   88MOL   H28049174   4.975   4.941   2.185 -0.5913 -0.9016  0.3198
   88MOL   H28149175   4.912   5.105   2.230 -1.8117  0.2805 -0.3538
   88MOL   O28249176   4.795   4.818   2.634 -0.2007  0.2522 -0.0167
   88MOL   C28349177   4.804   4.762   2.769 -0.3548 -0.2457 -0.1512
   88MOL   C28449178   4.765   4.612   2.761  0.6438 -0.1255  0.2503
   88MOL   O28549179   4.781   4.547   2.881  0.2037  0.0330 -0.2774
   88MOL   C28649180   4.618   4.575   2.720  0.0374 -0.5703 -0.5033
   88MOL   C28749181   4.507   4.666   2.770 -0.2616  0.3480  0.0312
   88MOL   C28849182   4.357   4.632   2.745  0.0421  0.8405  0.0484
   88MOL   O28949183   4.288   4.722   2.827  0.7127  0.0567 -0.5542
   88MOL   C29049184   4.331   4.484   2.795  0.0374 -0.4354  0.0299
   88MOL   C29149185   4.196   4.435   2.762 -0.5794 -0.5964  0.2148
   88MOL   C29249186   4.437   4.391   2.729 -0.3344  1.1603 -0.1469
   88MOL   C29349187   4.579   4.430   2.763  0.6849  0.1921 -0.0718
   88MOL   H29449188   4.747   4.825   2.837 -2.5477  0.5294 -2.6155
   88MOL   H29549189   4.910   4.778   2.788 -0.8502  1.4896  1.3080
   88MOL   H29649190   4.822   4.564   2.682 -2.1143 -1.1841 -1.1595
   88MOL   H29749191   4.726   4.590   2.945  0.2303 -0.7625  0.2985
   88MOL   H29849192   4.612   4.590   2.612 -1.9618  1.3847 -0.1663
   88MOL   H29949193   4.528   4.690   2.875 -1.7207 -0.0218  0.4241
   88MOL   H30049194   4.524   4.763   2.725 -1.1723 -0.8405 -2.9979
   88MOL   H30149195   4.342   4.649   2.639 -1.6625 -0.8227 -0.0156
   88MOL   H30249196   4.324   4.808   2.810 -1.1162  0.3060 -3.3707
   88MOL   H30349197   4.338   4.495   2.903  3.6043  0.3165 -0.2068
   88MOL   H30449198   4.123   4.506   2.800  2.4969  3.7379 -1.6614
   88MOL   H30549199   4.179   4.418   2.655  0.4329 -0.6088  0.0553
   88MOL   H30649200   4.418   4.394   2.621 -2.0683 -0.8120  0.0967
   88MOL   H30749201   4.425   4.285   2.749  0.9555  0.8941 -0.6594
   88MOL   H30849202   4.654   4.356   2.735  0.4388 -0.0979  0.0394
   88MOL   H30949203   4.581   4.420   2.871 -0.6894  1.8588  0.1355
   88MOL   O31049204   4.168   4.321   2.845  0.3995 -0.2725 -0.4314
   88MOL   C31149205   4.047   4.261   2.809 -0.0712  0.3903  0.5262
   88MOL   C31249206   4.023   4.173   2.931  0.1371  0.4136 -0.1009
   88MOL   O31349207   4.016   4.264   3.037 -0.3731  0.4538  0.0546
   88MOL   C31449208   3.904   4.079   2.919  0.2531  0.3532 -0.5668
   88MOL   C31549209   3.773   4.154   2.918 -0.0014  0.2783  0.7501
   88MOL   C31649210   3.646   4.070   2.922  0.5952 -0.5035  0.0519
   88MOL   O31749211   3.540   4.165   2.928  0.6214 -0.0031  0.0482
   88MOL   C31849212   3.651   3.973   3.045  0.0217 -0.1602 -0.4493
   88MOL   C31949213   3.525   3.881   3.050  0.3152  0.4122 -0.1830
   88MOL   C32049214   3.783   3.891   3.043  0.5074  0.1738  0.1054
   88MOL   C32149215   3.903   3.983   3.040 -0.7254  0.0456  0.2153
   88MOL   H32249216   4.074   4.195   2.727 -2.2938 -0.6258  0.5899
   88MOL   H32349217   3.968   4.334   2.796  0.5156  0.9703  0.1758
   88MOL   H32449218   4.111   4.112   2.954  0.9768  1.4967 -0.4288
   88MOL   H32549219   4.098   4.311   3.044  0.2820 -0.8368  1.0673
   88MOL   H32649220   3.913   4.028   2.823 -3.7423 -0.5721 -0.5474
   88MOL   H32749221   3.776   4.226   3.000  1.8369 -1.0639  1.8896
   88MOL   H32849222   3.771   4.214   2.827  1.7551  0.9609  1.1438
   88MOL   H32949223   3.644   4.012   2.830 -2.5126 -0.9969  0.3735
   88MOL   H33049224   3.519   4.184   2.838  1.3507 -0.3777 -0.1983
   88MOL   H33149225   3.642   4.039   3.132 -0.8573  0.2159 -0.8159
   88MOL   H33249226   3.438   3.946   3.053 -0.1107 -0.1879  0.3592
   88MOL   H33349227   3.503   3.833   2.954  0.1398 -1.1307  0.6178
   88MOL   H33449228   3.795   3.823   2.958  0.6727 -1.4905  1.4487
   88MOL   H33549229   3.792   3.823   3.127  1.0418  0.4617  0.2836
   88MOL   H33649230   3.993   3.922   3.038 -1.3941 -0.9690  0.7508
   88MOL   H33749231   3.907   4.039   3.134 -2.7033 -0.9672  0.9274
   88MOL   O33849232   3.542   3.785   3.158  0.2273 -0.0147 -0.5973
   88MOL   C33949233   3.480   3.810   3.284  0.3549 -0.3225 -0.2566
   88MOL   C34049234   3.528   3.710   3.388 -0.0391 -0.2239  0.0305
   88MOL   O34149235   3.458   3.593   3.350 -0.0277  0.1394  0.3734
   88MOL   C34249236   3.679   3.695   3.401  0.2814  0.0422  0.4089
   88MOL   C34349237   3.719   3.588   3.501 -0.2351  0.1834  0.0184
   88MOL   C34449238   3.868   3.572   3.516 -0.3807  0.9972 -0.4620
   88MOL   O34549239   3.895   3.479   3.624  0.0858 -0.3294 -0.2043
   88MOL   C34649240   3.937   3.712   3.545 -0.3619 -0.2607 -0.2162
   88MOL   C34749241   4.095   3.700   3.557 -0.3562 -0.4710 -0.0025
   88MOL   C34849242   3.892   3.816   3.440  0.9773  0.8915  0.7058
   88MOL   C34949243   3.739   3.826   3.442  0.1465  0.7171  0.2853
   88MOL   H35049244   3.371   3.812   3.277  0.3641  0.7216 -0.2571
   88MOL   H35149245   3.505   3.915   3.301  2.3560 -0.6551 -0.9765
   88MOL   H35249246   3.484   3.744   3.482  0.1908 -1.0934  0.4577
   88MOL   H35349247   3.488   3.585   3.261  0.4106  1.1502  0.4230
   88MOL   H35449248   3.724   3.660   3.308 -0.2184  0.6108 -0.0494
   88MOL   H35549249   3.697   3.628   3.600 -0.5218 -1.5733  0.6753
   88MOL   H35649250   3.670   3.492   3.489  2.0599 -1.0829  0.4445
   88MOL   H35749251   3.900   3.524   3.424  1.0297 -2.0328  1.4992
   88MOL   H35849252   3.852   3.399   3.597 -2.6091  0.7774  0.5960
   88MOL   H35949253   3.899   3.741   3.643  1.3228  1.2042  0.0213
   88MOL   H36049254   4.117   3.798   3.600  0.9278 -0.3205 -0.9848
   88MOL   H36149255   4.121   3.631   3.637 -2.1173 -1.7842 -0.5527
   88MOL   H36249256   3.936   3.792   3.343  5.5538  1.3914  2.5206
   88MOL   H36349257   3.934   3.915   3.457 -0.1245  1.4381  0.2815
   88MOL   H36449258   3.716   3.909   3.375  1.2386  0.4151 -0.4687
   88MOL   H36549259   3.708   3.848   3.545 -1.4348  0.9255 -0.2212
   88MOL   O36649260   4.153   3.680   3.432  0.0675  0.2801 -0.6589
   88MOL   C36749261   4.223   3.797   3.382 -0.0723 -0.0225 -0.2327
   88MOL   C36849262   4.265   3.762   3.238  0.0024 -0.6222  0.7996
   88MOL   O36949263   4.150   3.748   3.157 -0.5358  0.6390  0.3716
   88MOL   C37049264   4.362   3.856   3.176 -0.2466  0.2865 -0.0379
   88MOL   C37149265   4.310   3.993   3.146 -0.6854  0.4030  0.2313
   88MOL   C37249266   4.416   4.091   3.097 -0.1737 -0.3805  0.2192
   88MOL   O37349267   4.366   4.220   3.070  0.1111  0.0745  0.1543
   88MOL   C37449268   4.487   4.039   2.974  0.0993 -0.5756 -0.0452
   88MOL   C37549269   4.606   4.121   2.932  0.1361  0.0865 -0.2936
   88MOL   C37649270   4.537   3.897   2.995  0.3832 -0.4070  0.0022
   88MOL   C37749271   4.432   3.802   3.051  0.6588  0.3184 -0.5182
   88MOL   H37849272   4.317   3.816   3.433 -0.3413 -2.0729  1.0865
   88MOL   H37949273   4.172   3.893   3.389  0.8730  0.3126  2.5779
   88MOL   H38049274   4.305   3.661   3.242 -0.4516 -0.9384 -1.5709
   88MOL   H38149275   4.102   3.680   3.202 -0.9020  0.8392  0.2904
   88MOL   H38249276   4.444   3.862   3.247 -0.0618 -1.4616 -0.0799
   88MOL   H38349277   4.228   3.987   3.074  1.2414 -0.3749 -1.9418
   88MOL   H38449278   4.259   4.017   3.239 -1.3736  0.3872 -0.1387
   88MOL   H38549279   4.488   4.104   3.178  0.2471 -1.4565  0.0333
   88MOL   H38649280   4.322   4.213   2.987  0.2864  1.0019 -0.0194
   88MOL   H38749281   4.415   4.041   2.893 -0.6243 -0.0069  0.6050
   88MOL   H38849282   4.641   4.078   2.838  0.6115  2.7012 -1.3560
   88MOL   H38949283   4.582   4.228   2.926  1.6058  0.4425  0.0844
   88MOL   H39049284   4.628   3.897   3.054 -0.8622 -2.6560  1.9993
   88MOL   H39149285   4.573   3.851   2.903 -0.4427 -0.8656 -0.1018
   88MOL   H39249286   4.481   3.707   3.075  2.0446  1.2060  0.2132
   88MOL   H39349287   4.359   3.780   2.974  1.1052  1.2640 -1.2223
   88MOL   O39449288   4.719   4.105   3.019 -0.0999  0.0053 -0.5527
   88MOL   C39549289   4.830   4.184   2.981  0.0176 -0.4430 -0.2945
   88MOL   C39649290   4.958   4.151   3.062  0.5884 -0.0773  0.7150
   88MOL   O39749291   5.034   4.047   3.002  0.0888  0.1473 -0.2700
   88MOL   C39849292   5.050   4.269   3.093 -0.0397 -0.1423  0.1152
   88MOL   C39949293   5.173   4.231   3.190  0.4427 -0.6656  0.2065
   88MOL   C40049294   5.268   4.346   3.230 -0.1034 -0.3839 -0.8972
   88MOL   O40149295   5.368   4.306   3.327  0.1317 -0.2788 -0.2684
   88MOL   C40249296   5.186   4.468   3.281 -0.7540 -0.0087 -0.1926
   88MOL   C40349297   5.286   4.590   3.304  0.3110  0.2986  0.0135
   88MOL   C40449298   5.079   4.497   3.175 -0.0418 -0.1541  0.1546
   88MOL   C40549299   4.977   4.383   3.162 -1.1952 -0.2247 -0.5933
   88MOL   H40649300   4.797   4.286   3.001  0.1507 -0.7346  1.4949
   88MOL   H40749301   4.857   4.183   2.875  0.6782 -1.6471 -0.1244
   88MOL   H40849302   4.915   4.104   3.151  1.9969  0.4217  1.6845
   88MOL   H40949303   5.023   4.057   2.909  0.1540  1.4409 -0.1405
   88MOL   H41049304   5.090   4.298   2.996 -0.2688  1.9579  0.6090
   88MOL   H41149305   5.130   4.192   3.282 -0.4620  0.4061  0.2537
   88MOL   H41249306   5.231   4.152   3.143  0.1075 -1.8248  1.7056
   88MOL   H41349307   5.319   4.376   3.138  0.4764 -3.7501 -1.7419
   88MOL   H41449308   5.420   4.383   3.345  1.4272 -1.3300  0.5983
   88MOL   H41549309   5.134   4.446   3.374  3.2466 -1.9882  1.7043
   88MOL   H41649310   5.383   4.551   3.335  0.2331  0.2901  0.2467
   88MOL   H41749311   5.317   4.634   3.209 -0.2988  2.3480  0.7540
   88MOL   H41849312   5.115   4.520   3.075  1.7023 -1.2301  0.5340
   88MOL   H41949313   5.026   4.587   3.209  0.6317  1.0976 -2.0295
   88MOL   H42049314   4.897   4.421   3.098  0.0829  2.1023 -0.8749
   88MOL   H42149315   4.927   4.344   3.251 -2.1862  0.6838 -0.7434
   88MOL   O42249316   5.222   4.695   3.386  0.1568 -0.0246  0.6122
   88MOL   C42349317   5.300   4.812   3.385 -0.4772 -0.2192  0.1150
   88MOL   C42449318   5.244   4.897   3.492  0.2173 -0.7436 -0.3504
   88MOL   O42549319   5.273   4.827   3.610 -0.4204  0.6111 -0.4334
   88MOL   C42649320   5.299   5.041   3.510 -1.0896  0.3833  0.4630
   88MOL   C42749321   5.224   5.139   3.419 -0.1047  0.6546 -0.1953
   88MOL   C42849322   5.266   5.286   3.450  0.4807  0.2361  0.8676
   88MOL   O42949323   5.191   5.364   3.354  0.4978 -0.6766  0.0353
   88MOL   C43049324   5.413   5.303   3.441  0.1868  0.9689 -0.1539
   88MOL   C43149325   5.458   5.445   3.472 -0.3759  0.3590  0.1837
   88MOL   C43249326   5.493   5.195   3.524  0.2242  0.2782 -0.0119
   88MOL   C43349327   5.449   5.053   3.489 -0.0447 -0.2726 -0.0960
   88MOL   H43449328   5.286   4.854   3.285 -0.1080 -2.2241 -0.7974
   88MOL   H43549329   5.405   4.786   3.404  0.9840  2.4228 -3.6761
   88MOL   H43649330   5.136   4.906   3.483  0.3125  0.4267 -0.3361
   88MOL   H43749331   5.260   4.736   3.588  1.9482 -0.4853  2.3152
   88MOL   H43849332   5.285   5.071   3.614  0.9359 -4.4670  2.2621
   88MOL   H43949333   5.241   5.112   3.315  1.2185  2.4089 -0.4642
   88MOL   H44049334   5.116   5.130   3.420  0.0537 -1.6918 -0.9437
   88MOL   H44149335   5.234   5.313   3.551 -1.0833 -0.6324  0.6040
   88MOL   H44249336   5.172   5.443   3.402 -0.5991  0.1436 -1.6997
   88MOL   H44349337   5.435   5.273   3.339  3.8585  0.1763  0.7926
   88MOL   H44449338   5.416   5.503   3.389 -1.9216 -1.2255 -0.1797
   88MOL   H44549339   5.431   5.486   3.570  1.2750  0.7447  0.4918
   88MOL   H44649340   5.475   5.216   3.629 -2.2262  2.6805 -0.8447
   88MOL   H44749341   5.601   5.196   3.509  0.6156  4.6628  2.2219
   88MOL   H44849342   5.505   4.984   3.551 -3.6152 -1.4512  1.9791
   88MOL   H44949343   5.479   5.030   3.387  2.4145  0.2477  0.4686
   88MOL   O45049344   5.603   5.450   3.467 -0.0714  0.0692 -0.6263
   88MOL   C45149345   5.662   5.577   3.486  0.1321  0.7788  0.0290
   88MOL   C45249346   5.811   5.548   3.498 -0.1042  0.1354  0.0601
   88MOL   O45349347   5.868   5.495   3.380 -0.4499  0.1229 -0.1507
   88MOL   C45449348   5.903   5.664   3.550  0.5749 -0.2169 -0.1536
   88MOL   C45549349   5.940   5.781   3.457 -0.5843  0.1718  0.7364
   88MOL   C45649350   6.016   5.888   3.539 -0.0513  0.5596 -0.1773
   88MOL   O45749351   6.061   5.982   3.444 -0.5145  0.5374  0.1913
   88MOL   C45849352   6.144   5.835   3.607 -0.9952 -0.3468 -1.0156
   88MOL   C45949353   6.211   5.956   3.693 -0.5027  0.5890 -0.5710
   88MOL   C46049354   6.118   5.710   3.688  0.8085 -0.2335 -0.1331
   88MOL   C46149355   6.031   5.609   3.606  0.1822  0.9732 -0.6457
   88MOL   H46249356   5.623   5.615   3.581 -2.7873  1.3217 -1.3355
   88MOL   H46349357   5.640   5.650   3.408 -1.8836 -1.5341 -1.6663
   88MOL   H46449358   5.819   5.471   3.575  0.1548 -0.7691 -0.8589
   88MOL   H46549359   5.809   5.425   3.355  0.1352 -0.3437 -0.2366
   88MOL   H46649360   5.847   5.712   3.629  1.0436 -0.5391  0.3798
   88MOL   H46749361   5.999   5.744   3.374  0.2414  1.1739  0.8706
   88MOL   H46849362   5.844   5.813   3.415 -1.1242  0.2040  1.9422
   88MOL   H46949363   5.956   5.938   3.614 -0.5639 -0.9030  0.4123
   88MOL   H47049364   6.135   6.034   3.473 -0.1241  0.5770 -0.8641
   88MOL   H47149365   6.214   5.802   3.530 -0.0564  0.2748 -0.4320
   88MOL   H47249366   6.140   5.992   3.768 -0.1865  1.1518 -0.5414
   88MOL   H47349367   6.294   5.908   3.746  0.1072  0.7035 -1.4257
   88MOL   H47449368   6.070   5.743   3.781  0.7066  0.1245 -0.3102
   88MOL   H47549369   6.207   5.664   3.730  0.7718 -0.1566  0.0327
   88MOL   H47649370   6.004   5.532   3.677 -1.0380 -0.2050 -2.3363
   88MOL   H47749371   6.088   5.558   3.528 -0.1893  0.9899 -0.9318
   88MOL   O47849372   6.254   6.060   3.609  0.0896 -0.1972  0.0005
   88MOL   C47949373   6.327   6.158   3.691 -0.2693 -0.3460  0.5649
   88MOL   C48049374   6.311   6.304   3.640  0.7796 -0.4983  0.5876
   88MOL   O48149375   6.348   6.312   3.501  0.6097  0.0344 -0.5187
   88MOL   C48249376   6.170   6.370   3.647  0.2582  0.2194 -0.1429
   88MOL   C48349377   6.057   6.286   3.599 -0.3290 -0.5259 -0.2271
   88MOL   C48449378   5.927   6.356   3.607 -1.2419  0.6517  0.2324
   88MOL   O48549379   5.819   6.277   3.567  0.6606  0.1264 -0.0629
   88MOL   C48649380   5.919   6.496   3.538  0.0328 -0.0583 -0.6266
   88MOL   C48749381   5.779   6.567   3.550  0.1024  0.2057 -0.1911
   88MOL   C48849382   6.025   6.584   3.609  0.9135  0.6529  0.0456
   88MOL   C48949383   6.163   6.518   3.588 -0.1708 -0.1416  0.0143
   88MOL   H49049384   6.432   6.129   3.698 -0.6042 -1.7007  0.1854
   88MOL   H49149385   6.289   6.155   3.793  2.6070  2.2206  1.7896
   88MOL   H49249386   6.371   6.374   3.698  2.1135 -0.6329 -0.6206
   88MOL   H49349387   6.299   6.242   3.462  2.8502  0.2372 -3.8949
   88MOL   H49449388   6.164   6.388   3.755  1.3526  2.3517 -0.4214
   88MOL   H49549389   6.071   6.260   3.494  2.9403 -0.0470  0.0300
   88MOL   H49649390   6.064   6.188   3.647  1.8359 -0.1623  0.2789
   88MOL   H49749391   5.911   6.378   3.712  0.4782  0.1530  0.6137
   88MOL   H49849392   5.830   6.268   3.473  1.9404 -1.5399  0.2255
   88MOL   H49949393   5.945   6.488   3.433  0.6448  1.0174 -0.5615
   88MOL   H50049394   5.692   6.509   3.520  1.1793 -1.5834  0.0232
   88MOL   H50149395   5.757   6.603   3.650 -0.2008  0.7943 -0.4691
   88MOL   H50249396   6.003   6.593   3.715  1.7662  0.2361  0.2626
   88MOL   H50349397   6.022   6.688   3.576  0.5318  1.0934  1.4570
   88MOL   H50449398   6.242   6.577   3.635  1.9034 -3.4389  0.7954
   88MOL   H50549399   6.171   6.503   3.480  1.6512 -0.9485  0.2524
   88MOL   O50649400   5.786   6.675   3.454 -0.0446 -0.0413 -0.0857
   88MOL   C50749401   5.655   6.721   3.426 -0.4628 -0.1554  0.8294
   88MOL   C50849402   5.671   6.871   3.383  0.1410 -0.6912 -0.1628
   88MOL   O50949403   5.731   6.865   3.254  0.6306  0.1199 -0.4858
   88MOL   C51049404   5.539   6.953   3.373  0.0780 -0.4283 -0.7227
   88MOL   C51149405   5.445   6.910   3.261  0.9134  0.2820 -0.5100
   88MOL   C51249406   5.313   6.997   3.259  0.7199 -0.0333 -0.3338
   88MOL   O51349407   5.257   6.974   3.136 -0.0558  0.9860 -0.0051
   88MOL   C51449408   5.340   7.151   3.242 -0.3111  0.2627 -0.0276
   88MOL   C51549409   5.213   7.231   3.254  0.1269 -0.7322  0.2275
   88MOL   C51649410   5.458   7.195   3.344  0.3841 -0.5237 -0.5554
   88MOL   C51749411   5.575   7.101   3.349  0.2478  0.0924 -0.6773
   88MOL   H51849412   5.582   6.723   3.507 -1.7834 -3.1066 -0.2155
   88MOL   H51949413   5.612   6.649   3.356  0.9072  0.2582 -0.4763
   88MOL   H52049414   5.747   6.916   3.446 -1.3614  3.5807 -1.2118
   88MOL   H52149415   5.657   6.882   3.198 -1.9755 -1.3252  2.3688
   88MOL   H52249416   5.488   6.950   3.469  0.2982 -1.5956 -0.6387
   88MOL   H52349417   5.500   6.921   3.167 -0.2841  0.7932 -1.1527
   88MOL   H52449418   5.422   6.805   3.279  0.6994  0.2343 -1.0661
   88MOL   H52549419   5.257   6.970   3.348  1.4481 -0.4333  0.0095
   88MOL   H52649420   5.200   6.900   3.155 -0.7597  1.5160 -0.0287
   88MOL   H52749421   5.377   7.167   3.141  0.0256  0.2650  0.0946
   88MOL   H52849422   5.132   7.200   3.188  0.4536 -1.9802  0.3998
   88MOL   H52949423   5.175   7.224   3.356 -0.4292 -0.5261  0.0366
   88MOL   H53049424   5.396   7.199   3.433 -0.3781 -0.8420 -1.0620
   88MOL   H53149425   5.488   7.300   3.337  1.8555 -0.9220 -0.3638
   88MOL   H53249426   5.630   7.140   3.435 -0.0632 -1.0041  0.0321
   88MOL   H53349427   5.630   7.102   3.255  0.1391  1.0725 -0.7343
   88MOL   O53449428   5.231   7.369   3.229 -0.7584  0.1278 -0.3756
   88MOL   C53549429   5.116   7.441   3.249 -0.4289 -0.0239  0.0082
   88MOL   C53649430   5.051   7.473   3.114 -0.1716  0.3417 -0.0104
   88MOL   O53749431   4.989   7.351   3.065 -0.6477 -0.0074 -0.3126
   88MOL   C53849432   4.935   7.570   3.118 -0.2121 -0.3917  0.0274
   88MOL   C53949433   4.856   7.592   2.982 -0.4794 -0.4484 -0.2486
   88MOL   C54049434   4.742   0.054   2.994 -0.2365  0.3824 -0.2088
   88MOL   O54149435   4.679   0.072   2.871 -0.2447  1.1215 -0.8523
   88MOL   C54249436   4.778   0.194   3.052  0.7278  0.2474  0.3066
   88MOL   C54349437   4.651   0.276   3.075  0.0236  0.0559 -0.4063
   88MOL   C54449438   4.865   0.182   3.182  0.3318  0.1505 -0.8958
   88MOL   C54549439   4.980   0.079   3.174 -0.2581  0.2573  0.2663
   88MOL   H54649440   5.154   7.531   3.298 -0.3791  0.2332 -0.4989
   88MOL   H54749441   5.044   7.391   3.315 -1.4327 -1.8390 -2.3979
   88MOL   H54849442   5.120   7.503   3.035 -0.5834 -0.2903 -0.6247
   88MOL   H54949443   5.048   7.295   3.016 -1.8086 -1.2512 -0.3324
   88MOL   H55049444   4.857   7.530   3.182 -0.8033  3.5285  1.9162
   88MOL   H55149445   4.919   0.004   2.903  0.7625 -0.7083  0.5759
   88MOL   H55249446   4.823   7.494   2.950  0.4527 -0.8919  0.1124
   88MOL   H55349447   4.668   0.011   3.061 -0.6388  0.6838 -0.4588
   88MOL   H55449448   4.608   0.010   2.866  0.3530  0.3482  0.0045
   88MOL   H55549449   4.835   0.250   2.978  1.7058  0.9578  1.5701
   88MOL   H55649450   4.598   0.248   3.165  0.3795  0.2860 -0.1246
   88MOL   H55749451   4.680   0.381   3.084 -0.0448 -0.1130  1.9955
   88MOL   H55849452   4.811   0.161   3.275 -0.2937 -2.3309 -1.7795
   88MOL   H55949453   4.902   0.284   3.188 -3.1162  1.4426 -0.0060
   88MOL   H56049454   5.025   0.060   3.271 -2.2932  1.9595  1.5984
   88MOL   H56149455   5.059   0.117   3.110 -2.6046  4.5677 -0.2352
   88MOL   H56249456   4.579   0.282   2.993 -1.3829 -4.1596  0.3941
   7.62948   7.62948   7.62948
