;
; Gromacs include topology (itp) file.
; For Molecular Group XYZ
; Force field scheme: opls2005
; Produced from DL_FIELD v4.11
;


[ moleculetype ]
; name    nrexcl
XYZ    3

[ atoms ]
; nr   type   resnr   residu    atom    cgnr    charge    mass
    1       OAL    1  MOL      O1     1  -0.6830000   15.9994
    2        CT    1  MOL      C2     2   0.1450000   12.0115
    3        CT    1  MOL      C3     3   0.2050000   12.0115
    4       OAL    1  MOL      O4     4  -0.6830000   15.9994
    5       CYA    1  MOL      C5     5  -0.0600000   12.0115
    6       CYA    1  MOL      C6     6  -0.1200000   12.0115
    7       CYA    1  MOL      C7     7   0.2050000   12.0115
    8       OAL    1  MOL      O8     8  -0.6830000   15.9994
    9       CYA    1  MOL      C9     9  -0.0600000   12.0115
   10        CT    1  MOL     C10    10   0.1400000   12.0115
   11       CYA    1  MOL     C11    11  -0.1200000   12.0115
   12       CYA    1  MOL     C12    12  -0.1200000   12.0115
   13        HC    1  MOL     H13    13   0.0600000    1.0080
   14        HC    1  MOL     H14    14   0.0600000    1.0080
   15        HC    1  MOL     H15    15   0.0600000    1.0080
   16        HO    1  MOL     H16    16   0.4180000    1.0080
   17        HC    1  MOL     H17    17   0.0600000    1.0080
   18        HC    1  MOL     H18    18   0.0600000    1.0080
   19        HC    1  MOL     H19    19   0.0600000    1.0080
   20        HC    1  MOL     H20    20   0.0600000    1.0080
   21        HO    1  MOL     H21    21   0.4180000    1.0080
   22        HC    1  MOL     H22    22   0.0600000    1.0080
   23        HC    1  MOL     H23    23   0.0300000    1.0080
   24        HC    1  MOL     H24    24   0.0300000    1.0080
   25        HC    1  MOL     H25    25   0.0600000    1.0080
   26        HC    1  MOL     H26    26   0.0600000    1.0080
   27        HC    1  MOL     H27    27   0.0600000    1.0080
   28        HC    1  MOL     H28    28   0.0600000    1.0080
   29        HO    1  MOL     H29    29   0.4180000    1.0080
   30        OS    1  MOL     O30    30  -0.4000000   15.9994
   31        CT    1  MOL     C31    31   0.1400000   12.0115
   32        CT    1  MOL     C32    32   0.2050000   12.0115
   33       OAL    1  MOL     O33    33  -0.6830000   15.9994
   34       CYA    1  MOL     C34    34  -0.0600000   12.0115
   35       CYA    1  MOL     C35    35  -0.1200000   12.0115
   36       CYA    1  MOL     C36    36   0.2050000   12.0115
   37       OAL    1  MOL     O37    37  -0.6830000   15.9994
   38       CYA    1  MOL     C38    38  -0.0600000   12.0115
   39        CT    1  MOL     C39    39   0.1400000   12.0115
   40       CYA    1  MOL     C40    40  -0.1200000   12.0115
   41       CYA    1  MOL     C41    41  -0.1200000   12.0115
   42        HC    1  MOL     H42    42   0.0300000    1.0080
   43        HC    1  MOL     H43    43   0.0300000    1.0080
   44        HC    1  MOL     H44    44   0.0600000    1.0080
   45        HO    1  MOL     H45    45   0.4180000    1.0080
   46        HC    1  MOL     H46    46   0.0600000    1.0080
   47        HC    1  MOL     H47    47   0.0600000    1.0080
   48        HC    1  MOL     H48    48   0.0600000    1.0080
   49        HC    1  MOL     H49    49   0.0600000    1.0080
   50        HO    1  MOL     H50    50   0.4180000    1.0080
   51        HC    1  MOL     H51    51   0.0600000    1.0080
   52        HC    1  MOL     H52    52   0.0300000    1.0080
   53        HC    1  MOL     H53    53   0.0300000    1.0080
   54        HC    1  MOL     H54    54   0.0600000    1.0080
   55        HC    1  MOL     H55    55   0.0600000    1.0080
   56        HC    1  MOL     H56    56   0.0600000    1.0080
   57        HC    1  MOL     H57    57   0.0600000    1.0080
   58        OS    1  MOL     O58    58  -0.4000000   15.9994
   59        CT    1  MOL     C59    59   0.1400000   12.0115
   60        CT    1  MOL     C60    60   0.2050000   12.0115
   61       OAL    1  MOL     O61    61  -0.6830000   15.9994
   62       CYA    1  MOL     C62    62  -0.0600000   12.0115
   63       CYA    1  MOL     C63    63  -0.1200000   12.0115
   64       CYA    1  MOL     C64    64   0.2050000   12.0115
   65       OAL    1  MOL     O65    65  -0.6830000   15.9994
   66       CYA    1  MOL     C66    66  -0.0600000   12.0115
   67        CT    1  MOL     C67    67   0.1400000   12.0115
   68       CYA    1  MOL     C68    68  -0.1200000   12.0115
   69       CYA    1  MOL     C69    69  -0.1200000   12.0115
   70        HC    1  MOL     H70    70   0.0300000    1.0080
   71        HC    1  MOL     H71    71   0.0300000    1.0080
   72        HC    1  MOL     H72    72   0.0600000    1.0080
   73        HO    1  MOL     H73    73   0.4180000    1.0080
   74        HC    1  MOL     H74    74   0.0600000    1.0080
   75        HC    1  MOL     H75    75   0.0600000    1.0080
   76        HC    1  MOL     H76    76   0.0600000    1.0080
   77        HC    1  MOL     H77    77   0.0600000    1.0080
   78        HO    1  MOL     H78    78   0.4180000    1.0080
   79        HC    1  MOL     H79    79   0.0600000    1.0080
   80        HC    1  MOL     H80    80   0.0300000    1.0080
   81        HC    1  MOL     H81    81   0.0300000    1.0080
   82        HC    1  MOL     H82    82   0.0600000    1.0080
   83        HC    1  MOL     H83    83   0.0600000    1.0080
   84        HC    1  MOL     H84    84   0.0600000    1.0080
   85        HC    1  MOL     H85    85   0.0600000    1.0080
   86        OS    1  MOL     O86    86  -0.4000000   15.9994
   87        CT    1  MOL     C87    87   0.1400000   12.0115
   88        CT    1  MOL     C88    88   0.2050000   12.0115
   89       OAL    1  MOL     O89    89  -0.6830000   15.9994
   90       CYA    1  MOL     C90    90  -0.0600000   12.0115
   91       CYA    1  MOL     C91    91  -0.1200000   12.0115
   92       CYA    1  MOL     C92    92   0.2050000   12.0115
   93       OAL    1  MOL     O93    93  -0.6830000   15.9994
   94       CYA    1  MOL     C94    94  -0.0600000   12.0115
   95        CT    1  MOL     C95    95   0.1400000   12.0115
   96       CYA    1  MOL     C96    96  -0.1200000   12.0115
   97       CYA    1  MOL     C97    97  -0.1200000   12.0115
   98        HC    1  MOL     H98    98   0.0300000    1.0080
   99        HC    1  MOL     H99    99   0.0300000    1.0080
  100        HC    1  MOL    H100   100   0.0600000    1.0080
  101        HO    1  MOL    H101   101   0.4180000    1.0080
  102        HC    1  MOL    H102   102   0.0600000    1.0080
  103        HC    1  MOL    H103   103   0.0600000    1.0080
  104        HC    1  MOL    H104   104   0.0600000    1.0080
  105        HC    1  MOL    H105   105   0.0600000    1.0080
  106        HO    1  MOL    H106   106   0.4180000    1.0080
  107        HC    1  MOL    H107   107   0.0600000    1.0080
  108        HC    1  MOL    H108   108   0.0300000    1.0080
  109        HC    1  MOL    H109   109   0.0300000    1.0080
  110        HC    1  MOL    H110   110   0.0600000    1.0080
  111        HC    1  MOL    H111   111   0.0600000    1.0080
  112        HC    1  MOL    H112   112   0.0600000    1.0080
  113        HC    1  MOL    H113   113   0.0600000    1.0080
  114        OS    1  MOL    O114   114  -0.4000000   15.9994
  115        CT    1  MOL    C115   115   0.1400000   12.0115
  116        CT    1  MOL    C116   116   0.2050000   12.0115
  117       OAL    1  MOL    O117   117  -0.6830000   15.9994
  118       CYA    1  MOL    C118   118  -0.0600000   12.0115
  119       CYA    1  MOL    C119   119  -0.1200000   12.0115
  120       CYA    1  MOL    C120   120   0.2050000   12.0115
  121       OAL    1  MOL    O121   121  -0.6830000   15.9994
  122       CYA    1  MOL    C122   122  -0.0600000   12.0115
  123        CT    1  MOL    C123   123   0.1400000   12.0115
  124       CYA    1  MOL    C124   124  -0.1200000   12.0115
  125       CYA    1  MOL    C125   125  -0.1200000   12.0115
  126        HC    1  MOL    H126   126   0.0300000    1.0080
  127        HC    1  MOL    H127   127   0.0300000    1.0080
  128        HC    1  MOL    H128   128   0.0600000    1.0080
  129        HO    1  MOL    H129   129   0.4180000    1.0080
  130        HC    1  MOL    H130   130   0.0600000    1.0080
  131        HC    1  MOL    H131   131   0.0600000    1.0080
  132        HC    1  MOL    H132   132   0.0600000    1.0080
  133        HC    1  MOL    H133   133   0.0600000    1.0080
  134        HO    1  MOL    H134   134   0.4180000    1.0080
  135        HC    1  MOL    H135   135   0.0600000    1.0080
  136        HC    1  MOL    H136   136   0.0300000    1.0080
  137        HC    1  MOL    H137   137   0.0300000    1.0080
  138        HC    1  MOL    H138   138   0.0600000    1.0080
  139        HC    1  MOL    H139   139   0.0600000    1.0080
  140        HC    1  MOL    H140   140   0.0600000    1.0080
  141        HC    1  MOL    H141   141   0.0600000    1.0080
  142        OS    1  MOL    O142   142  -0.4000000   15.9994
  143        CT    1  MOL    C143   143   0.1400000   12.0115
  144        CT    1  MOL    C144   144   0.2050000   12.0115
  145       OAL    1  MOL    O145   145  -0.6830000   15.9994
  146       CYA    1  MOL    C146   146  -0.0600000   12.0115
  147       CYA    1  MOL    C147   147  -0.1200000   12.0115
  148       CYA    1  MOL    C148   148   0.2050000   12.0115
  149       OAL    1  MOL    O149   149  -0.6830000   15.9994
  150       CYA    1  MOL    C150   150  -0.0600000   12.0115
  151        CT    1  MOL    C151   151   0.1400000   12.0115
  152       CYA    1  MOL    C152   152  -0.1200000   12.0115
  153       CYA    1  MOL    C153   153  -0.1200000   12.0115
  154        HC    1  MOL    H154   154   0.0300000    1.0080
  155        HC    1  MOL    H155   155   0.0300000    1.0080
  156        HC    1  MOL    H156   156   0.0600000    1.0080
  157        HO    1  MOL    H157   157   0.4180000    1.0080
  158        HC    1  MOL    H158   158   0.0600000    1.0080
  159        HC    1  MOL    H159   159   0.0600000    1.0080
  160        HC    1  MOL    H160   160   0.0600000    1.0080
  161        HC    1  MOL    H161   161   0.0600000    1.0080
  162        HO    1  MOL    H162   162   0.4180000    1.0080
  163        HC    1  MOL    H163   163   0.0600000    1.0080
  164        HC    1  MOL    H164   164   0.0300000    1.0080
  165        HC    1  MOL    H165   165   0.0300000    1.0080
  166        HC    1  MOL    H166   166   0.0600000    1.0080
  167        HC    1  MOL    H167   167   0.0600000    1.0080
  168        HC    1  MOL    H168   168   0.0600000    1.0080
  169        HC    1  MOL    H169   169   0.0600000    1.0080
  170        OS    1  MOL    O170   170  -0.4000000   15.9994
  171        CT    1  MOL    C171   171   0.1400000   12.0115
  172        CT    1  MOL    C172   172   0.2050000   12.0115
  173       OAL    1  MOL    O173   173  -0.6830000   15.9994
  174       CYA    1  MOL    C174   174  -0.0600000   12.0115
  175       CYA    1  MOL    C175   175  -0.1200000   12.0115
  176       CYA    1  MOL    C176   176   0.2050000   12.0115
  177       OAL    1  MOL    O177   177  -0.6830000   15.9994
  178       CYA    1  MOL    C178   178  -0.0600000   12.0115
  179        CT    1  MOL    C179   179   0.1400000   12.0115
  180       CYA    1  MOL    C180   180  -0.1200000   12.0115
  181       CYA    1  MOL    C181   181  -0.1200000   12.0115
  182        HC    1  MOL    H182   182   0.0300000    1.0080
  183        HC    1  MOL    H183   183   0.0300000    1.0080
  184        HC    1  MOL    H184   184   0.0600000    1.0080
  185        HO    1  MOL    H185   185   0.4180000    1.0080
  186        HC    1  MOL    H186   186   0.0600000    1.0080
  187        HC    1  MOL    H187   187   0.0600000    1.0080
  188        HC    1  MOL    H188   188   0.0600000    1.0080
  189        HC    1  MOL    H189   189   0.0600000    1.0080
  190        HO    1  MOL    H190   190   0.4180000    1.0080
  191        HC    1  MOL    H191   191   0.0600000    1.0080
  192        HC    1  MOL    H192   192   0.0300000    1.0080
  193        HC    1  MOL    H193   193   0.0300000    1.0080
  194        HC    1  MOL    H194   194   0.0600000    1.0080
  195        HC    1  MOL    H195   195   0.0600000    1.0080
  196        HC    1  MOL    H196   196   0.0600000    1.0080
  197        HC    1  MOL    H197   197   0.0600000    1.0080
  198        OS    1  MOL    O198   198  -0.4000000   15.9994
  199        CT    1  MOL    C199   199   0.1400000   12.0115
  200        CT    1  MOL    C200   200   0.2050000   12.0115
  201       OAL    1  MOL    O201   201  -0.6830000   15.9994
  202       CYA    1  MOL    C202   202  -0.0600000   12.0115
  203       CYA    1  MOL    C203   203  -0.1200000   12.0115
  204       CYA    1  MOL    C204   204   0.2050000   12.0115
  205       OAL    1  MOL    O205   205  -0.6830000   15.9994
  206       CYA    1  MOL    C206   206  -0.0600000   12.0115
  207        CT    1  MOL    C207   207   0.1400000   12.0115
  208       CYA    1  MOL    C208   208  -0.1200000   12.0115
  209       CYA    1  MOL    C209   209  -0.1200000   12.0115
  210        HC    1  MOL    H210   210   0.0300000    1.0080
  211        HC    1  MOL    H211   211   0.0300000    1.0080
  212        HC    1  MOL    H212   212   0.0600000    1.0080
  213        HO    1  MOL    H213   213   0.4180000    1.0080
  214        HC    1  MOL    H214   214   0.0600000    1.0080
  215        HC    1  MOL    H215   215   0.0600000    1.0080
  216        HC    1  MOL    H216   216   0.0600000    1.0080
  217        HC    1  MOL    H217   217   0.0600000    1.0080
  218        HO    1  MOL    H218   218   0.4180000    1.0080
  219        HC    1  MOL    H219   219   0.0600000    1.0080
  220        HC    1  MOL    H220   220   0.0300000    1.0080
  221        HC    1  MOL    H221   221   0.0300000    1.0080
  222        HC    1  MOL    H222   222   0.0600000    1.0080
  223        HC    1  MOL    H223   223   0.0600000    1.0080
  224        HC    1  MOL    H224   224   0.0600000    1.0080
  225        HC    1  MOL    H225   225   0.0600000    1.0080
  226        OS    1  MOL    O226   226  -0.4000000   15.9994
  227        CT    1  MOL    C227   227   0.1400000   12.0115
  228        CT    1  MOL    C228   228   0.2050000   12.0115
  229       OAL    1  MOL    O229   229  -0.6830000   15.9994
  230       CYA    1  MOL    C230   230  -0.0600000   12.0115
  231       CYA    1  MOL    C231   231  -0.1200000   12.0115
  232       CYA    1  MOL    C232   232   0.2050000   12.0115
  233       OAL    1  MOL    O233   233  -0.6830000   15.9994
  234       CYA    1  MOL    C234   234  -0.0600000   12.0115
  235        CT    1  MOL    C235   235   0.1400000   12.0115
  236       CYA    1  MOL    C236   236  -0.1200000   12.0115
  237       CYA    1  MOL    C237   237  -0.1200000   12.0115
  238        HC    1  MOL    H238   238   0.0300000    1.0080
  239        HC    1  MOL    H239   239   0.0300000    1.0080
  240        HC    1  MOL    H240   240   0.0600000    1.0080
  241        HO    1  MOL    H241   241   0.4180000    1.0080
  242        HC    1  MOL    H242   242   0.0600000    1.0080
  243        HC    1  MOL    H243   243   0.0600000    1.0080
  244        HC    1  MOL    H244   244   0.0600000    1.0080
  245        HC    1  MOL    H245   245   0.0600000    1.0080
  246        HO    1  MOL    H246   246   0.4180000    1.0080
  247        HC    1  MOL    H247   247   0.0600000    1.0080
  248        HC    1  MOL    H248   248   0.0300000    1.0080
  249        HC    1  MOL    H249   249   0.0300000    1.0080
  250        HC    1  MOL    H250   250   0.0600000    1.0080
  251        HC    1  MOL    H251   251   0.0600000    1.0080
  252        HC    1  MOL    H252   252   0.0600000    1.0080
  253        HC    1  MOL    H253   253   0.0600000    1.0080
  254        OS    1  MOL    O254   254  -0.4000000   15.9994
  255        CT    1  MOL    C255   255   0.1400000   12.0115
  256        CT    1  MOL    C256   256   0.2050000   12.0115
  257       OAL    1  MOL    O257   257  -0.6830000   15.9994
  258       CYA    1  MOL    C258   258  -0.0600000   12.0115
  259       CYA    1  MOL    C259   259  -0.1200000   12.0115
  260       CYA    1  MOL    C260   260   0.2050000   12.0115
  261       OAL    1  MOL    O261   261  -0.6830000   15.9994
  262       CYA    1  MOL    C262   262  -0.0600000   12.0115
  263        CT    1  MOL    C263   263   0.1400000   12.0115
  264       CYA    1  MOL    C264   264  -0.1200000   12.0115
  265       CYA    1  MOL    C265   265  -0.1200000   12.0115
  266        HC    1  MOL    H266   266   0.0300000    1.0080
  267        HC    1  MOL    H267   267   0.0300000    1.0080
  268        HC    1  MOL    H268   268   0.0600000    1.0080
  269        HO    1  MOL    H269   269   0.4180000    1.0080
  270        HC    1  MOL    H270   270   0.0600000    1.0080
  271        HC    1  MOL    H271   271   0.0600000    1.0080
  272        HC    1  MOL    H272   272   0.0600000    1.0080
  273        HC    1  MOL    H273   273   0.0600000    1.0080
  274        HO    1  MOL    H274   274   0.4180000    1.0080
  275        HC    1  MOL    H275   275   0.0600000    1.0080
  276        HC    1  MOL    H276   276   0.0300000    1.0080
  277        HC    1  MOL    H277   277   0.0300000    1.0080
  278        HC    1  MOL    H278   278   0.0600000    1.0080
  279        HC    1  MOL    H279   279   0.0600000    1.0080
  280        HC    1  MOL    H280   280   0.0600000    1.0080
  281        HC    1  MOL    H281   281   0.0600000    1.0080
  282        OS    1  MOL    O282   282  -0.4000000   15.9994
  283        CT    1  MOL    C283   283   0.1400000   12.0115
  284        CT    1  MOL    C284   284   0.2050000   12.0115
  285       OAL    1  MOL    O285   285  -0.6830000   15.9994
  286       CYA    1  MOL    C286   286  -0.0600000   12.0115
  287       CYA    1  MOL    C287   287  -0.1200000   12.0115
  288       CYA    1  MOL    C288   288   0.2050000   12.0115
  289       OAL    1  MOL    O289   289  -0.6830000   15.9994
  290       CYA    1  MOL    C290   290  -0.0600000   12.0115
  291        CT    1  MOL    C291   291   0.1400000   12.0115
  292       CYA    1  MOL    C292   292  -0.1200000   12.0115
  293       CYA    1  MOL    C293   293  -0.1200000   12.0115
  294        HC    1  MOL    H294   294   0.0300000    1.0080
  295        HC    1  MOL    H295   295   0.0300000    1.0080
  296        HC    1  MOL    H296   296   0.0600000    1.0080
  297        HO    1  MOL    H297   297   0.4180000    1.0080
  298        HC    1  MOL    H298   298   0.0600000    1.0080
  299        HC    1  MOL    H299   299   0.0600000    1.0080
  300        HC    1  MOL    H300   300   0.0600000    1.0080
  301        HC    1  MOL    H301   301   0.0600000    1.0080
  302        HO    1  MOL    H302   302   0.4180000    1.0080
  303        HC    1  MOL    H303   303   0.0600000    1.0080
  304        HC    1  MOL    H304   304   0.0300000    1.0080
  305        HC    1  MOL    H305   305   0.0300000    1.0080
  306        HC    1  MOL    H306   306   0.0600000    1.0080
  307        HC    1  MOL    H307   307   0.0600000    1.0080
  308        HC    1  MOL    H308   308   0.0600000    1.0080
  309        HC    1  MOL    H309   309   0.0600000    1.0080
  310        OS    1  MOL    O310   310  -0.4000000   15.9994
  311        CT    1  MOL    C311   311   0.1400000   12.0115
  312        CT    1  MOL    C312   312   0.2050000   12.0115
  313       OAL    1  MOL    O313   313  -0.6830000   15.9994
  314       CYA    1  MOL    C314   314  -0.0600000   12.0115
  315       CYA    1  MOL    C315   315  -0.1200000   12.0115
  316       CYA    1  MOL    C316   316   0.2050000   12.0115
  317       OAL    1  MOL    O317   317  -0.6830000   15.9994
  318       CYA    1  MOL    C318   318  -0.0600000   12.0115
  319        CT    1  MOL    C319   319   0.1400000   12.0115
  320       CYA    1  MOL    C320   320  -0.1200000   12.0115
  321       CYA    1  MOL    C321   321  -0.1200000   12.0115
  322        HC    1  MOL    H322   322   0.0300000    1.0080
  323        HC    1  MOL    H323   323   0.0300000    1.0080
  324        HC    1  MOL    H324   324   0.0600000    1.0080
  325        HO    1  MOL    H325   325   0.4180000    1.0080
  326        HC    1  MOL    H326   326   0.0600000    1.0080
  327        HC    1  MOL    H327   327   0.0600000    1.0080
  328        HC    1  MOL    H328   328   0.0600000    1.0080
  329        HC    1  MOL    H329   329   0.0600000    1.0080
  330        HO    1  MOL    H330   330   0.4180000    1.0080
  331        HC    1  MOL    H331   331   0.0600000    1.0080
  332        HC    1  MOL    H332   332   0.0300000    1.0080
  333        HC    1  MOL    H333   333   0.0300000    1.0080
  334        HC    1  MOL    H334   334   0.0600000    1.0080
  335        HC    1  MOL    H335   335   0.0600000    1.0080
  336        HC    1  MOL    H336   336   0.0600000    1.0080
  337        HC    1  MOL    H337   337   0.0600000    1.0080
  338        OS    1  MOL    O338   338  -0.4000000   15.9994
  339        CT    1  MOL    C339   339   0.1400000   12.0115
  340        CT    1  MOL    C340   340   0.2050000   12.0115
  341       OAL    1  MOL    O341   341  -0.6830000   15.9994
  342       CYA    1  MOL    C342   342  -0.0600000   12.0115
  343       CYA    1  MOL    C343   343  -0.1200000   12.0115
  344       CYA    1  MOL    C344   344   0.2050000   12.0115
  345       OAL    1  MOL    O345   345  -0.6830000   15.9994
  346       CYA    1  MOL    C346   346  -0.0600000   12.0115
  347        CT    1  MOL    C347   347   0.1400000   12.0115
  348       CYA    1  MOL    C348   348  -0.1200000   12.0115
  349       CYA    1  MOL    C349   349  -0.1200000   12.0115
  350        HC    1  MOL    H350   350   0.0300000    1.0080
  351        HC    1  MOL    H351   351   0.0300000    1.0080
  352        HC    1  MOL    H352   352   0.0600000    1.0080
  353        HO    1  MOL    H353   353   0.4180000    1.0080
  354        HC    1  MOL    H354   354   0.0600000    1.0080
  355        HC    1  MOL    H355   355   0.0600000    1.0080
  356        HC    1  MOL    H356   356   0.0600000    1.0080
  357        HC    1  MOL    H357   357   0.0600000    1.0080
  358        HO    1  MOL    H358   358   0.4180000    1.0080
  359        HC    1  MOL    H359   359   0.0600000    1.0080
  360        HC    1  MOL    H360   360   0.0300000    1.0080
  361        HC    1  MOL    H361   361   0.0300000    1.0080
  362        HC    1  MOL    H362   362   0.0600000    1.0080
  363        HC    1  MOL    H363   363   0.0600000    1.0080
  364        HC    1  MOL    H364   364   0.0600000    1.0080
  365        HC    1  MOL    H365   365   0.0600000    1.0080
  366        OS    1  MOL    O366   366  -0.4000000   15.9994
  367        CT    1  MOL    C367   367   0.1400000   12.0115
  368        CT    1  MOL    C368   368   0.2050000   12.0115
  369       OAL    1  MOL    O369   369  -0.6830000   15.9994
  370       CYA    1  MOL    C370   370  -0.0600000   12.0115
  371       CYA    1  MOL    C371   371  -0.1200000   12.0115
  372       CYA    1  MOL    C372   372   0.2050000   12.0115
  373       OAL    1  MOL    O373   373  -0.6830000   15.9994
  374       CYA    1  MOL    C374   374  -0.0600000   12.0115
  375        CT    1  MOL    C375   375   0.1400000   12.0115
  376       CYA    1  MOL    C376   376  -0.1200000   12.0115
  377       CYA    1  MOL    C377   377  -0.1200000   12.0115
  378        HC    1  MOL    H378   378   0.0300000    1.0080
  379        HC    1  MOL    H379   379   0.0300000    1.0080
  380        HC    1  MOL    H380   380   0.0600000    1.0080
  381        HO    1  MOL    H381   381   0.4180000    1.0080
  382        HC    1  MOL    H382   382   0.0600000    1.0080
  383        HC    1  MOL    H383   383   0.0600000    1.0080
  384        HC    1  MOL    H384   384   0.0600000    1.0080
  385        HC    1  MOL    H385   385   0.0600000    1.0080
  386        HO    1  MOL    H386   386   0.4180000    1.0080
  387        HC    1  MOL    H387   387   0.0600000    1.0080
  388        HC    1  MOL    H388   388   0.0300000    1.0080
  389        HC    1  MOL    H389   389   0.0300000    1.0080
  390        HC    1  MOL    H390   390   0.0600000    1.0080
  391        HC    1  MOL    H391   391   0.0600000    1.0080
  392        HC    1  MOL    H392   392   0.0600000    1.0080
  393        HC    1  MOL    H393   393   0.0600000    1.0080
  394        OS    1  MOL    O394   394  -0.4000000   15.9994
  395        CT    1  MOL    C395   395   0.1400000   12.0115
  396        CT    1  MOL    C396   396   0.2050000   12.0115
  397       OAL    1  MOL    O397   397  -0.6830000   15.9994
  398       CYA    1  MOL    C398   398  -0.0600000   12.0115
  399       CYA    1  MOL    C399   399  -0.1200000   12.0115
  400       CYA    1  MOL    C400   400   0.2050000   12.0115
  401       OAL    1  MOL    O401   401  -0.6830000   15.9994
  402       CYA    1  MOL    C402   402  -0.0600000   12.0115
  403        CT    1  MOL    C403   403   0.1400000   12.0115
  404       CYA    1  MOL    C404   404  -0.1200000   12.0115
  405       CYA    1  MOL    C405   405  -0.1200000   12.0115
  406        HC    1  MOL    H406   406   0.0300000    1.0080
  407        HC    1  MOL    H407   407   0.0300000    1.0080
  408        HC    1  MOL    H408   408   0.0600000    1.0080
  409        HO    1  MOL    H409   409   0.4180000    1.0080
  410        HC    1  MOL    H410   410   0.0600000    1.0080
  411        HC    1  MOL    H411   411   0.0600000    1.0080
  412        HC    1  MOL    H412   412   0.0600000    1.0080
  413        HC    1  MOL    H413   413   0.0600000    1.0080
  414        HO    1  MOL    H414   414   0.4180000    1.0080
  415        HC    1  MOL    H415   415   0.0600000    1.0080
  416        HC    1  MOL    H416   416   0.0300000    1.0080
  417        HC    1  MOL    H417   417   0.0300000    1.0080
  418        HC    1  MOL    H418   418   0.0600000    1.0080
  419        HC    1  MOL    H419   419   0.0600000    1.0080
  420        HC    1  MOL    H420   420   0.0600000    1.0080
  421        HC    1  MOL    H421   421   0.0600000    1.0080
  422        OS    1  MOL    O422   422  -0.4000000   15.9994
  423        CT    1  MOL    C423   423   0.1400000   12.0115
  424        CT    1  MOL    C424   424   0.2050000   12.0115
  425       OAL    1  MOL    O425   425  -0.6830000   15.9994
  426       CYA    1  MOL    C426   426  -0.0600000   12.0115
  427       CYA    1  MOL    C427   427  -0.1200000   12.0115
  428       CYA    1  MOL    C428   428   0.2050000   12.0115
  429       OAL    1  MOL    O429   429  -0.6830000   15.9994
  430       CYA    1  MOL    C430   430  -0.0600000   12.0115
  431        CT    1  MOL    C431   431   0.1400000   12.0115
  432       CYA    1  MOL    C432   432  -0.1200000   12.0115
  433       CYA    1  MOL    C433   433  -0.1200000   12.0115
  434        HC    1  MOL    H434   434   0.0300000    1.0080
  435        HC    1  MOL    H435   435   0.0300000    1.0080
  436        HC    1  MOL    H436   436   0.0600000    1.0080
  437        HO    1  MOL    H437   437   0.4180000    1.0080
  438        HC    1  MOL    H438   438   0.0600000    1.0080
  439        HC    1  MOL    H439   439   0.0600000    1.0080
  440        HC    1  MOL    H440   440   0.0600000    1.0080
  441        HC    1  MOL    H441   441   0.0600000    1.0080
  442        HO    1  MOL    H442   442   0.4180000    1.0080
  443        HC    1  MOL    H443   443   0.0600000    1.0080
  444        HC    1  MOL    H444   444   0.0300000    1.0080
  445        HC    1  MOL    H445   445   0.0300000    1.0080
  446        HC    1  MOL    H446   446   0.0600000    1.0080
  447        HC    1  MOL    H447   447   0.0600000    1.0080
  448        HC    1  MOL    H448   448   0.0600000    1.0080
  449        HC    1  MOL    H449   449   0.0600000    1.0080
  450        OS    1  MOL    O450   450  -0.4000000   15.9994
  451        CT    1  MOL    C451   451   0.1400000   12.0115
  452        CT    1  MOL    C452   452   0.2050000   12.0115
  453       OAL    1  MOL    O453   453  -0.6830000   15.9994
  454       CYA    1  MOL    C454   454  -0.0600000   12.0115
  455       CYA    1  MOL    C455   455  -0.1200000   12.0115
  456       CYA    1  MOL    C456   456   0.2050000   12.0115
  457       OAL    1  MOL    O457   457  -0.6830000   15.9994
  458       CYA    1  MOL    C458   458  -0.0600000   12.0115
  459        CT    1  MOL    C459   459   0.1400000   12.0115
  460       CYA    1  MOL    C460   460  -0.1200000   12.0115
  461       CYA    1  MOL    C461   461  -0.1200000   12.0115
  462        HC    1  MOL    H462   462   0.0300000    1.0080
  463        HC    1  MOL    H463   463   0.0300000    1.0080
  464        HC    1  MOL    H464   464   0.0600000    1.0080
  465        HO    1  MOL    H465   465   0.4180000    1.0080
  466        HC    1  MOL    H466   466   0.0600000    1.0080
  467        HC    1  MOL    H467   467   0.0600000    1.0080
  468        HC    1  MOL    H468   468   0.0600000    1.0080
  469        HC    1  MOL    H469   469   0.0600000    1.0080
  470        HO    1  MOL    H470   470   0.4180000    1.0080
  471        HC    1  MOL    H471   471   0.0600000    1.0080
  472        HC    1  MOL    H472   472   0.0300000    1.0080
  473        HC    1  MOL    H473   473   0.0300000    1.0080
  474        HC    1  MOL    H474   474   0.0600000    1.0080
  475        HC    1  MOL    H475   475   0.0600000    1.0080
  476        HC    1  MOL    H476   476   0.0600000    1.0080
  477        HC    1  MOL    H477   477   0.0600000    1.0080
  478        OS    1  MOL    O478   478  -0.4000000   15.9994
  479        CT    1  MOL    C479   479   0.1400000   12.0115
  480        CT    1  MOL    C480   480   0.2050000   12.0115
  481       OAL    1  MOL    O481   481  -0.6830000   15.9994
  482       CYA    1  MOL    C482   482  -0.0600000   12.0115
  483       CYA    1  MOL    C483   483  -0.1200000   12.0115
  484       CYA    1  MOL    C484   484   0.2050000   12.0115
  485       OAL    1  MOL    O485   485  -0.6830000   15.9994
  486       CYA    1  MOL    C486   486  -0.0600000   12.0115
  487        CT    1  MOL    C487   487   0.1400000   12.0115
  488       CYA    1  MOL    C488   488  -0.1200000   12.0115
  489       CYA    1  MOL    C489   489  -0.1200000   12.0115
  490        HC    1  MOL    H490   490   0.0300000    1.0080
  491        HC    1  MOL    H491   491   0.0300000    1.0080
  492        HC    1  MOL    H492   492   0.0600000    1.0080
  493        HO    1  MOL    H493   493   0.4180000    1.0080
  494        HC    1  MOL    H494   494   0.0600000    1.0080
  495        HC    1  MOL    H495   495   0.0600000    1.0080
  496        HC    1  MOL    H496   496   0.0600000    1.0080
  497        HC    1  MOL    H497   497   0.0600000    1.0080
  498        HO    1  MOL    H498   498   0.4180000    1.0080
  499        HC    1  MOL    H499   499   0.0600000    1.0080
  500        HC    1  MOL    H500   500   0.0300000    1.0080
  501        HC    1  MOL    H501   501   0.0300000    1.0080
  502        HC    1  MOL    H502   502   0.0600000    1.0080
  503        HC    1  MOL    H503   503   0.0600000    1.0080
  504        HC    1  MOL    H504   504   0.0600000    1.0080
  505        HC    1  MOL    H505   505   0.0600000    1.0080
  506        OS    1  MOL    O506   506  -0.4000000   15.9994
  507        CT    1  MOL    C507   507   0.1400000   12.0115
  508        CT    1  MOL    C508   508   0.2050000   12.0115
  509       OAL    1  MOL    O509   509  -0.6830000   15.9994
  510       CYA    1  MOL    C510   510  -0.0600000   12.0115
  511       CYA    1  MOL    C511   511  -0.1200000   12.0115
  512       CYA    1  MOL    C512   512   0.2050000   12.0115
  513       OAL    1  MOL    O513   513  -0.6830000   15.9994
  514       CYA    1  MOL    C514   514  -0.0600000   12.0115
  515        CT    1  MOL    C515   515   0.1400000   12.0115
  516       CYA    1  MOL    C516   516  -0.1200000   12.0115
  517       CYA    1  MOL    C517   517  -0.1200000   12.0115
  518        HC    1  MOL    H518   518   0.0300000    1.0080
  519        HC    1  MOL    H519   519   0.0300000    1.0080
  520        HC    1  MOL    H520   520   0.0600000    1.0080
  521        HO    1  MOL    H521   521   0.4180000    1.0080
  522        HC    1  MOL    H522   522   0.0600000    1.0080
  523        HC    1  MOL    H523   523   0.0600000    1.0080
  524        HC    1  MOL    H524   524   0.0600000    1.0080
  525        HC    1  MOL    H525   525   0.0600000    1.0080
  526        HO    1  MOL    H526   526   0.4180000    1.0080
  527        HC    1  MOL    H527   527   0.0600000    1.0080
  528        HC    1  MOL    H528   528   0.0300000    1.0080
  529        HC    1  MOL    H529   529   0.0300000    1.0080
  530        HC    1  MOL    H530   530   0.0600000    1.0080
  531        HC    1  MOL    H531   531   0.0600000    1.0080
  532        HC    1  MOL    H532   532   0.0600000    1.0080
  533        HC    1  MOL    H533   533   0.0600000    1.0080
  534        OS    1  MOL    O534   534  -0.4000000   15.9994
  535        CT    1  MOL    C535   535   0.1400000   12.0115
  536        CT    1  MOL    C536   536   0.2050000   12.0115
  537       OAL    1  MOL    O537   537  -0.6830000   15.9994
  538       CYA    1  MOL    C538   538  -0.0600000   12.0115
  539       CYA    1  MOL    C539   539  -0.1200000   12.0115
  540       CYA    1  MOL    C540   540   0.2050000   12.0115
  541       OAL    1  MOL    O541   541  -0.6830000   15.9994
  542       CYA    1  MOL    C542   542  -0.0600000   12.0115
  543        CT    1  MOL    C543   543  -0.1800000   12.0115
  544       CYA    1  MOL    C544   544  -0.1200000   12.0115
  545       CYA    1  MOL    C545   545  -0.1200000   12.0115
  546        HC    1  MOL    H546   546   0.0300000    1.0080
  547        HC    1  MOL    H547   547   0.0300000    1.0080
  548        HC    1  MOL    H548   548   0.0600000    1.0080
  549        HO    1  MOL    H549   549   0.4180000    1.0080
  550        HC    1  MOL    H550   550   0.0600000    1.0080
  551        HC    1  MOL    H551   551   0.0600000    1.0080
  552        HC    1  MOL    H552   552   0.0600000    1.0080
  553        HC    1  MOL    H553   553   0.0600000    1.0080
  554        HO    1  MOL    H554   554   0.4180000    1.0080
  555        HC    1  MOL    H555   555   0.0600000    1.0080
  556        HC    1  MOL    H556   556   0.0600000    1.0080
  557        HC    1  MOL    H557   557   0.0600000    1.0080
  558        HC    1  MOL    H558   558   0.0600000    1.0080
  559        HC    1  MOL    H559   559   0.0600000    1.0080
  560        HC    1  MOL    H560   560   0.0600000    1.0080
  561        HC    1  MOL    H561   561   0.0600000    1.0080
  562        HC    1  MOL    H562   562   0.0600000    1.0080

[ bonds ]
      1      2   1      0.1410 267776.0000
      1     29   1      0.0945 462750.4000
      2      3   1      0.1529 224262.4000
      2     13   1      0.1090 284512.0000
      2     14   1      0.1090 284512.0000
      3      4   1      0.1410 267776.0000
      3      5   1      0.1529 224262.4000
      3     15   1      0.1090 284512.0000
      4     16   1      0.0945 462750.4000
      5      6   1      0.1529 224262.4000
      5     12   1      0.1529 224262.4000
      5     17   1      0.1090 284512.0000
      6      7   1      0.1529 224262.4000
      6     18   1      0.1090 284512.0000
      6     19   1      0.1090 284512.0000
      7      8   1      0.1410 267776.0000
      7      9   1      0.1529 224262.4000
      7     20   1      0.1090 284512.0000
      8     21   1      0.0945 462750.4000
      9     10   1      0.1529 224262.4000
      9     11   1      0.1529 224262.4000
      9     22   1      0.1090 284512.0000
     10     23   1      0.1090 284512.0000
     10     24   1      0.1090 284512.0000
     10     30   1      0.1410 267776.0000
     11     12   1      0.1529 224262.4000
     11     25   1      0.1090 284512.0000
     11     26   1      0.1090 284512.0000
     12     27   1      0.1090 284512.0000
     12     28   1      0.1090 284512.0000
     30     31   1      0.1410 267776.0000
     31     32   1      0.1529 224262.4000
     31     42   1      0.1090 284512.0000
     31     43   1      0.1090 284512.0000
     32     33   1      0.1410 267776.0000
     32     34   1      0.1529 224262.4000
     32     44   1      0.1090 284512.0000
     33     45   1      0.0945 462750.4000
     34     35   1      0.1529 224262.4000
     34     41   1      0.1529 224262.4000
     34     46   1      0.1090 284512.0000
     35     36   1      0.1529 224262.4000
     35     47   1      0.1090 284512.0000
     35     48   1      0.1090 284512.0000
     36     37   1      0.1410 267776.0000
     36     38   1      0.1529 224262.4000
     36     49   1      0.1090 284512.0000
     37     50   1      0.0945 462750.4000
     38     39   1      0.1529 224262.4000
     38     40   1      0.1529 224262.4000
     38     51   1      0.1090 284512.0000
     39     52   1      0.1090 284512.0000
     39     53   1      0.1090 284512.0000
     39     58   1      0.1410 267776.0000
     40     41   1      0.1529 224262.4000
     40     54   1      0.1090 284512.0000
     40     55   1      0.1090 284512.0000
     41     56   1      0.1090 284512.0000
     41     57   1      0.1090 284512.0000
     58     59   1      0.1410 267776.0000
     59     60   1      0.1529 224262.4000
     59     70   1      0.1090 284512.0000
     59     71   1      0.1090 284512.0000
     60     61   1      0.1410 267776.0000
     60     62   1      0.1529 224262.4000
     60     72   1      0.1090 284512.0000
     61     73   1      0.0945 462750.4000
     62     63   1      0.1529 224262.4000
     62     69   1      0.1529 224262.4000
     62     74   1      0.1090 284512.0000
     63     64   1      0.1529 224262.4000
     63     75   1      0.1090 284512.0000
     63     76   1      0.1090 284512.0000
     64     65   1      0.1410 267776.0000
     64     66   1      0.1529 224262.4000
     64     77   1      0.1090 284512.0000
     65     78   1      0.0945 462750.4000
     66     67   1      0.1529 224262.4000
     66     68   1      0.1529 224262.4000
     66     79   1      0.1090 284512.0000
     67     80   1      0.1090 284512.0000
     67     81   1      0.1090 284512.0000
     67     86   1      0.1410 267776.0000
     68     69   1      0.1529 224262.4000
     68     82   1      0.1090 284512.0000
     68     83   1      0.1090 284512.0000
     69     84   1      0.1090 284512.0000
     69     85   1      0.1090 284512.0000
     86     87   1      0.1410 267776.0000
     87     88   1      0.1529 224262.4000
     87     98   1      0.1090 284512.0000
     87     99   1      0.1090 284512.0000
     88     89   1      0.1410 267776.0000
     88     90   1      0.1529 224262.4000
     88    100   1      0.1090 284512.0000
     89    101   1      0.0945 462750.4000
     90     91   1      0.1529 224262.4000
     90     97   1      0.1529 224262.4000
     90    102   1      0.1090 284512.0000
     91     92   1      0.1529 224262.4000
     91    103   1      0.1090 284512.0000
     91    104   1      0.1090 284512.0000
     92     93   1      0.1410 267776.0000
     92     94   1      0.1529 224262.4000
     92    105   1      0.1090 284512.0000
     93    106   1      0.0945 462750.4000
     94     95   1      0.1529 224262.4000
     94     96   1      0.1529 224262.4000
     94    107   1      0.1090 284512.0000
     95    108   1      0.1090 284512.0000
     95    109   1      0.1090 284512.0000
     95    114   1      0.1410 267776.0000
     96     97   1      0.1529 224262.4000
     96    110   1      0.1090 284512.0000
     96    111   1      0.1090 284512.0000
     97    112   1      0.1090 284512.0000
     97    113   1      0.1090 284512.0000
    114    115   1      0.1410 267776.0000
    115    116   1      0.1529 224262.4000
    115    126   1      0.1090 284512.0000
    115    127   1      0.1090 284512.0000
    116    117   1      0.1410 267776.0000
    116    118   1      0.1529 224262.4000
    116    128   1      0.1090 284512.0000
    117    129   1      0.0945 462750.4000
    118    119   1      0.1529 224262.4000
    118    125   1      0.1529 224262.4000
    118    130   1      0.1090 284512.0000
    119    120   1      0.1529 224262.4000
    119    131   1      0.1090 284512.0000
    119    132   1      0.1090 284512.0000
    120    121   1      0.1410 267776.0000
    120    122   1      0.1529 224262.4000
    120    133   1      0.1090 284512.0000
    121    134   1      0.0945 462750.4000
    122    123   1      0.1529 224262.4000
    122    124   1      0.1529 224262.4000
    122    135   1      0.1090 284512.0000
    123    136   1      0.1090 284512.0000
    123    137   1      0.1090 284512.0000
    123    142   1      0.1410 267776.0000
    124    125   1      0.1529 224262.4000
    124    138   1      0.1090 284512.0000
    124    139   1      0.1090 284512.0000
    125    140   1      0.1090 284512.0000
    125    141   1      0.1090 284512.0000
    142    143   1      0.1410 267776.0000
    143    144   1      0.1529 224262.4000
    143    154   1      0.1090 284512.0000
    143    155   1      0.1090 284512.0000
    144    145   1      0.1410 267776.0000
    144    146   1      0.1529 224262.4000
    144    156   1      0.1090 284512.0000
    145    157   1      0.0945 462750.4000
    146    147   1      0.1529 224262.4000
    146    153   1      0.1529 224262.4000
    146    158   1      0.1090 284512.0000
    147    148   1      0.1529 224262.4000
    147    159   1      0.1090 284512.0000
    147    160   1      0.1090 284512.0000
    148    149   1      0.1410 267776.0000
    148    150   1      0.1529 224262.4000
    148    161   1      0.1090 284512.0000
    149    162   1      0.0945 462750.4000
    150    151   1      0.1529 224262.4000
    150    152   1      0.1529 224262.4000
    150    163   1      0.1090 284512.0000
    151    164   1      0.1090 284512.0000
    151    165   1      0.1090 284512.0000
    151    170   1      0.1410 267776.0000
    152    153   1      0.1529 224262.4000
    152    166   1      0.1090 284512.0000
    152    167   1      0.1090 284512.0000
    153    168   1      0.1090 284512.0000
    153    169   1      0.1090 284512.0000
    170    171   1      0.1410 267776.0000
    171    172   1      0.1529 224262.4000
    171    182   1      0.1090 284512.0000
    171    183   1      0.1090 284512.0000
    172    173   1      0.1410 267776.0000
    172    174   1      0.1529 224262.4000
    172    184   1      0.1090 284512.0000
    173    185   1      0.0945 462750.4000
    174    175   1      0.1529 224262.4000
    174    181   1      0.1529 224262.4000
    174    186   1      0.1090 284512.0000
    175    176   1      0.1529 224262.4000
    175    187   1      0.1090 284512.0000
    175    188   1      0.1090 284512.0000
    176    177   1      0.1410 267776.0000
    176    178   1      0.1529 224262.4000
    176    189   1      0.1090 284512.0000
    177    190   1      0.0945 462750.4000
    178    179   1      0.1529 224262.4000
    178    180   1      0.1529 224262.4000
    178    191   1      0.1090 284512.0000
    179    192   1      0.1090 284512.0000
    179    193   1      0.1090 284512.0000
    179    198   1      0.1410 267776.0000
    180    181   1      0.1529 224262.4000
    180    194   1      0.1090 284512.0000
    180    195   1      0.1090 284512.0000
    181    196   1      0.1090 284512.0000
    181    197   1      0.1090 284512.0000
    198    199   1      0.1410 267776.0000
    199    200   1      0.1529 224262.4000
    199    210   1      0.1090 284512.0000
    199    211   1      0.1090 284512.0000
    200    201   1      0.1410 267776.0000
    200    202   1      0.1529 224262.4000
    200    212   1      0.1090 284512.0000
    201    213   1      0.0945 462750.4000
    202    203   1      0.1529 224262.4000
    202    209   1      0.1529 224262.4000
    202    214   1      0.1090 284512.0000
    203    204   1      0.1529 224262.4000
    203    215   1      0.1090 284512.0000
    203    216   1      0.1090 284512.0000
    204    205   1      0.1410 267776.0000
    204    206   1      0.1529 224262.4000
    204    217   1      0.1090 284512.0000
    205    218   1      0.0945 462750.4000
    206    207   1      0.1529 224262.4000
    206    208   1      0.1529 224262.4000
    206    219   1      0.1090 284512.0000
    207    220   1      0.1090 284512.0000
    207    221   1      0.1090 284512.0000
    207    226   1      0.1410 267776.0000
    208    209   1      0.1529 224262.4000
    208    222   1      0.1090 284512.0000
    208    223   1      0.1090 284512.0000
    209    224   1      0.1090 284512.0000
    209    225   1      0.1090 284512.0000
    226    227   1      0.1410 267776.0000
    227    228   1      0.1529 224262.4000
    227    238   1      0.1090 284512.0000
    227    239   1      0.1090 284512.0000
    228    229   1      0.1410 267776.0000
    228    230   1      0.1529 224262.4000
    228    240   1      0.1090 284512.0000
    229    241   1      0.0945 462750.4000
    230    231   1      0.1529 224262.4000
    230    237   1      0.1529 224262.4000
    230    242   1      0.1090 284512.0000
    231    232   1      0.1529 224262.4000
    231    243   1      0.1090 284512.0000
    231    244   1      0.1090 284512.0000
    232    233   1      0.1410 267776.0000
    232    234   1      0.1529 224262.4000
    232    245   1      0.1090 284512.0000
    233    246   1      0.0945 462750.4000
    234    235   1      0.1529 224262.4000
    234    236   1      0.1529 224262.4000
    234    247   1      0.1090 284512.0000
    235    248   1      0.1090 284512.0000
    235    249   1      0.1090 284512.0000
    235    254   1      0.1410 267776.0000
    236    237   1      0.1529 224262.4000
    236    250   1      0.1090 284512.0000
    236    251   1      0.1090 284512.0000
    237    252   1      0.1090 284512.0000
    237    253   1      0.1090 284512.0000
    254    255   1      0.1410 267776.0000
    255    256   1      0.1529 224262.4000
    255    266   1      0.1090 284512.0000
    255    267   1      0.1090 284512.0000
    256    257   1      0.1410 267776.0000
    256    258   1      0.1529 224262.4000
    256    268   1      0.1090 284512.0000
    257    269   1      0.0945 462750.4000
    258    259   1      0.1529 224262.4000
    258    265   1      0.1529 224262.4000
    258    270   1      0.1090 284512.0000
    259    260   1      0.1529 224262.4000
    259    271   1      0.1090 284512.0000
    259    272   1      0.1090 284512.0000
    260    261   1      0.1410 267776.0000
    260    262   1      0.1529 224262.4000
    260    273   1      0.1090 284512.0000
    261    274   1      0.0945 462750.4000
    262    263   1      0.1529 224262.4000
    262    264   1      0.1529 224262.4000
    262    275   1      0.1090 284512.0000
    263    276   1      0.1090 284512.0000
    263    277   1      0.1090 284512.0000
    263    282   1      0.1410 267776.0000
    264    265   1      0.1529 224262.4000
    264    278   1      0.1090 284512.0000
    264    279   1      0.1090 284512.0000
    265    280   1      0.1090 284512.0000
    265    281   1      0.1090 284512.0000
    282    283   1      0.1410 267776.0000
    283    284   1      0.1529 224262.4000
    283    294   1      0.1090 284512.0000
    283    295   1      0.1090 284512.0000
    284    285   1      0.1410 267776.0000
    284    286   1      0.1529 224262.4000
    284    296   1      0.1090 284512.0000
    285    297   1      0.0945 462750.4000
    286    287   1      0.1529 224262.4000
    286    293   1      0.1529 224262.4000
    286    298   1      0.1090 284512.0000
    287    288   1      0.1529 224262.4000
    287    299   1      0.1090 284512.0000
    287    300   1      0.1090 284512.0000
    288    289   1      0.1410 267776.0000
    288    290   1      0.1529 224262.4000
    288    301   1      0.1090 284512.0000
    289    302   1      0.0945 462750.4000
    290    291   1      0.1529 224262.4000
    290    292   1      0.1529 224262.4000
    290    303   1      0.1090 284512.0000
    291    304   1      0.1090 284512.0000
    291    305   1      0.1090 284512.0000
    291    310   1      0.1410 267776.0000
    292    293   1      0.1529 224262.4000
    292    306   1      0.1090 284512.0000
    292    307   1      0.1090 284512.0000
    293    308   1      0.1090 284512.0000
    293    309   1      0.1090 284512.0000
    310    311   1      0.1410 267776.0000
    311    312   1      0.1529 224262.4000
    311    322   1      0.1090 284512.0000
    311    323   1      0.1090 284512.0000
    312    313   1      0.1410 267776.0000
    312    314   1      0.1529 224262.4000
    312    324   1      0.1090 284512.0000
    313    325   1      0.0945 462750.4000
    314    315   1      0.1529 224262.4000
    314    321   1      0.1529 224262.4000
    314    326   1      0.1090 284512.0000
    315    316   1      0.1529 224262.4000
    315    327   1      0.1090 284512.0000
    315    328   1      0.1090 284512.0000
    316    317   1      0.1410 267776.0000
    316    318   1      0.1529 224262.4000
    316    329   1      0.1090 284512.0000
    317    330   1      0.0945 462750.4000
    318    319   1      0.1529 224262.4000
    318    320   1      0.1529 224262.4000
    318    331   1      0.1090 284512.0000
    319    332   1      0.1090 284512.0000
    319    333   1      0.1090 284512.0000
    319    338   1      0.1410 267776.0000
    320    321   1      0.1529 224262.4000
    320    334   1      0.1090 284512.0000
    320    335   1      0.1090 284512.0000
    321    336   1      0.1090 284512.0000
    321    337   1      0.1090 284512.0000
    338    339   1      0.1410 267776.0000
    339    340   1      0.1529 224262.4000
    339    350   1      0.1090 284512.0000
    339    351   1      0.1090 284512.0000
    340    341   1      0.1410 267776.0000
    340    342   1      0.1529 224262.4000
    340    352   1      0.1090 284512.0000
    341    353   1      0.0945 462750.4000
    342    343   1      0.1529 224262.4000
    342    349   1      0.1529 224262.4000
    342    354   1      0.1090 284512.0000
    343    344   1      0.1529 224262.4000
    343    355   1      0.1090 284512.0000
    343    356   1      0.1090 284512.0000
    344    345   1      0.1410 267776.0000
    344    346   1      0.1529 224262.4000
    344    357   1      0.1090 284512.0000
    345    358   1      0.0945 462750.4000
    346    347   1      0.1529 224262.4000
    346    348   1      0.1529 224262.4000
    346    359   1      0.1090 284512.0000
    347    360   1      0.1090 284512.0000
    347    361   1      0.1090 284512.0000
    347    366   1      0.1410 267776.0000
    348    349   1      0.1529 224262.4000
    348    362   1      0.1090 284512.0000
    348    363   1      0.1090 284512.0000
    349    364   1      0.1090 284512.0000
    349    365   1      0.1090 284512.0000
    366    367   1      0.1410 267776.0000
    367    368   1      0.1529 224262.4000
    367    378   1      0.1090 284512.0000
    367    379   1      0.1090 284512.0000
    368    369   1      0.1410 267776.0000
    368    370   1      0.1529 224262.4000
    368    380   1      0.1090 284512.0000
    369    381   1      0.0945 462750.4000
    370    371   1      0.1529 224262.4000
    370    377   1      0.1529 224262.4000
    370    382   1      0.1090 284512.0000
    371    372   1      0.1529 224262.4000
    371    383   1      0.1090 284512.0000
    371    384   1      0.1090 284512.0000
    372    373   1      0.1410 267776.0000
    372    374   1      0.1529 224262.4000
    372    385   1      0.1090 284512.0000
    373    386   1      0.0945 462750.4000
    374    375   1      0.1529 224262.4000
    374    376   1      0.1529 224262.4000
    374    387   1      0.1090 284512.0000
    375    388   1      0.1090 284512.0000
    375    389   1      0.1090 284512.0000
    375    394   1      0.1410 267776.0000
    376    377   1      0.1529 224262.4000
    376    390   1      0.1090 284512.0000
    376    391   1      0.1090 284512.0000
    377    392   1      0.1090 284512.0000
    377    393   1      0.1090 284512.0000
    394    395   1      0.1410 267776.0000
    395    396   1      0.1529 224262.4000
    395    406   1      0.1090 284512.0000
    395    407   1      0.1090 284512.0000
    396    397   1      0.1410 267776.0000
    396    398   1      0.1529 224262.4000
    396    408   1      0.1090 284512.0000
    397    409   1      0.0945 462750.4000
    398    399   1      0.1529 224262.4000
    398    405   1      0.1529 224262.4000
    398    410   1      0.1090 284512.0000
    399    400   1      0.1529 224262.4000
    399    411   1      0.1090 284512.0000
    399    412   1      0.1090 284512.0000
    400    401   1      0.1410 267776.0000
    400    402   1      0.1529 224262.4000
    400    413   1      0.1090 284512.0000
    401    414   1      0.0945 462750.4000
    402    403   1      0.1529 224262.4000
    402    404   1      0.1529 224262.4000
    402    415   1      0.1090 284512.0000
    403    416   1      0.1090 284512.0000
    403    417   1      0.1090 284512.0000
    403    422   1      0.1410 267776.0000
    404    405   1      0.1529 224262.4000
    404    418   1      0.1090 284512.0000
    404    419   1      0.1090 284512.0000
    405    420   1      0.1090 284512.0000
    405    421   1      0.1090 284512.0000
    422    423   1      0.1410 267776.0000
    423    424   1      0.1529 224262.4000
    423    434   1      0.1090 284512.0000
    423    435   1      0.1090 284512.0000
    424    425   1      0.1410 267776.0000
    424    426   1      0.1529 224262.4000
    424    436   1      0.1090 284512.0000
    425    437   1      0.0945 462750.4000
    426    427   1      0.1529 224262.4000
    426    433   1      0.1529 224262.4000
    426    438   1      0.1090 284512.0000
    427    428   1      0.1529 224262.4000
    427    439   1      0.1090 284512.0000
    427    440   1      0.1090 284512.0000
    428    429   1      0.1410 267776.0000
    428    430   1      0.1529 224262.4000
    428    441   1      0.1090 284512.0000
    429    442   1      0.0945 462750.4000
    430    431   1      0.1529 224262.4000
    430    432   1      0.1529 224262.4000
    430    443   1      0.1090 284512.0000
    431    444   1      0.1090 284512.0000
    431    445   1      0.1090 284512.0000
    431    450   1      0.1410 267776.0000
    432    433   1      0.1529 224262.4000
    432    446   1      0.1090 284512.0000
    432    447   1      0.1090 284512.0000
    433    448   1      0.1090 284512.0000
    433    449   1      0.1090 284512.0000
    450    451   1      0.1410 267776.0000
    451    452   1      0.1529 224262.4000
    451    462   1      0.1090 284512.0000
    451    463   1      0.1090 284512.0000
    452    453   1      0.1410 267776.0000
    452    454   1      0.1529 224262.4000
    452    464   1      0.1090 284512.0000
    453    465   1      0.0945 462750.4000
    454    455   1      0.1529 224262.4000
    454    461   1      0.1529 224262.4000
    454    466   1      0.1090 284512.0000
    455    456   1      0.1529 224262.4000
    455    467   1      0.1090 284512.0000
    455    468   1      0.1090 284512.0000
    456    457   1      0.1410 267776.0000
    456    458   1      0.1529 224262.4000
    456    469   1      0.1090 284512.0000
    457    470   1      0.0945 462750.4000
    458    459   1      0.1529 224262.4000
    458    460   1      0.1529 224262.4000
    458    471   1      0.1090 284512.0000
    459    472   1      0.1090 284512.0000
    459    473   1      0.1090 284512.0000
    459    478   1      0.1410 267776.0000
    460    461   1      0.1529 224262.4000
    460    474   1      0.1090 284512.0000
    460    475   1      0.1090 284512.0000
    461    476   1      0.1090 284512.0000
    461    477   1      0.1090 284512.0000
    478    479   1      0.1410 267776.0000
    479    480   1      0.1529 224262.4000
    479    490   1      0.1090 284512.0000
    479    491   1      0.1090 284512.0000
    480    481   1      0.1410 267776.0000
    480    482   1      0.1529 224262.4000
    480    492   1      0.1090 284512.0000
    481    493   1      0.0945 462750.4000
    482    483   1      0.1529 224262.4000
    482    489   1      0.1529 224262.4000
    482    494   1      0.1090 284512.0000
    483    484   1      0.1529 224262.4000
    483    495   1      0.1090 284512.0000
    483    496   1      0.1090 284512.0000
    484    485   1      0.1410 267776.0000
    484    486   1      0.1529 224262.4000
    484    497   1      0.1090 284512.0000
    485    498   1      0.0945 462750.4000
    486    487   1      0.1529 224262.4000
    486    488   1      0.1529 224262.4000
    486    499   1      0.1090 284512.0000
    487    500   1      0.1090 284512.0000
    487    501   1      0.1090 284512.0000
    487    506   1      0.1410 267776.0000
    488    489   1      0.1529 224262.4000
    488    502   1      0.1090 284512.0000
    488    503   1      0.1090 284512.0000
    489    504   1      0.1090 284512.0000
    489    505   1      0.1090 284512.0000
    506    507   1      0.1410 267776.0000
    507    508   1      0.1529 224262.4000
    507    518   1      0.1090 284512.0000
    507    519   1      0.1090 284512.0000
    508    509   1      0.1410 267776.0000
    508    510   1      0.1529 224262.4000
    508    520   1      0.1090 284512.0000
    509    521   1      0.0945 462750.4000
    510    511   1      0.1529 224262.4000
    510    517   1      0.1529 224262.4000
    510    522   1      0.1090 284512.0000
    511    512   1      0.1529 224262.4000
    511    523   1      0.1090 284512.0000
    511    524   1      0.1090 284512.0000
    512    513   1      0.1410 267776.0000
    512    514   1      0.1529 224262.4000
    512    525   1      0.1090 284512.0000
    513    526   1      0.0945 462750.4000
    514    515   1      0.1529 224262.4000
    514    516   1      0.1529 224262.4000
    514    527   1      0.1090 284512.0000
    515    528   1      0.1090 284512.0000
    515    529   1      0.1090 284512.0000
    515    534   1      0.1410 267776.0000
    516    517   1      0.1529 224262.4000
    516    530   1      0.1090 284512.0000
    516    531   1      0.1090 284512.0000
    517    532   1      0.1090 284512.0000
    517    533   1      0.1090 284512.0000
    534    535   1      0.1410 267776.0000
    535    536   1      0.1529 224262.4000
    535    546   1      0.1090 284512.0000
    535    547   1      0.1090 284512.0000
    536    537   1      0.1410 267776.0000
    536    538   1      0.1529 224262.4000
    536    548   1      0.1090 284512.0000
    537    549   1      0.0945 462750.4000
    538    539   1      0.1529 224262.4000
    538    545   1      0.1529 224262.4000
    538    550   1      0.1090 284512.0000
    539    540   1      0.1529 224262.4000
    539    551   1      0.1090 284512.0000
    539    552   1      0.1090 284512.0000
    540    541   1      0.1410 267776.0000
    540    542   1      0.1529 224262.4000
    540    553   1      0.1090 284512.0000
    541    554   1      0.0945 462750.4000
    542    543   1      0.1529 224262.4000
    542    544   1      0.1529 224262.4000
    542    555   1      0.1090 284512.0000
    543    556   1      0.1090 284512.0000
    543    557   1      0.1090 284512.0000
    543    562   1      0.1090 284512.0000
    544    545   1      0.1529 224262.4000
    544    558   1      0.1090 284512.0000
    544    559   1      0.1090 284512.0000
    545    560   1      0.1090 284512.0000
    545    561   1      0.1090 284512.0000

[ pairs ]
; ai   aj   funct   fudge_QQ  charge_i   charge_j   c6    c12
     29      3   2   0.50000     0.4180000    0.2050000   1.995577e-06  1.069504e-11
     29     13   2   0.50000     0.4180000    0.0600000   4.903125e-07  9.576416e-13
     29     14   2   0.50000     0.4180000    0.0600000   4.903125e-07  9.576416e-13
      1      4   2   0.50000    -0.6830000   -0.6830000   1.312194e-03  1.210391e-06
      1      5   2   0.50000    -0.6830000   -0.0600000   1.154213e-03  1.502983e-06
      1     15   2   0.50000    -0.6830000    0.0600000   2.835898e-04  1.345781e-07
     13      4   2   0.50000     0.0600000   -0.6830000   2.835898e-04  1.345781e-07
     13      5   2   0.50000     0.0600000   -0.0600000   2.494471e-04  1.671101e-07
     13     15   2   0.50000     0.0600000    0.0600000   6.128906e-05  1.496315e-08
     14      4   2   0.50000     0.0600000   -0.6830000   2.835898e-04  1.345781e-07
     14      5   2   0.50000     0.0600000   -0.0600000   2.494471e-04  1.671101e-07
     14     15   2   0.50000     0.0600000    0.0600000   6.128906e-05  1.496315e-08
      2     16   2   0.50000     0.1450000    0.4180000   1.995577e-06  1.069504e-11
      5     16   2   0.50000    -0.0600000    0.4180000   1.995577e-06  1.069504e-11
     15     16   2   0.50000     0.0600000    0.4180000   4.903125e-07  9.576416e-13
      2      6   2   0.50000     0.1450000   -0.1200000   1.015252e-03  1.866303e-06
      2     12   2   0.50000     0.1450000   -0.1200000   1.015252e-03  1.866303e-06
      2     17   2   0.50000     0.1450000    0.0600000   2.494471e-04  1.671101e-07
      4      6   2   0.50000    -0.6830000   -0.1200000   1.154213e-03  1.502983e-06
      4     12   2   0.50000    -0.6830000   -0.1200000   1.154213e-03  1.502983e-06
      4     17   2   0.50000    -0.6830000    0.0600000   2.835898e-04  1.345781e-07
     15      6   2   0.50000     0.0600000   -0.1200000   2.494471e-04  1.671101e-07
     15     12   2   0.50000     0.0600000   -0.1200000   2.494471e-04  1.671101e-07
     15     17   2   0.50000     0.0600000    0.0600000   6.128906e-05  1.496315e-08
      3      7   2   0.50000     0.2050000    0.2050000   1.015252e-03  1.866303e-06
      3     18   2   0.50000     0.2050000    0.0600000   2.494471e-04  1.671101e-07
      3     19   2   0.50000     0.2050000    0.0600000   2.494471e-04  1.671101e-07
     12      7   2   0.50000    -0.1200000    0.2050000   1.015252e-03  1.866303e-06
     12     18   2   0.50000    -0.1200000    0.0600000   2.494471e-04  1.671101e-07
     12     19   2   0.50000    -0.1200000    0.0600000   2.494471e-04  1.671101e-07
     17      7   2   0.50000     0.0600000    0.2050000   2.494471e-04  1.671101e-07
     17     18   2   0.50000     0.0600000    0.0600000   6.128906e-05  1.496315e-08
     17     19   2   0.50000     0.0600000    0.0600000   6.128906e-05  1.496315e-08
      3     11   2   0.50000     0.2050000   -0.1200000   1.015252e-03  1.866303e-06
      3     27   2   0.50000     0.2050000    0.0600000   2.494471e-04  1.671101e-07
      3     28   2   0.50000     0.2050000    0.0600000   2.494471e-04  1.671101e-07
      6     11   2   0.50000    -0.1200000   -0.1200000   1.015252e-03  1.866303e-06
      6     27   2   0.50000    -0.1200000    0.0600000   2.494471e-04  1.671101e-07
      6     28   2   0.50000    -0.1200000    0.0600000   2.494471e-04  1.671101e-07
     17     11   2   0.50000     0.0600000   -0.1200000   2.494471e-04  1.671101e-07
     17     27   2   0.50000     0.0600000    0.0600000   6.128906e-05  1.496315e-08
     17     28   2   0.50000     0.0600000    0.0600000   6.128906e-05  1.496315e-08
      5      8   2   0.50000    -0.0600000   -0.6830000   1.154213e-03  1.502983e-06
      5      9   2   0.50000    -0.0600000   -0.0600000   1.015252e-03  1.866303e-06
      5     20   2   0.50000    -0.0600000    0.0600000   2.494471e-04  1.671101e-07
     18      8   2   0.50000     0.0600000   -0.6830000   2.835898e-04  1.345781e-07
     18      9   2   0.50000     0.0600000   -0.0600000   2.494471e-04  1.671101e-07
     18     20   2   0.50000     0.0600000    0.0600000   6.128906e-05  1.496315e-08
     19      8   2   0.50000     0.0600000   -0.6830000   2.835898e-04  1.345781e-07
     19      9   2   0.50000     0.0600000   -0.0600000   2.494471e-04  1.671101e-07
     19     20   2   0.50000     0.0600000    0.0600000   6.128906e-05  1.496315e-08
      6     21   2   0.50000    -0.1200000    0.4180000   1.995577e-06  1.069504e-11
      9     21   2   0.50000    -0.0600000    0.4180000   1.995577e-06  1.069504e-11
     20     21   2   0.50000     0.0600000    0.4180000   4.903125e-07  9.576416e-13
      6     10   2   0.50000    -0.1200000    0.1400000   1.015252e-03  1.866303e-06
      6     22   2   0.50000    -0.1200000    0.0600000   2.494471e-04  1.671101e-07
      8     10   2   0.50000    -0.6830000    0.1400000   1.154213e-03  1.502983e-06
      8     11   2   0.50000    -0.6830000   -0.1200000   1.154213e-03  1.502983e-06
      8     22   2   0.50000    -0.6830000    0.0600000   2.835898e-04  1.345781e-07
     20     10   2   0.50000     0.0600000    0.1400000   2.494471e-04  1.671101e-07
     20     11   2   0.50000     0.0600000   -0.1200000   2.494471e-04  1.671101e-07
     20     22   2   0.50000     0.0600000    0.0600000   6.128906e-05  1.496315e-08
      7     23   2   0.50000     0.2050000    0.0300000   2.494471e-04  1.671101e-07
      7     24   2   0.50000     0.2050000    0.0300000   2.494471e-04  1.671101e-07
      7     30   2   0.50000     0.2050000   -0.4000000   8.411158e-04  8.795366e-07
     11     23   2   0.50000    -0.1200000    0.0300000   2.494471e-04  1.671101e-07
     11     24   2   0.50000    -0.1200000    0.0300000   2.494471e-04  1.671101e-07
     11     30   2   0.50000    -0.1200000   -0.4000000   8.411158e-04  8.795366e-07
     22     23   2   0.50000     0.0600000    0.0300000   6.128906e-05  1.496315e-08
     22     24   2   0.50000     0.0600000    0.0300000   6.128906e-05  1.496315e-08
     22     30   2   0.50000     0.0600000   -0.4000000   2.066619e-04  7.875431e-08
      7     25   2   0.50000     0.2050000    0.0600000   2.494471e-04  1.671101e-07
      7     26   2   0.50000     0.2050000    0.0600000   2.494471e-04  1.671101e-07
     10     12   2   0.50000     0.1400000   -0.1200000   1.015252e-03  1.866303e-06
     10     25   2   0.50000     0.1400000    0.0600000   2.494471e-04  1.671101e-07
     10     26   2   0.50000     0.1400000    0.0600000   2.494471e-04  1.671101e-07
     22     12   2   0.50000     0.0600000   -0.1200000   2.494471e-04  1.671101e-07
     22     25   2   0.50000     0.0600000    0.0600000   6.128906e-05  1.496315e-08
     22     26   2   0.50000     0.0600000    0.0600000   6.128906e-05  1.496315e-08
      9     31   2   0.50000    -0.0600000    0.1400000   1.015252e-03  1.866303e-06
     23     31   2   0.50000     0.0300000    0.1400000   2.494471e-04  1.671101e-07
     24     31   2   0.50000     0.0300000    0.1400000   2.494471e-04  1.671101e-07
      9     27   2   0.50000    -0.0600000    0.0600000   2.494471e-04  1.671101e-07
      9     28   2   0.50000    -0.0600000    0.0600000   2.494471e-04  1.671101e-07
     25      5   2   0.50000     0.0600000   -0.0600000   2.494471e-04  1.671101e-07
     25     27   2   0.50000     0.0600000    0.0600000   6.128906e-05  1.496315e-08
     25     28   2   0.50000     0.0600000    0.0600000   6.128906e-05  1.496315e-08
     26      5   2   0.50000     0.0600000   -0.0600000   2.494471e-04  1.671101e-07
     26     27   2   0.50000     0.0600000    0.0600000   6.128906e-05  1.496315e-08
     26     28   2   0.50000     0.0600000    0.0600000   6.128906e-05  1.496315e-08
     10     32   2   0.50000     0.1400000    0.2050000   1.015252e-03  1.866303e-06
     10     42   2   0.50000     0.1400000    0.0300000   2.494471e-04  1.671101e-07
     10     43   2   0.50000     0.1400000    0.0300000   2.494471e-04  1.671101e-07
     30     33   2   0.50000    -0.4000000   -0.6830000   9.562422e-04  7.083138e-07
     30     34   2   0.50000    -0.4000000   -0.0600000   8.411158e-04  8.795366e-07
     30     44   2   0.50000    -0.4000000    0.0600000   2.066619e-04  7.875431e-08
     42     33   2   0.50000     0.0300000   -0.6830000   2.835898e-04  1.345781e-07
     42     34   2   0.50000     0.0300000   -0.0600000   2.494471e-04  1.671101e-07
     42     44   2   0.50000     0.0300000    0.0600000   6.128906e-05  1.496315e-08
     43     33   2   0.50000     0.0300000   -0.6830000   2.835898e-04  1.345781e-07
     43     34   2   0.50000     0.0300000   -0.0600000   2.494471e-04  1.671101e-07
     43     44   2   0.50000     0.0300000    0.0600000   6.128906e-05  1.496315e-08
     31     45   2   0.50000     0.1400000    0.4180000   1.995577e-06  1.069504e-11
     34     45   2   0.50000    -0.0600000    0.4180000   1.995577e-06  1.069504e-11
     44     45   2   0.50000     0.0600000    0.4180000   4.903125e-07  9.576416e-13
     31     35   2   0.50000     0.1400000   -0.1200000   1.015252e-03  1.866303e-06
     31     41   2   0.50000     0.1400000   -0.1200000   1.015252e-03  1.866303e-06
     31     46   2   0.50000     0.1400000    0.0600000   2.494471e-04  1.671101e-07
     33     35   2   0.50000    -0.6830000   -0.1200000   1.154213e-03  1.502983e-06
     33     41   2   0.50000    -0.6830000   -0.1200000   1.154213e-03  1.502983e-06
     33     46   2   0.50000    -0.6830000    0.0600000   2.835898e-04  1.345781e-07
     44     35   2   0.50000     0.0600000   -0.1200000   2.494471e-04  1.671101e-07
     44     41   2   0.50000     0.0600000   -0.1200000   2.494471e-04  1.671101e-07
     44     46   2   0.50000     0.0600000    0.0600000   6.128906e-05  1.496315e-08
     32     36   2   0.50000     0.2050000    0.2050000   1.015252e-03  1.866303e-06
     32     47   2   0.50000     0.2050000    0.0600000   2.494471e-04  1.671101e-07
     32     48   2   0.50000     0.2050000    0.0600000   2.494471e-04  1.671101e-07
     41     36   2   0.50000    -0.1200000    0.2050000   1.015252e-03  1.866303e-06
     41     47   2   0.50000    -0.1200000    0.0600000   2.494471e-04  1.671101e-07
     41     48   2   0.50000    -0.1200000    0.0600000   2.494471e-04  1.671101e-07
     46     36   2   0.50000     0.0600000    0.2050000   2.494471e-04  1.671101e-07
     46     47   2   0.50000     0.0600000    0.0600000   6.128906e-05  1.496315e-08
     46     48   2   0.50000     0.0600000    0.0600000   6.128906e-05  1.496315e-08
     32     40   2   0.50000     0.2050000   -0.1200000   1.015252e-03  1.866303e-06
     32     56   2   0.50000     0.2050000    0.0600000   2.494471e-04  1.671101e-07
     32     57   2   0.50000     0.2050000    0.0600000   2.494471e-04  1.671101e-07
     35     40   2   0.50000    -0.1200000   -0.1200000   1.015252e-03  1.866303e-06
     35     56   2   0.50000    -0.1200000    0.0600000   2.494471e-04  1.671101e-07
     35     57   2   0.50000    -0.1200000    0.0600000   2.494471e-04  1.671101e-07
     46     40   2   0.50000     0.0600000   -0.1200000   2.494471e-04  1.671101e-07
     46     56   2   0.50000     0.0600000    0.0600000   6.128906e-05  1.496315e-08
     46     57   2   0.50000     0.0600000    0.0600000   6.128906e-05  1.496315e-08
     34     37   2   0.50000    -0.0600000   -0.6830000   1.154213e-03  1.502983e-06
     34     38   2   0.50000    -0.0600000   -0.0600000   1.015252e-03  1.866303e-06
     34     49   2   0.50000    -0.0600000    0.0600000   2.494471e-04  1.671101e-07
     47     37   2   0.50000     0.0600000   -0.6830000   2.835898e-04  1.345781e-07
     47     38   2   0.50000     0.0600000   -0.0600000   2.494471e-04  1.671101e-07
     47     49   2   0.50000     0.0600000    0.0600000   6.128906e-05  1.496315e-08
     48     37   2   0.50000     0.0600000   -0.6830000   2.835898e-04  1.345781e-07
     48     38   2   0.50000     0.0600000   -0.0600000   2.494471e-04  1.671101e-07
     48     49   2   0.50000     0.0600000    0.0600000   6.128906e-05  1.496315e-08
     35     50   2   0.50000    -0.1200000    0.4180000   1.995577e-06  1.069504e-11
     38     50   2   0.50000    -0.0600000    0.4180000   1.995577e-06  1.069504e-11
     49     50   2   0.50000     0.0600000    0.4180000   4.903125e-07  9.576416e-13
     35     39   2   0.50000    -0.1200000    0.1400000   1.015252e-03  1.866303e-06
     35     51   2   0.50000    -0.1200000    0.0600000   2.494471e-04  1.671101e-07
     37     39   2   0.50000    -0.6830000    0.1400000   1.154213e-03  1.502983e-06
     37     40   2   0.50000    -0.6830000   -0.1200000   1.154213e-03  1.502983e-06
     37     51   2   0.50000    -0.6830000    0.0600000   2.835898e-04  1.345781e-07
     49     39   2   0.50000     0.0600000    0.1400000   2.494471e-04  1.671101e-07
     49     40   2   0.50000     0.0600000   -0.1200000   2.494471e-04  1.671101e-07
     49     51   2   0.50000     0.0600000    0.0600000   6.128906e-05  1.496315e-08
     36     52   2   0.50000     0.2050000    0.0300000   2.494471e-04  1.671101e-07
     36     53   2   0.50000     0.2050000    0.0300000   2.494471e-04  1.671101e-07
     36     58   2   0.50000     0.2050000   -0.4000000   8.411158e-04  8.795366e-07
     40     52   2   0.50000    -0.1200000    0.0300000   2.494471e-04  1.671101e-07
     40     53   2   0.50000    -0.1200000    0.0300000   2.494471e-04  1.671101e-07
     40     58   2   0.50000    -0.1200000   -0.4000000   8.411158e-04  8.795366e-07
     51     52   2   0.50000     0.0600000    0.0300000   6.128906e-05  1.496315e-08
     51     53   2   0.50000     0.0600000    0.0300000   6.128906e-05  1.496315e-08
     51     58   2   0.50000     0.0600000   -0.4000000   2.066619e-04  7.875431e-08
     36     54   2   0.50000     0.2050000    0.0600000   2.494471e-04  1.671101e-07
     36     55   2   0.50000     0.2050000    0.0600000   2.494471e-04  1.671101e-07
     39     41   2   0.50000     0.1400000   -0.1200000   1.015252e-03  1.866303e-06
     39     54   2   0.50000     0.1400000    0.0600000   2.494471e-04  1.671101e-07
     39     55   2   0.50000     0.1400000    0.0600000   2.494471e-04  1.671101e-07
     51     41   2   0.50000     0.0600000   -0.1200000   2.494471e-04  1.671101e-07
     51     54   2   0.50000     0.0600000    0.0600000   6.128906e-05  1.496315e-08
     51     55   2   0.50000     0.0600000    0.0600000   6.128906e-05  1.496315e-08
     38     59   2   0.50000    -0.0600000    0.1400000   1.015252e-03  1.866303e-06
     52     59   2   0.50000     0.0300000    0.1400000   2.494471e-04  1.671101e-07
     53     59   2   0.50000     0.0300000    0.1400000   2.494471e-04  1.671101e-07
     38     56   2   0.50000    -0.0600000    0.0600000   2.494471e-04  1.671101e-07
     38     57   2   0.50000    -0.0600000    0.0600000   2.494471e-04  1.671101e-07
     54     34   2   0.50000     0.0600000   -0.0600000   2.494471e-04  1.671101e-07
     54     56   2   0.50000     0.0600000    0.0600000   6.128906e-05  1.496315e-08
     54     57   2   0.50000     0.0600000    0.0600000   6.128906e-05  1.496315e-08
     55     34   2   0.50000     0.0600000   -0.0600000   2.494471e-04  1.671101e-07
     55     56   2   0.50000     0.0600000    0.0600000   6.128906e-05  1.496315e-08
     55     57   2   0.50000     0.0600000    0.0600000   6.128906e-05  1.496315e-08
     39     60   2   0.50000     0.1400000    0.2050000   1.015252e-03  1.866303e-06
     39     70   2   0.50000     0.1400000    0.0300000   2.494471e-04  1.671101e-07
     39     71   2   0.50000     0.1400000    0.0300000   2.494471e-04  1.671101e-07
     58     61   2   0.50000    -0.4000000   -0.6830000   9.562422e-04  7.083138e-07
     58     62   2   0.50000    -0.4000000   -0.0600000   8.411158e-04  8.795366e-07
     58     72   2   0.50000    -0.4000000    0.0600000   2.066619e-04  7.875431e-08
     70     61   2   0.50000     0.0300000   -0.6830000   2.835898e-04  1.345781e-07
     70     62   2   0.50000     0.0300000   -0.0600000   2.494471e-04  1.671101e-07
     70     72   2   0.50000     0.0300000    0.0600000   6.128906e-05  1.496315e-08
     71     61   2   0.50000     0.0300000   -0.6830000   2.835898e-04  1.345781e-07
     71     62   2   0.50000     0.0300000   -0.0600000   2.494471e-04  1.671101e-07
     71     72   2   0.50000     0.0300000    0.0600000   6.128906e-05  1.496315e-08
     59     73   2   0.50000     0.1400000    0.4180000   1.995577e-06  1.069504e-11
     62     73   2   0.50000    -0.0600000    0.4180000   1.995577e-06  1.069504e-11
     72     73   2   0.50000     0.0600000    0.4180000   4.903125e-07  9.576416e-13
     59     63   2   0.50000     0.1400000   -0.1200000   1.015252e-03  1.866303e-06
     59     69   2   0.50000     0.1400000   -0.1200000   1.015252e-03  1.866303e-06
     59     74   2   0.50000     0.1400000    0.0600000   2.494471e-04  1.671101e-07
     61     63   2   0.50000    -0.6830000   -0.1200000   1.154213e-03  1.502983e-06
     61     69   2   0.50000    -0.6830000   -0.1200000   1.154213e-03  1.502983e-06
     61     74   2   0.50000    -0.6830000    0.0600000   2.835898e-04  1.345781e-07
     72     63   2   0.50000     0.0600000   -0.1200000   2.494471e-04  1.671101e-07
     72     69   2   0.50000     0.0600000   -0.1200000   2.494471e-04  1.671101e-07
     72     74   2   0.50000     0.0600000    0.0600000   6.128906e-05  1.496315e-08
     60     64   2   0.50000     0.2050000    0.2050000   1.015252e-03  1.866303e-06
     60     75   2   0.50000     0.2050000    0.0600000   2.494471e-04  1.671101e-07
     60     76   2   0.50000     0.2050000    0.0600000   2.494471e-04  1.671101e-07
     69     64   2   0.50000    -0.1200000    0.2050000   1.015252e-03  1.866303e-06
     69     75   2   0.50000    -0.1200000    0.0600000   2.494471e-04  1.671101e-07
     69     76   2   0.50000    -0.1200000    0.0600000   2.494471e-04  1.671101e-07
     74     64   2   0.50000     0.0600000    0.2050000   2.494471e-04  1.671101e-07
     74     75   2   0.50000     0.0600000    0.0600000   6.128906e-05  1.496315e-08
     74     76   2   0.50000     0.0600000    0.0600000   6.128906e-05  1.496315e-08
     60     68   2   0.50000     0.2050000   -0.1200000   1.015252e-03  1.866303e-06
     60     84   2   0.50000     0.2050000    0.0600000   2.494471e-04  1.671101e-07
     60     85   2   0.50000     0.2050000    0.0600000   2.494471e-04  1.671101e-07
     63     68   2   0.50000    -0.1200000   -0.1200000   1.015252e-03  1.866303e-06
     63     84   2   0.50000    -0.1200000    0.0600000   2.494471e-04  1.671101e-07
     63     85   2   0.50000    -0.1200000    0.0600000   2.494471e-04  1.671101e-07
     74     68   2   0.50000     0.0600000   -0.1200000   2.494471e-04  1.671101e-07
     74     84   2   0.50000     0.0600000    0.0600000   6.128906e-05  1.496315e-08
     74     85   2   0.50000     0.0600000    0.0600000   6.128906e-05  1.496315e-08
     62     65   2   0.50000    -0.0600000   -0.6830000   1.154213e-03  1.502983e-06
     62     66   2   0.50000    -0.0600000   -0.0600000   1.015252e-03  1.866303e-06
     62     77   2   0.50000    -0.0600000    0.0600000   2.494471e-04  1.671101e-07
     75     65   2   0.50000     0.0600000   -0.6830000   2.835898e-04  1.345781e-07
     75     66   2   0.50000     0.0600000   -0.0600000   2.494471e-04  1.671101e-07
     75     77   2   0.50000     0.0600000    0.0600000   6.128906e-05  1.496315e-08
     76     65   2   0.50000     0.0600000   -0.6830000   2.835898e-04  1.345781e-07
     76     66   2   0.50000     0.0600000   -0.0600000   2.494471e-04  1.671101e-07
     76     77   2   0.50000     0.0600000    0.0600000   6.128906e-05  1.496315e-08
     63     78   2   0.50000    -0.1200000    0.4180000   1.995577e-06  1.069504e-11
     66     78   2   0.50000    -0.0600000    0.4180000   1.995577e-06  1.069504e-11
     77     78   2   0.50000     0.0600000    0.4180000   4.903125e-07  9.576416e-13
     63     67   2   0.50000    -0.1200000    0.1400000   1.015252e-03  1.866303e-06
     63     79   2   0.50000    -0.1200000    0.0600000   2.494471e-04  1.671101e-07
     65     67   2   0.50000    -0.6830000    0.1400000   1.154213e-03  1.502983e-06
     65     68   2   0.50000    -0.6830000   -0.1200000   1.154213e-03  1.502983e-06
     65     79   2   0.50000    -0.6830000    0.0600000   2.835898e-04  1.345781e-07
     77     67   2   0.50000     0.0600000    0.1400000   2.494471e-04  1.671101e-07
     77     68   2   0.50000     0.0600000   -0.1200000   2.494471e-04  1.671101e-07
     77     79   2   0.50000     0.0600000    0.0600000   6.128906e-05  1.496315e-08
     64     80   2   0.50000     0.2050000    0.0300000   2.494471e-04  1.671101e-07
     64     81   2   0.50000     0.2050000    0.0300000   2.494471e-04  1.671101e-07
     64     86   2   0.50000     0.2050000   -0.4000000   8.411158e-04  8.795366e-07
     68     80   2   0.50000    -0.1200000    0.0300000   2.494471e-04  1.671101e-07
     68     81   2   0.50000    -0.1200000    0.0300000   2.494471e-04  1.671101e-07
     68     86   2   0.50000    -0.1200000   -0.4000000   8.411158e-04  8.795366e-07
     79     80   2   0.50000     0.0600000    0.0300000   6.128906e-05  1.496315e-08
     79     81   2   0.50000     0.0600000    0.0300000   6.128906e-05  1.496315e-08
     79     86   2   0.50000     0.0600000   -0.4000000   2.066619e-04  7.875431e-08
     64     82   2   0.50000     0.2050000    0.0600000   2.494471e-04  1.671101e-07
     64     83   2   0.50000     0.2050000    0.0600000   2.494471e-04  1.671101e-07
     67     69   2   0.50000     0.1400000   -0.1200000   1.015252e-03  1.866303e-06
     67     82   2   0.50000     0.1400000    0.0600000   2.494471e-04  1.671101e-07
     67     83   2   0.50000     0.1400000    0.0600000   2.494471e-04  1.671101e-07
     79     69   2   0.50000     0.0600000   -0.1200000   2.494471e-04  1.671101e-07
     79     82   2   0.50000     0.0600000    0.0600000   6.128906e-05  1.496315e-08
     79     83   2   0.50000     0.0600000    0.0600000   6.128906e-05  1.496315e-08
     66     87   2   0.50000    -0.0600000    0.1400000   1.015252e-03  1.866303e-06
     80     87   2   0.50000     0.0300000    0.1400000   2.494471e-04  1.671101e-07
     81     87   2   0.50000     0.0300000    0.1400000   2.494471e-04  1.671101e-07
     66     84   2   0.50000    -0.0600000    0.0600000   2.494471e-04  1.671101e-07
     66     85   2   0.50000    -0.0600000    0.0600000   2.494471e-04  1.671101e-07
     82     62   2   0.50000     0.0600000   -0.0600000   2.494471e-04  1.671101e-07
     82     84   2   0.50000     0.0600000    0.0600000   6.128906e-05  1.496315e-08
     82     85   2   0.50000     0.0600000    0.0600000   6.128906e-05  1.496315e-08
     83     62   2   0.50000     0.0600000   -0.0600000   2.494471e-04  1.671101e-07
     83     84   2   0.50000     0.0600000    0.0600000   6.128906e-05  1.496315e-08
     83     85   2   0.50000     0.0600000    0.0600000   6.128906e-05  1.496315e-08
     67     88   2   0.50000     0.1400000    0.2050000   1.015252e-03  1.866303e-06
     67     98   2   0.50000     0.1400000    0.0300000   2.494471e-04  1.671101e-07
     67     99   2   0.50000     0.1400000    0.0300000   2.494471e-04  1.671101e-07
     86     89   2   0.50000    -0.4000000   -0.6830000   9.562422e-04  7.083138e-07
     86     90   2   0.50000    -0.4000000   -0.0600000   8.411158e-04  8.795366e-07
     86    100   2   0.50000    -0.4000000    0.0600000   2.066619e-04  7.875431e-08
     98     89   2   0.50000     0.0300000   -0.6830000   2.835898e-04  1.345781e-07
     98     90   2   0.50000     0.0300000   -0.0600000   2.494471e-04  1.671101e-07
     98    100   2   0.50000     0.0300000    0.0600000   6.128906e-05  1.496315e-08
     99     89   2   0.50000     0.0300000   -0.6830000   2.835898e-04  1.345781e-07
     99     90   2   0.50000     0.0300000   -0.0600000   2.494471e-04  1.671101e-07
     99    100   2   0.50000     0.0300000    0.0600000   6.128906e-05  1.496315e-08
     87    101   2   0.50000     0.1400000    0.4180000   1.995577e-06  1.069504e-11
     90    101   2   0.50000    -0.0600000    0.4180000   1.995577e-06  1.069504e-11
    100    101   2   0.50000     0.0600000    0.4180000   4.903125e-07  9.576416e-13
     87     91   2   0.50000     0.1400000   -0.1200000   1.015252e-03  1.866303e-06
     87     97   2   0.50000     0.1400000   -0.1200000   1.015252e-03  1.866303e-06
     87    102   2   0.50000     0.1400000    0.0600000   2.494471e-04  1.671101e-07
     89     91   2   0.50000    -0.6830000   -0.1200000   1.154213e-03  1.502983e-06
     89     97   2   0.50000    -0.6830000   -0.1200000   1.154213e-03  1.502983e-06
     89    102   2   0.50000    -0.6830000    0.0600000   2.835898e-04  1.345781e-07
    100     91   2   0.50000     0.0600000   -0.1200000   2.494471e-04  1.671101e-07
    100     97   2   0.50000     0.0600000   -0.1200000   2.494471e-04  1.671101e-07
    100    102   2   0.50000     0.0600000    0.0600000   6.128906e-05  1.496315e-08
     88     92   2   0.50000     0.2050000    0.2050000   1.015252e-03  1.866303e-06
     88    103   2   0.50000     0.2050000    0.0600000   2.494471e-04  1.671101e-07
     88    104   2   0.50000     0.2050000    0.0600000   2.494471e-04  1.671101e-07
     97     92   2   0.50000    -0.1200000    0.2050000   1.015252e-03  1.866303e-06
     97    103   2   0.50000    -0.1200000    0.0600000   2.494471e-04  1.671101e-07
     97    104   2   0.50000    -0.1200000    0.0600000   2.494471e-04  1.671101e-07
    102     92   2   0.50000     0.0600000    0.2050000   2.494471e-04  1.671101e-07
    102    103   2   0.50000     0.0600000    0.0600000   6.128906e-05  1.496315e-08
    102    104   2   0.50000     0.0600000    0.0600000   6.128906e-05  1.496315e-08
     88     96   2   0.50000     0.2050000   -0.1200000   1.015252e-03  1.866303e-06
     88    112   2   0.50000     0.2050000    0.0600000   2.494471e-04  1.671101e-07
     88    113   2   0.50000     0.2050000    0.0600000   2.494471e-04  1.671101e-07
     91     96   2   0.50000    -0.1200000   -0.1200000   1.015252e-03  1.866303e-06
     91    112   2   0.50000    -0.1200000    0.0600000   2.494471e-04  1.671101e-07
     91    113   2   0.50000    -0.1200000    0.0600000   2.494471e-04  1.671101e-07
    102     96   2   0.50000     0.0600000   -0.1200000   2.494471e-04  1.671101e-07
    102    112   2   0.50000     0.0600000    0.0600000   6.128906e-05  1.496315e-08
    102    113   2   0.50000     0.0600000    0.0600000   6.128906e-05  1.496315e-08
     90     93   2   0.50000    -0.0600000   -0.6830000   1.154213e-03  1.502983e-06
     90     94   2   0.50000    -0.0600000   -0.0600000   1.015252e-03  1.866303e-06
     90    105   2   0.50000    -0.0600000    0.0600000   2.494471e-04  1.671101e-07
    103     93   2   0.50000     0.0600000   -0.6830000   2.835898e-04  1.345781e-07
    103     94   2   0.50000     0.0600000   -0.0600000   2.494471e-04  1.671101e-07
    103    105   2   0.50000     0.0600000    0.0600000   6.128906e-05  1.496315e-08
    104     93   2   0.50000     0.0600000   -0.6830000   2.835898e-04  1.345781e-07
    104     94   2   0.50000     0.0600000   -0.0600000   2.494471e-04  1.671101e-07
    104    105   2   0.50000     0.0600000    0.0600000   6.128906e-05  1.496315e-08
     91    106   2   0.50000    -0.1200000    0.4180000   1.995577e-06  1.069504e-11
     94    106   2   0.50000    -0.0600000    0.4180000   1.995577e-06  1.069504e-11
    105    106   2   0.50000     0.0600000    0.4180000   4.903125e-07  9.576416e-13
     91     95   2   0.50000    -0.1200000    0.1400000   1.015252e-03  1.866303e-06
     91    107   2   0.50000    -0.1200000    0.0600000   2.494471e-04  1.671101e-07
     93     95   2   0.50000    -0.6830000    0.1400000   1.154213e-03  1.502983e-06
     93     96   2   0.50000    -0.6830000   -0.1200000   1.154213e-03  1.502983e-06
     93    107   2   0.50000    -0.6830000    0.0600000   2.835898e-04  1.345781e-07
    105     95   2   0.50000     0.0600000    0.1400000   2.494471e-04  1.671101e-07
    105     96   2   0.50000     0.0600000   -0.1200000   2.494471e-04  1.671101e-07
    105    107   2   0.50000     0.0600000    0.0600000   6.128906e-05  1.496315e-08
     92    108   2   0.50000     0.2050000    0.0300000   2.494471e-04  1.671101e-07
     92    109   2   0.50000     0.2050000    0.0300000   2.494471e-04  1.671101e-07
     92    114   2   0.50000     0.2050000   -0.4000000   8.411158e-04  8.795366e-07
     96    108   2   0.50000    -0.1200000    0.0300000   2.494471e-04  1.671101e-07
     96    109   2   0.50000    -0.1200000    0.0300000   2.494471e-04  1.671101e-07
     96    114   2   0.50000    -0.1200000   -0.4000000   8.411158e-04  8.795366e-07
    107    108   2   0.50000     0.0600000    0.0300000   6.128906e-05  1.496315e-08
    107    109   2   0.50000     0.0600000    0.0300000   6.128906e-05  1.496315e-08
    107    114   2   0.50000     0.0600000   -0.4000000   2.066619e-04  7.875431e-08
     92    110   2   0.50000     0.2050000    0.0600000   2.494471e-04  1.671101e-07
     92    111   2   0.50000     0.2050000    0.0600000   2.494471e-04  1.671101e-07
     95     97   2   0.50000     0.1400000   -0.1200000   1.015252e-03  1.866303e-06
     95    110   2   0.50000     0.1400000    0.0600000   2.494471e-04  1.671101e-07
     95    111   2   0.50000     0.1400000    0.0600000   2.494471e-04  1.671101e-07
    107     97   2   0.50000     0.0600000   -0.1200000   2.494471e-04  1.671101e-07
    107    110   2   0.50000     0.0600000    0.0600000   6.128906e-05  1.496315e-08
    107    111   2   0.50000     0.0600000    0.0600000   6.128906e-05  1.496315e-08
     94    115   2   0.50000    -0.0600000    0.1400000   1.015252e-03  1.866303e-06
    108    115   2   0.50000     0.0300000    0.1400000   2.494471e-04  1.671101e-07
    109    115   2   0.50000     0.0300000    0.1400000   2.494471e-04  1.671101e-07
     94    112   2   0.50000    -0.0600000    0.0600000   2.494471e-04  1.671101e-07
     94    113   2   0.50000    -0.0600000    0.0600000   2.494471e-04  1.671101e-07
    110     90   2   0.50000     0.0600000   -0.0600000   2.494471e-04  1.671101e-07
    110    112   2   0.50000     0.0600000    0.0600000   6.128906e-05  1.496315e-08
    110    113   2   0.50000     0.0600000    0.0600000   6.128906e-05  1.496315e-08
    111     90   2   0.50000     0.0600000   -0.0600000   2.494471e-04  1.671101e-07
    111    112   2   0.50000     0.0600000    0.0600000   6.128906e-05  1.496315e-08
    111    113   2   0.50000     0.0600000    0.0600000   6.128906e-05  1.496315e-08
     95    116   2   0.50000     0.1400000    0.2050000   1.015252e-03  1.866303e-06
     95    126   2   0.50000     0.1400000    0.0300000   2.494471e-04  1.671101e-07
     95    127   2   0.50000     0.1400000    0.0300000   2.494471e-04  1.671101e-07
    114    117   2   0.50000    -0.4000000   -0.6830000   9.562422e-04  7.083138e-07
    114    118   2   0.50000    -0.4000000   -0.0600000   8.411158e-04  8.795366e-07
    114    128   2   0.50000    -0.4000000    0.0600000   2.066619e-04  7.875431e-08
    126    117   2   0.50000     0.0300000   -0.6830000   2.835898e-04  1.345781e-07
    126    118   2   0.50000     0.0300000   -0.0600000   2.494471e-04  1.671101e-07
    126    128   2   0.50000     0.0300000    0.0600000   6.128906e-05  1.496315e-08
    127    117   2   0.50000     0.0300000   -0.6830000   2.835898e-04  1.345781e-07
    127    118   2   0.50000     0.0300000   -0.0600000   2.494471e-04  1.671101e-07
    127    128   2   0.50000     0.0300000    0.0600000   6.128906e-05  1.496315e-08
    115    129   2   0.50000     0.1400000    0.4180000   1.995577e-06  1.069504e-11
    118    129   2   0.50000    -0.0600000    0.4180000   1.995577e-06  1.069504e-11
    128    129   2   0.50000     0.0600000    0.4180000   4.903125e-07  9.576416e-13
    115    119   2   0.50000     0.1400000   -0.1200000   1.015252e-03  1.866303e-06
    115    125   2   0.50000     0.1400000   -0.1200000   1.015252e-03  1.866303e-06
    115    130   2   0.50000     0.1400000    0.0600000   2.494471e-04  1.671101e-07
    117    119   2   0.50000    -0.6830000   -0.1200000   1.154213e-03  1.502983e-06
    117    125   2   0.50000    -0.6830000   -0.1200000   1.154213e-03  1.502983e-06
    117    130   2   0.50000    -0.6830000    0.0600000   2.835898e-04  1.345781e-07
    128    119   2   0.50000     0.0600000   -0.1200000   2.494471e-04  1.671101e-07
    128    125   2   0.50000     0.0600000   -0.1200000   2.494471e-04  1.671101e-07
    128    130   2   0.50000     0.0600000    0.0600000   6.128906e-05  1.496315e-08
    116    120   2   0.50000     0.2050000    0.2050000   1.015252e-03  1.866303e-06
    116    131   2   0.50000     0.2050000    0.0600000   2.494471e-04  1.671101e-07
    116    132   2   0.50000     0.2050000    0.0600000   2.494471e-04  1.671101e-07
    125    120   2   0.50000    -0.1200000    0.2050000   1.015252e-03  1.866303e-06
    125    131   2   0.50000    -0.1200000    0.0600000   2.494471e-04  1.671101e-07
    125    132   2   0.50000    -0.1200000    0.0600000   2.494471e-04  1.671101e-07
    130    120   2   0.50000     0.0600000    0.2050000   2.494471e-04  1.671101e-07
    130    131   2   0.50000     0.0600000    0.0600000   6.128906e-05  1.496315e-08
    130    132   2   0.50000     0.0600000    0.0600000   6.128906e-05  1.496315e-08
    116    124   2   0.50000     0.2050000   -0.1200000   1.015252e-03  1.866303e-06
    116    140   2   0.50000     0.2050000    0.0600000   2.494471e-04  1.671101e-07
    116    141   2   0.50000     0.2050000    0.0600000   2.494471e-04  1.671101e-07
    119    124   2   0.50000    -0.1200000   -0.1200000   1.015252e-03  1.866303e-06
    119    140   2   0.50000    -0.1200000    0.0600000   2.494471e-04  1.671101e-07
    119    141   2   0.50000    -0.1200000    0.0600000   2.494471e-04  1.671101e-07
    130    124   2   0.50000     0.0600000   -0.1200000   2.494471e-04  1.671101e-07
    130    140   2   0.50000     0.0600000    0.0600000   6.128906e-05  1.496315e-08
    130    141   2   0.50000     0.0600000    0.0600000   6.128906e-05  1.496315e-08
    118    121   2   0.50000    -0.0600000   -0.6830000   1.154213e-03  1.502983e-06
    118    122   2   0.50000    -0.0600000   -0.0600000   1.015252e-03  1.866303e-06
    118    133   2   0.50000    -0.0600000    0.0600000   2.494471e-04  1.671101e-07
    131    121   2   0.50000     0.0600000   -0.6830000   2.835898e-04  1.345781e-07
    131    122   2   0.50000     0.0600000   -0.0600000   2.494471e-04  1.671101e-07
    131    133   2   0.50000     0.0600000    0.0600000   6.128906e-05  1.496315e-08
    132    121   2   0.50000     0.0600000   -0.6830000   2.835898e-04  1.345781e-07
    132    122   2   0.50000     0.0600000   -0.0600000   2.494471e-04  1.671101e-07
    132    133   2   0.50000     0.0600000    0.0600000   6.128906e-05  1.496315e-08
    119    134   2   0.50000    -0.1200000    0.4180000   1.995577e-06  1.069504e-11
    122    134   2   0.50000    -0.0600000    0.4180000   1.995577e-06  1.069504e-11
    133    134   2   0.50000     0.0600000    0.4180000   4.903125e-07  9.576416e-13
    119    123   2   0.50000    -0.1200000    0.1400000   1.015252e-03  1.866303e-06
    119    135   2   0.50000    -0.1200000    0.0600000   2.494471e-04  1.671101e-07
    121    123   2   0.50000    -0.6830000    0.1400000   1.154213e-03  1.502983e-06
    121    124   2   0.50000    -0.6830000   -0.1200000   1.154213e-03  1.502983e-06
    121    135   2   0.50000    -0.6830000    0.0600000   2.835898e-04  1.345781e-07
    133    123   2   0.50000     0.0600000    0.1400000   2.494471e-04  1.671101e-07
    133    124   2   0.50000     0.0600000   -0.1200000   2.494471e-04  1.671101e-07
    133    135   2   0.50000     0.0600000    0.0600000   6.128906e-05  1.496315e-08
    120    136   2   0.50000     0.2050000    0.0300000   2.494471e-04  1.671101e-07
    120    137   2   0.50000     0.2050000    0.0300000   2.494471e-04  1.671101e-07
    120    142   2   0.50000     0.2050000   -0.4000000   8.411158e-04  8.795366e-07
    124    136   2   0.50000    -0.1200000    0.0300000   2.494471e-04  1.671101e-07
    124    137   2   0.50000    -0.1200000    0.0300000   2.494471e-04  1.671101e-07
    124    142   2   0.50000    -0.1200000   -0.4000000   8.411158e-04  8.795366e-07
    135    136   2   0.50000     0.0600000    0.0300000   6.128906e-05  1.496315e-08
    135    137   2   0.50000     0.0600000    0.0300000   6.128906e-05  1.496315e-08
    135    142   2   0.50000     0.0600000   -0.4000000   2.066619e-04  7.875431e-08
    120    138   2   0.50000     0.2050000    0.0600000   2.494471e-04  1.671101e-07
    120    139   2   0.50000     0.2050000    0.0600000   2.494471e-04  1.671101e-07
    123    125   2   0.50000     0.1400000   -0.1200000   1.015252e-03  1.866303e-06
    123    138   2   0.50000     0.1400000    0.0600000   2.494471e-04  1.671101e-07
    123    139   2   0.50000     0.1400000    0.0600000   2.494471e-04  1.671101e-07
    135    125   2   0.50000     0.0600000   -0.1200000   2.494471e-04  1.671101e-07
    135    138   2   0.50000     0.0600000    0.0600000   6.128906e-05  1.496315e-08
    135    139   2   0.50000     0.0600000    0.0600000   6.128906e-05  1.496315e-08
    122    143   2   0.50000    -0.0600000    0.1400000   1.015252e-03  1.866303e-06
    136    143   2   0.50000     0.0300000    0.1400000   2.494471e-04  1.671101e-07
    137    143   2   0.50000     0.0300000    0.1400000   2.494471e-04  1.671101e-07
    122    140   2   0.50000    -0.0600000    0.0600000   2.494471e-04  1.671101e-07
    122    141   2   0.50000    -0.0600000    0.0600000   2.494471e-04  1.671101e-07
    138    118   2   0.50000     0.0600000   -0.0600000   2.494471e-04  1.671101e-07
    138    140   2   0.50000     0.0600000    0.0600000   6.128906e-05  1.496315e-08
    138    141   2   0.50000     0.0600000    0.0600000   6.128906e-05  1.496315e-08
    139    118   2   0.50000     0.0600000   -0.0600000   2.494471e-04  1.671101e-07
    139    140   2   0.50000     0.0600000    0.0600000   6.128906e-05  1.496315e-08
    139    141   2   0.50000     0.0600000    0.0600000   6.128906e-05  1.496315e-08
    123    144   2   0.50000     0.1400000    0.2050000   1.015252e-03  1.866303e-06
    123    154   2   0.50000     0.1400000    0.0300000   2.494471e-04  1.671101e-07
    123    155   2   0.50000     0.1400000    0.0300000   2.494471e-04  1.671101e-07
    142    145   2   0.50000    -0.4000000   -0.6830000   9.562422e-04  7.083138e-07
    142    146   2   0.50000    -0.4000000   -0.0600000   8.411158e-04  8.795366e-07
    142    156   2   0.50000    -0.4000000    0.0600000   2.066619e-04  7.875431e-08
    154    145   2   0.50000     0.0300000   -0.6830000   2.835898e-04  1.345781e-07
    154    146   2   0.50000     0.0300000   -0.0600000   2.494471e-04  1.671101e-07
    154    156   2   0.50000     0.0300000    0.0600000   6.128906e-05  1.496315e-08
    155    145   2   0.50000     0.0300000   -0.6830000   2.835898e-04  1.345781e-07
    155    146   2   0.50000     0.0300000   -0.0600000   2.494471e-04  1.671101e-07
    155    156   2   0.50000     0.0300000    0.0600000   6.128906e-05  1.496315e-08
    143    157   2   0.50000     0.1400000    0.4180000   1.995577e-06  1.069504e-11
    146    157   2   0.50000    -0.0600000    0.4180000   1.995577e-06  1.069504e-11
    156    157   2   0.50000     0.0600000    0.4180000   4.903125e-07  9.576416e-13
    143    147   2   0.50000     0.1400000   -0.1200000   1.015252e-03  1.866303e-06
    143    153   2   0.50000     0.1400000   -0.1200000   1.015252e-03  1.866303e-06
    143    158   2   0.50000     0.1400000    0.0600000   2.494471e-04  1.671101e-07
    145    147   2   0.50000    -0.6830000   -0.1200000   1.154213e-03  1.502983e-06
    145    153   2   0.50000    -0.6830000   -0.1200000   1.154213e-03  1.502983e-06
    145    158   2   0.50000    -0.6830000    0.0600000   2.835898e-04  1.345781e-07
    156    147   2   0.50000     0.0600000   -0.1200000   2.494471e-04  1.671101e-07
    156    153   2   0.50000     0.0600000   -0.1200000   2.494471e-04  1.671101e-07
    156    158   2   0.50000     0.0600000    0.0600000   6.128906e-05  1.496315e-08
    144    148   2   0.50000     0.2050000    0.2050000   1.015252e-03  1.866303e-06
    144    159   2   0.50000     0.2050000    0.0600000   2.494471e-04  1.671101e-07
    144    160   2   0.50000     0.2050000    0.0600000   2.494471e-04  1.671101e-07
    153    148   2   0.50000    -0.1200000    0.2050000   1.015252e-03  1.866303e-06
    153    159   2   0.50000    -0.1200000    0.0600000   2.494471e-04  1.671101e-07
    153    160   2   0.50000    -0.1200000    0.0600000   2.494471e-04  1.671101e-07
    158    148   2   0.50000     0.0600000    0.2050000   2.494471e-04  1.671101e-07
    158    159   2   0.50000     0.0600000    0.0600000   6.128906e-05  1.496315e-08
    158    160   2   0.50000     0.0600000    0.0600000   6.128906e-05  1.496315e-08
    144    152   2   0.50000     0.2050000   -0.1200000   1.015252e-03  1.866303e-06
    144    168   2   0.50000     0.2050000    0.0600000   2.494471e-04  1.671101e-07
    144    169   2   0.50000     0.2050000    0.0600000   2.494471e-04  1.671101e-07
    147    152   2   0.50000    -0.1200000   -0.1200000   1.015252e-03  1.866303e-06
    147    168   2   0.50000    -0.1200000    0.0600000   2.494471e-04  1.671101e-07
    147    169   2   0.50000    -0.1200000    0.0600000   2.494471e-04  1.671101e-07
    158    152   2   0.50000     0.0600000   -0.1200000   2.494471e-04  1.671101e-07
    158    168   2   0.50000     0.0600000    0.0600000   6.128906e-05  1.496315e-08
    158    169   2   0.50000     0.0600000    0.0600000   6.128906e-05  1.496315e-08
    146    149   2   0.50000    -0.0600000   -0.6830000   1.154213e-03  1.502983e-06
    146    150   2   0.50000    -0.0600000   -0.0600000   1.015252e-03  1.866303e-06
    146    161   2   0.50000    -0.0600000    0.0600000   2.494471e-04  1.671101e-07
    159    149   2   0.50000     0.0600000   -0.6830000   2.835898e-04  1.345781e-07
    159    150   2   0.50000     0.0600000   -0.0600000   2.494471e-04  1.671101e-07
    159    161   2   0.50000     0.0600000    0.0600000   6.128906e-05  1.496315e-08
    160    149   2   0.50000     0.0600000   -0.6830000   2.835898e-04  1.345781e-07
    160    150   2   0.50000     0.0600000   -0.0600000   2.494471e-04  1.671101e-07
    160    161   2   0.50000     0.0600000    0.0600000   6.128906e-05  1.496315e-08
    147    162   2   0.50000    -0.1200000    0.4180000   1.995577e-06  1.069504e-11
    150    162   2   0.50000    -0.0600000    0.4180000   1.995577e-06  1.069504e-11
    161    162   2   0.50000     0.0600000    0.4180000   4.903125e-07  9.576416e-13
    147    151   2   0.50000    -0.1200000    0.1400000   1.015252e-03  1.866303e-06
    147    163   2   0.50000    -0.1200000    0.0600000   2.494471e-04  1.671101e-07
    149    151   2   0.50000    -0.6830000    0.1400000   1.154213e-03  1.502983e-06
    149    152   2   0.50000    -0.6830000   -0.1200000   1.154213e-03  1.502983e-06
    149    163   2   0.50000    -0.6830000    0.0600000   2.835898e-04  1.345781e-07
    161    151   2   0.50000     0.0600000    0.1400000   2.494471e-04  1.671101e-07
    161    152   2   0.50000     0.0600000   -0.1200000   2.494471e-04  1.671101e-07
    161    163   2   0.50000     0.0600000    0.0600000   6.128906e-05  1.496315e-08
    148    164   2   0.50000     0.2050000    0.0300000   2.494471e-04  1.671101e-07
    148    165   2   0.50000     0.2050000    0.0300000   2.494471e-04  1.671101e-07
    148    170   2   0.50000     0.2050000   -0.4000000   8.411158e-04  8.795366e-07
    152    164   2   0.50000    -0.1200000    0.0300000   2.494471e-04  1.671101e-07
    152    165   2   0.50000    -0.1200000    0.0300000   2.494471e-04  1.671101e-07
    152    170   2   0.50000    -0.1200000   -0.4000000   8.411158e-04  8.795366e-07
    163    164   2   0.50000     0.0600000    0.0300000   6.128906e-05  1.496315e-08
    163    165   2   0.50000     0.0600000    0.0300000   6.128906e-05  1.496315e-08
    163    170   2   0.50000     0.0600000   -0.4000000   2.066619e-04  7.875431e-08
    148    166   2   0.50000     0.2050000    0.0600000   2.494471e-04  1.671101e-07
    148    167   2   0.50000     0.2050000    0.0600000   2.494471e-04  1.671101e-07
    151    153   2   0.50000     0.1400000   -0.1200000   1.015252e-03  1.866303e-06
    151    166   2   0.50000     0.1400000    0.0600000   2.494471e-04  1.671101e-07
    151    167   2   0.50000     0.1400000    0.0600000   2.494471e-04  1.671101e-07
    163    153   2   0.50000     0.0600000   -0.1200000   2.494471e-04  1.671101e-07
    163    166   2   0.50000     0.0600000    0.0600000   6.128906e-05  1.496315e-08
    163    167   2   0.50000     0.0600000    0.0600000   6.128906e-05  1.496315e-08
    150    171   2   0.50000    -0.0600000    0.1400000   1.015252e-03  1.866303e-06
    164    171   2   0.50000     0.0300000    0.1400000   2.494471e-04  1.671101e-07
    165    171   2   0.50000     0.0300000    0.1400000   2.494471e-04  1.671101e-07
    150    168   2   0.50000    -0.0600000    0.0600000   2.494471e-04  1.671101e-07
    150    169   2   0.50000    -0.0600000    0.0600000   2.494471e-04  1.671101e-07
    166    146   2   0.50000     0.0600000   -0.0600000   2.494471e-04  1.671101e-07
    166    168   2   0.50000     0.0600000    0.0600000   6.128906e-05  1.496315e-08
    166    169   2   0.50000     0.0600000    0.0600000   6.128906e-05  1.496315e-08
    167    146   2   0.50000     0.0600000   -0.0600000   2.494471e-04  1.671101e-07
    167    168   2   0.50000     0.0600000    0.0600000   6.128906e-05  1.496315e-08
    167    169   2   0.50000     0.0600000    0.0600000   6.128906e-05  1.496315e-08
    151    172   2   0.50000     0.1400000    0.2050000   1.015252e-03  1.866303e-06
    151    182   2   0.50000     0.1400000    0.0300000   2.494471e-04  1.671101e-07
    151    183   2   0.50000     0.1400000    0.0300000   2.494471e-04  1.671101e-07
    170    173   2   0.50000    -0.4000000   -0.6830000   9.562422e-04  7.083138e-07
    170    174   2   0.50000    -0.4000000   -0.0600000   8.411158e-04  8.795366e-07
    170    184   2   0.50000    -0.4000000    0.0600000   2.066619e-04  7.875431e-08
    182    173   2   0.50000     0.0300000   -0.6830000   2.835898e-04  1.345781e-07
    182    174   2   0.50000     0.0300000   -0.0600000   2.494471e-04  1.671101e-07
    182    184   2   0.50000     0.0300000    0.0600000   6.128906e-05  1.496315e-08
    183    173   2   0.50000     0.0300000   -0.6830000   2.835898e-04  1.345781e-07
    183    174   2   0.50000     0.0300000   -0.0600000   2.494471e-04  1.671101e-07
    183    184   2   0.50000     0.0300000    0.0600000   6.128906e-05  1.496315e-08
    171    185   2   0.50000     0.1400000    0.4180000   1.995577e-06  1.069504e-11
    174    185   2   0.50000    -0.0600000    0.4180000   1.995577e-06  1.069504e-11
    184    185   2   0.50000     0.0600000    0.4180000   4.903125e-07  9.576416e-13
    171    175   2   0.50000     0.1400000   -0.1200000   1.015252e-03  1.866303e-06
    171    181   2   0.50000     0.1400000   -0.1200000   1.015252e-03  1.866303e-06
    171    186   2   0.50000     0.1400000    0.0600000   2.494471e-04  1.671101e-07
    173    175   2   0.50000    -0.6830000   -0.1200000   1.154213e-03  1.502983e-06
    173    181   2   0.50000    -0.6830000   -0.1200000   1.154213e-03  1.502983e-06
    173    186   2   0.50000    -0.6830000    0.0600000   2.835898e-04  1.345781e-07
    184    175   2   0.50000     0.0600000   -0.1200000   2.494471e-04  1.671101e-07
    184    181   2   0.50000     0.0600000   -0.1200000   2.494471e-04  1.671101e-07
    184    186   2   0.50000     0.0600000    0.0600000   6.128906e-05  1.496315e-08
    172    176   2   0.50000     0.2050000    0.2050000   1.015252e-03  1.866303e-06
    172    187   2   0.50000     0.2050000    0.0600000   2.494471e-04  1.671101e-07
    172    188   2   0.50000     0.2050000    0.0600000   2.494471e-04  1.671101e-07
    181    176   2   0.50000    -0.1200000    0.2050000   1.015252e-03  1.866303e-06
    181    187   2   0.50000    -0.1200000    0.0600000   2.494471e-04  1.671101e-07
    181    188   2   0.50000    -0.1200000    0.0600000   2.494471e-04  1.671101e-07
    186    176   2   0.50000     0.0600000    0.2050000   2.494471e-04  1.671101e-07
    186    187   2   0.50000     0.0600000    0.0600000   6.128906e-05  1.496315e-08
    186    188   2   0.50000     0.0600000    0.0600000   6.128906e-05  1.496315e-08
    172    180   2   0.50000     0.2050000   -0.1200000   1.015252e-03  1.866303e-06
    172    196   2   0.50000     0.2050000    0.0600000   2.494471e-04  1.671101e-07
    172    197   2   0.50000     0.2050000    0.0600000   2.494471e-04  1.671101e-07
    175    180   2   0.50000    -0.1200000   -0.1200000   1.015252e-03  1.866303e-06
    175    196   2   0.50000    -0.1200000    0.0600000   2.494471e-04  1.671101e-07
    175    197   2   0.50000    -0.1200000    0.0600000   2.494471e-04  1.671101e-07
    186    180   2   0.50000     0.0600000   -0.1200000   2.494471e-04  1.671101e-07
    186    196   2   0.50000     0.0600000    0.0600000   6.128906e-05  1.496315e-08
    186    197   2   0.50000     0.0600000    0.0600000   6.128906e-05  1.496315e-08
    174    177   2   0.50000    -0.0600000   -0.6830000   1.154213e-03  1.502983e-06
    174    178   2   0.50000    -0.0600000   -0.0600000   1.015252e-03  1.866303e-06
    174    189   2   0.50000    -0.0600000    0.0600000   2.494471e-04  1.671101e-07
    187    177   2   0.50000     0.0600000   -0.6830000   2.835898e-04  1.345781e-07
    187    178   2   0.50000     0.0600000   -0.0600000   2.494471e-04  1.671101e-07
    187    189   2   0.50000     0.0600000    0.0600000   6.128906e-05  1.496315e-08
    188    177   2   0.50000     0.0600000   -0.6830000   2.835898e-04  1.345781e-07
    188    178   2   0.50000     0.0600000   -0.0600000   2.494471e-04  1.671101e-07
    188    189   2   0.50000     0.0600000    0.0600000   6.128906e-05  1.496315e-08
    175    190   2   0.50000    -0.1200000    0.4180000   1.995577e-06  1.069504e-11
    178    190   2   0.50000    -0.0600000    0.4180000   1.995577e-06  1.069504e-11
    189    190   2   0.50000     0.0600000    0.4180000   4.903125e-07  9.576416e-13
    175    179   2   0.50000    -0.1200000    0.1400000   1.015252e-03  1.866303e-06
    175    191   2   0.50000    -0.1200000    0.0600000   2.494471e-04  1.671101e-07
    177    179   2   0.50000    -0.6830000    0.1400000   1.154213e-03  1.502983e-06
    177    180   2   0.50000    -0.6830000   -0.1200000   1.154213e-03  1.502983e-06
    177    191   2   0.50000    -0.6830000    0.0600000   2.835898e-04  1.345781e-07
    189    179   2   0.50000     0.0600000    0.1400000   2.494471e-04  1.671101e-07
    189    180   2   0.50000     0.0600000   -0.1200000   2.494471e-04  1.671101e-07
    189    191   2   0.50000     0.0600000    0.0600000   6.128906e-05  1.496315e-08
    176    192   2   0.50000     0.2050000    0.0300000   2.494471e-04  1.671101e-07
    176    193   2   0.50000     0.2050000    0.0300000   2.494471e-04  1.671101e-07
    176    198   2   0.50000     0.2050000   -0.4000000   8.411158e-04  8.795366e-07
    180    192   2   0.50000    -0.1200000    0.0300000   2.494471e-04  1.671101e-07
    180    193   2   0.50000    -0.1200000    0.0300000   2.494471e-04  1.671101e-07
    180    198   2   0.50000    -0.1200000   -0.4000000   8.411158e-04  8.795366e-07
    191    192   2   0.50000     0.0600000    0.0300000   6.128906e-05  1.496315e-08
    191    193   2   0.50000     0.0600000    0.0300000   6.128906e-05  1.496315e-08
    191    198   2   0.50000     0.0600000   -0.4000000   2.066619e-04  7.875431e-08
    176    194   2   0.50000     0.2050000    0.0600000   2.494471e-04  1.671101e-07
    176    195   2   0.50000     0.2050000    0.0600000   2.494471e-04  1.671101e-07
    179    181   2   0.50000     0.1400000   -0.1200000   1.015252e-03  1.866303e-06
    179    194   2   0.50000     0.1400000    0.0600000   2.494471e-04  1.671101e-07
    179    195   2   0.50000     0.1400000    0.0600000   2.494471e-04  1.671101e-07
    191    181   2   0.50000     0.0600000   -0.1200000   2.494471e-04  1.671101e-07
    191    194   2   0.50000     0.0600000    0.0600000   6.128906e-05  1.496315e-08
    191    195   2   0.50000     0.0600000    0.0600000   6.128906e-05  1.496315e-08
    178    199   2   0.50000    -0.0600000    0.1400000   1.015252e-03  1.866303e-06
    192    199   2   0.50000     0.0300000    0.1400000   2.494471e-04  1.671101e-07
    193    199   2   0.50000     0.0300000    0.1400000   2.494471e-04  1.671101e-07
    178    196   2   0.50000    -0.0600000    0.0600000   2.494471e-04  1.671101e-07
    178    197   2   0.50000    -0.0600000    0.0600000   2.494471e-04  1.671101e-07
    194    174   2   0.50000     0.0600000   -0.0600000   2.494471e-04  1.671101e-07
    194    196   2   0.50000     0.0600000    0.0600000   6.128906e-05  1.496315e-08
    194    197   2   0.50000     0.0600000    0.0600000   6.128906e-05  1.496315e-08
    195    174   2   0.50000     0.0600000   -0.0600000   2.494471e-04  1.671101e-07
    195    196   2   0.50000     0.0600000    0.0600000   6.128906e-05  1.496315e-08
    195    197   2   0.50000     0.0600000    0.0600000   6.128906e-05  1.496315e-08
    179    200   2   0.50000     0.1400000    0.2050000   1.015252e-03  1.866303e-06
    179    210   2   0.50000     0.1400000    0.0300000   2.494471e-04  1.671101e-07
    179    211   2   0.50000     0.1400000    0.0300000   2.494471e-04  1.671101e-07
    198    201   2   0.50000    -0.4000000   -0.6830000   9.562422e-04  7.083138e-07
    198    202   2   0.50000    -0.4000000   -0.0600000   8.411158e-04  8.795366e-07
    198    212   2   0.50000    -0.4000000    0.0600000   2.066619e-04  7.875431e-08
    210    201   2   0.50000     0.0300000   -0.6830000   2.835898e-04  1.345781e-07
    210    202   2   0.50000     0.0300000   -0.0600000   2.494471e-04  1.671101e-07
    210    212   2   0.50000     0.0300000    0.0600000   6.128906e-05  1.496315e-08
    211    201   2   0.50000     0.0300000   -0.6830000   2.835898e-04  1.345781e-07
    211    202   2   0.50000     0.0300000   -0.0600000   2.494471e-04  1.671101e-07
    211    212   2   0.50000     0.0300000    0.0600000   6.128906e-05  1.496315e-08
    199    213   2   0.50000     0.1400000    0.4180000   1.995577e-06  1.069504e-11
    202    213   2   0.50000    -0.0600000    0.4180000   1.995577e-06  1.069504e-11
    212    213   2   0.50000     0.0600000    0.4180000   4.903125e-07  9.576416e-13
    199    203   2   0.50000     0.1400000   -0.1200000   1.015252e-03  1.866303e-06
    199    209   2   0.50000     0.1400000   -0.1200000   1.015252e-03  1.866303e-06
    199    214   2   0.50000     0.1400000    0.0600000   2.494471e-04  1.671101e-07
    201    203   2   0.50000    -0.6830000   -0.1200000   1.154213e-03  1.502983e-06
    201    209   2   0.50000    -0.6830000   -0.1200000   1.154213e-03  1.502983e-06
    201    214   2   0.50000    -0.6830000    0.0600000   2.835898e-04  1.345781e-07
    212    203   2   0.50000     0.0600000   -0.1200000   2.494471e-04  1.671101e-07
    212    209   2   0.50000     0.0600000   -0.1200000   2.494471e-04  1.671101e-07
    212    214   2   0.50000     0.0600000    0.0600000   6.128906e-05  1.496315e-08
    200    204   2   0.50000     0.2050000    0.2050000   1.015252e-03  1.866303e-06
    200    215   2   0.50000     0.2050000    0.0600000   2.494471e-04  1.671101e-07
    200    216   2   0.50000     0.2050000    0.0600000   2.494471e-04  1.671101e-07
    209    204   2   0.50000    -0.1200000    0.2050000   1.015252e-03  1.866303e-06
    209    215   2   0.50000    -0.1200000    0.0600000   2.494471e-04  1.671101e-07
    209    216   2   0.50000    -0.1200000    0.0600000   2.494471e-04  1.671101e-07
    214    204   2   0.50000     0.0600000    0.2050000   2.494471e-04  1.671101e-07
    214    215   2   0.50000     0.0600000    0.0600000   6.128906e-05  1.496315e-08
    214    216   2   0.50000     0.0600000    0.0600000   6.128906e-05  1.496315e-08
    200    208   2   0.50000     0.2050000   -0.1200000   1.015252e-03  1.866303e-06
    200    224   2   0.50000     0.2050000    0.0600000   2.494471e-04  1.671101e-07
    200    225   2   0.50000     0.2050000    0.0600000   2.494471e-04  1.671101e-07
    203    208   2   0.50000    -0.1200000   -0.1200000   1.015252e-03  1.866303e-06
    203    224   2   0.50000    -0.1200000    0.0600000   2.494471e-04  1.671101e-07
    203    225   2   0.50000    -0.1200000    0.0600000   2.494471e-04  1.671101e-07
    214    208   2   0.50000     0.0600000   -0.1200000   2.494471e-04  1.671101e-07
    214    224   2   0.50000     0.0600000    0.0600000   6.128906e-05  1.496315e-08
    214    225   2   0.50000     0.0600000    0.0600000   6.128906e-05  1.496315e-08
    202    205   2   0.50000    -0.0600000   -0.6830000   1.154213e-03  1.502983e-06
    202    206   2   0.50000    -0.0600000   -0.0600000   1.015252e-03  1.866303e-06
    202    217   2   0.50000    -0.0600000    0.0600000   2.494471e-04  1.671101e-07
    215    205   2   0.50000     0.0600000   -0.6830000   2.835898e-04  1.345781e-07
    215    206   2   0.50000     0.0600000   -0.0600000   2.494471e-04  1.671101e-07
    215    217   2   0.50000     0.0600000    0.0600000   6.128906e-05  1.496315e-08
    216    205   2   0.50000     0.0600000   -0.6830000   2.835898e-04  1.345781e-07
    216    206   2   0.50000     0.0600000   -0.0600000   2.494471e-04  1.671101e-07
    216    217   2   0.50000     0.0600000    0.0600000   6.128906e-05  1.496315e-08
    203    218   2   0.50000    -0.1200000    0.4180000   1.995577e-06  1.069504e-11
    206    218   2   0.50000    -0.0600000    0.4180000   1.995577e-06  1.069504e-11
    217    218   2   0.50000     0.0600000    0.4180000   4.903125e-07  9.576416e-13
    203    207   2   0.50000    -0.1200000    0.1400000   1.015252e-03  1.866303e-06
    203    219   2   0.50000    -0.1200000    0.0600000   2.494471e-04  1.671101e-07
    205    207   2   0.50000    -0.6830000    0.1400000   1.154213e-03  1.502983e-06
    205    208   2   0.50000    -0.6830000   -0.1200000   1.154213e-03  1.502983e-06
    205    219   2   0.50000    -0.6830000    0.0600000   2.835898e-04  1.345781e-07
    217    207   2   0.50000     0.0600000    0.1400000   2.494471e-04  1.671101e-07
    217    208   2   0.50000     0.0600000   -0.1200000   2.494471e-04  1.671101e-07
    217    219   2   0.50000     0.0600000    0.0600000   6.128906e-05  1.496315e-08
    204    220   2   0.50000     0.2050000    0.0300000   2.494471e-04  1.671101e-07
    204    221   2   0.50000     0.2050000    0.0300000   2.494471e-04  1.671101e-07
    204    226   2   0.50000     0.2050000   -0.4000000   8.411158e-04  8.795366e-07
    208    220   2   0.50000    -0.1200000    0.0300000   2.494471e-04  1.671101e-07
    208    221   2   0.50000    -0.1200000    0.0300000   2.494471e-04  1.671101e-07
    208    226   2   0.50000    -0.1200000   -0.4000000   8.411158e-04  8.795366e-07
    219    220   2   0.50000     0.0600000    0.0300000   6.128906e-05  1.496315e-08
    219    221   2   0.50000     0.0600000    0.0300000   6.128906e-05  1.496315e-08
    219    226   2   0.50000     0.0600000   -0.4000000   2.066619e-04  7.875431e-08
    204    222   2   0.50000     0.2050000    0.0600000   2.494471e-04  1.671101e-07
    204    223   2   0.50000     0.2050000    0.0600000   2.494471e-04  1.671101e-07
    207    209   2   0.50000     0.1400000   -0.1200000   1.015252e-03  1.866303e-06
    207    222   2   0.50000     0.1400000    0.0600000   2.494471e-04  1.671101e-07
    207    223   2   0.50000     0.1400000    0.0600000   2.494471e-04  1.671101e-07
    219    209   2   0.50000     0.0600000   -0.1200000   2.494471e-04  1.671101e-07
    219    222   2   0.50000     0.0600000    0.0600000   6.128906e-05  1.496315e-08
    219    223   2   0.50000     0.0600000    0.0600000   6.128906e-05  1.496315e-08
    206    227   2   0.50000    -0.0600000    0.1400000   1.015252e-03  1.866303e-06
    220    227   2   0.50000     0.0300000    0.1400000   2.494471e-04  1.671101e-07
    221    227   2   0.50000     0.0300000    0.1400000   2.494471e-04  1.671101e-07
    206    224   2   0.50000    -0.0600000    0.0600000   2.494471e-04  1.671101e-07
    206    225   2   0.50000    -0.0600000    0.0600000   2.494471e-04  1.671101e-07
    222    202   2   0.50000     0.0600000   -0.0600000   2.494471e-04  1.671101e-07
    222    224   2   0.50000     0.0600000    0.0600000   6.128906e-05  1.496315e-08
    222    225   2   0.50000     0.0600000    0.0600000   6.128906e-05  1.496315e-08
    223    202   2   0.50000     0.0600000   -0.0600000   2.494471e-04  1.671101e-07
    223    224   2   0.50000     0.0600000    0.0600000   6.128906e-05  1.496315e-08
    223    225   2   0.50000     0.0600000    0.0600000   6.128906e-05  1.496315e-08
    207    228   2   0.50000     0.1400000    0.2050000   1.015252e-03  1.866303e-06
    207    238   2   0.50000     0.1400000    0.0300000   2.494471e-04  1.671101e-07
    207    239   2   0.50000     0.1400000    0.0300000   2.494471e-04  1.671101e-07
    226    229   2   0.50000    -0.4000000   -0.6830000   9.562422e-04  7.083138e-07
    226    230   2   0.50000    -0.4000000   -0.0600000   8.411158e-04  8.795366e-07
    226    240   2   0.50000    -0.4000000    0.0600000   2.066619e-04  7.875431e-08
    238    229   2   0.50000     0.0300000   -0.6830000   2.835898e-04  1.345781e-07
    238    230   2   0.50000     0.0300000   -0.0600000   2.494471e-04  1.671101e-07
    238    240   2   0.50000     0.0300000    0.0600000   6.128906e-05  1.496315e-08
    239    229   2   0.50000     0.0300000   -0.6830000   2.835898e-04  1.345781e-07
    239    230   2   0.50000     0.0300000   -0.0600000   2.494471e-04  1.671101e-07
    239    240   2   0.50000     0.0300000    0.0600000   6.128906e-05  1.496315e-08
    227    241   2   0.50000     0.1400000    0.4180000   1.995577e-06  1.069504e-11
    230    241   2   0.50000    -0.0600000    0.4180000   1.995577e-06  1.069504e-11
    240    241   2   0.50000     0.0600000    0.4180000   4.903125e-07  9.576416e-13
    227    231   2   0.50000     0.1400000   -0.1200000   1.015252e-03  1.866303e-06
    227    237   2   0.50000     0.1400000   -0.1200000   1.015252e-03  1.866303e-06
    227    242   2   0.50000     0.1400000    0.0600000   2.494471e-04  1.671101e-07
    229    231   2   0.50000    -0.6830000   -0.1200000   1.154213e-03  1.502983e-06
    229    237   2   0.50000    -0.6830000   -0.1200000   1.154213e-03  1.502983e-06
    229    242   2   0.50000    -0.6830000    0.0600000   2.835898e-04  1.345781e-07
    240    231   2   0.50000     0.0600000   -0.1200000   2.494471e-04  1.671101e-07
    240    237   2   0.50000     0.0600000   -0.1200000   2.494471e-04  1.671101e-07
    240    242   2   0.50000     0.0600000    0.0600000   6.128906e-05  1.496315e-08
    228    232   2   0.50000     0.2050000    0.2050000   1.015252e-03  1.866303e-06
    228    243   2   0.50000     0.2050000    0.0600000   2.494471e-04  1.671101e-07
    228    244   2   0.50000     0.2050000    0.0600000   2.494471e-04  1.671101e-07
    237    232   2   0.50000    -0.1200000    0.2050000   1.015252e-03  1.866303e-06
    237    243   2   0.50000    -0.1200000    0.0600000   2.494471e-04  1.671101e-07
    237    244   2   0.50000    -0.1200000    0.0600000   2.494471e-04  1.671101e-07
    242    232   2   0.50000     0.0600000    0.2050000   2.494471e-04  1.671101e-07
    242    243   2   0.50000     0.0600000    0.0600000   6.128906e-05  1.496315e-08
    242    244   2   0.50000     0.0600000    0.0600000   6.128906e-05  1.496315e-08
    228    236   2   0.50000     0.2050000   -0.1200000   1.015252e-03  1.866303e-06
    228    252   2   0.50000     0.2050000    0.0600000   2.494471e-04  1.671101e-07
    228    253   2   0.50000     0.2050000    0.0600000   2.494471e-04  1.671101e-07
    231    236   2   0.50000    -0.1200000   -0.1200000   1.015252e-03  1.866303e-06
    231    252   2   0.50000    -0.1200000    0.0600000   2.494471e-04  1.671101e-07
    231    253   2   0.50000    -0.1200000    0.0600000   2.494471e-04  1.671101e-07
    242    236   2   0.50000     0.0600000   -0.1200000   2.494471e-04  1.671101e-07
    242    252   2   0.50000     0.0600000    0.0600000   6.128906e-05  1.496315e-08
    242    253   2   0.50000     0.0600000    0.0600000   6.128906e-05  1.496315e-08
    230    233   2   0.50000    -0.0600000   -0.6830000   1.154213e-03  1.502983e-06
    230    234   2   0.50000    -0.0600000   -0.0600000   1.015252e-03  1.866303e-06
    230    245   2   0.50000    -0.0600000    0.0600000   2.494471e-04  1.671101e-07
    243    233   2   0.50000     0.0600000   -0.6830000   2.835898e-04  1.345781e-07
    243    234   2   0.50000     0.0600000   -0.0600000   2.494471e-04  1.671101e-07
    243    245   2   0.50000     0.0600000    0.0600000   6.128906e-05  1.496315e-08
    244    233   2   0.50000     0.0600000   -0.6830000   2.835898e-04  1.345781e-07
    244    234   2   0.50000     0.0600000   -0.0600000   2.494471e-04  1.671101e-07
    244    245   2   0.50000     0.0600000    0.0600000   6.128906e-05  1.496315e-08
    231    246   2   0.50000    -0.1200000    0.4180000   1.995577e-06  1.069504e-11
    234    246   2   0.50000    -0.0600000    0.4180000   1.995577e-06  1.069504e-11
    245    246   2   0.50000     0.0600000    0.4180000   4.903125e-07  9.576416e-13
    231    235   2   0.50000    -0.1200000    0.1400000   1.015252e-03  1.866303e-06
    231    247   2   0.50000    -0.1200000    0.0600000   2.494471e-04  1.671101e-07
    233    235   2   0.50000    -0.6830000    0.1400000   1.154213e-03  1.502983e-06
    233    236   2   0.50000    -0.6830000   -0.1200000   1.154213e-03  1.502983e-06
    233    247   2   0.50000    -0.6830000    0.0600000   2.835898e-04  1.345781e-07
    245    235   2   0.50000     0.0600000    0.1400000   2.494471e-04  1.671101e-07
    245    236   2   0.50000     0.0600000   -0.1200000   2.494471e-04  1.671101e-07
    245    247   2   0.50000     0.0600000    0.0600000   6.128906e-05  1.496315e-08
    232    248   2   0.50000     0.2050000    0.0300000   2.494471e-04  1.671101e-07
    232    249   2   0.50000     0.2050000    0.0300000   2.494471e-04  1.671101e-07
    232    254   2   0.50000     0.2050000   -0.4000000   8.411158e-04  8.795366e-07
    236    248   2   0.50000    -0.1200000    0.0300000   2.494471e-04  1.671101e-07
    236    249   2   0.50000    -0.1200000    0.0300000   2.494471e-04  1.671101e-07
    236    254   2   0.50000    -0.1200000   -0.4000000   8.411158e-04  8.795366e-07
    247    248   2   0.50000     0.0600000    0.0300000   6.128906e-05  1.496315e-08
    247    249   2   0.50000     0.0600000    0.0300000   6.128906e-05  1.496315e-08
    247    254   2   0.50000     0.0600000   -0.4000000   2.066619e-04  7.875431e-08
    232    250   2   0.50000     0.2050000    0.0600000   2.494471e-04  1.671101e-07
    232    251   2   0.50000     0.2050000    0.0600000   2.494471e-04  1.671101e-07
    235    237   2   0.50000     0.1400000   -0.1200000   1.015252e-03  1.866303e-06
    235    250   2   0.50000     0.1400000    0.0600000   2.494471e-04  1.671101e-07
    235    251   2   0.50000     0.1400000    0.0600000   2.494471e-04  1.671101e-07
    247    237   2   0.50000     0.0600000   -0.1200000   2.494471e-04  1.671101e-07
    247    250   2   0.50000     0.0600000    0.0600000   6.128906e-05  1.496315e-08
    247    251   2   0.50000     0.0600000    0.0600000   6.128906e-05  1.496315e-08
    234    255   2   0.50000    -0.0600000    0.1400000   1.015252e-03  1.866303e-06
    248    255   2   0.50000     0.0300000    0.1400000   2.494471e-04  1.671101e-07
    249    255   2   0.50000     0.0300000    0.1400000   2.494471e-04  1.671101e-07
    234    252   2   0.50000    -0.0600000    0.0600000   2.494471e-04  1.671101e-07
    234    253   2   0.50000    -0.0600000    0.0600000   2.494471e-04  1.671101e-07
    250    230   2   0.50000     0.0600000   -0.0600000   2.494471e-04  1.671101e-07
    250    252   2   0.50000     0.0600000    0.0600000   6.128906e-05  1.496315e-08
    250    253   2   0.50000     0.0600000    0.0600000   6.128906e-05  1.496315e-08
    251    230   2   0.50000     0.0600000   -0.0600000   2.494471e-04  1.671101e-07
    251    252   2   0.50000     0.0600000    0.0600000   6.128906e-05  1.496315e-08
    251    253   2   0.50000     0.0600000    0.0600000   6.128906e-05  1.496315e-08
    235    256   2   0.50000     0.1400000    0.2050000   1.015252e-03  1.866303e-06
    235    266   2   0.50000     0.1400000    0.0300000   2.494471e-04  1.671101e-07
    235    267   2   0.50000     0.1400000    0.0300000   2.494471e-04  1.671101e-07
    254    257   2   0.50000    -0.4000000   -0.6830000   9.562422e-04  7.083138e-07
    254    258   2   0.50000    -0.4000000   -0.0600000   8.411158e-04  8.795366e-07
    254    268   2   0.50000    -0.4000000    0.0600000   2.066619e-04  7.875431e-08
    266    257   2   0.50000     0.0300000   -0.6830000   2.835898e-04  1.345781e-07
    266    258   2   0.50000     0.0300000   -0.0600000   2.494471e-04  1.671101e-07
    266    268   2   0.50000     0.0300000    0.0600000   6.128906e-05  1.496315e-08
    267    257   2   0.50000     0.0300000   -0.6830000   2.835898e-04  1.345781e-07
    267    258   2   0.50000     0.0300000   -0.0600000   2.494471e-04  1.671101e-07
    267    268   2   0.50000     0.0300000    0.0600000   6.128906e-05  1.496315e-08
    255    269   2   0.50000     0.1400000    0.4180000   1.995577e-06  1.069504e-11
    258    269   2   0.50000    -0.0600000    0.4180000   1.995577e-06  1.069504e-11
    268    269   2   0.50000     0.0600000    0.4180000   4.903125e-07  9.576416e-13
    255    259   2   0.50000     0.1400000   -0.1200000   1.015252e-03  1.866303e-06
    255    265   2   0.50000     0.1400000   -0.1200000   1.015252e-03  1.866303e-06
    255    270   2   0.50000     0.1400000    0.0600000   2.494471e-04  1.671101e-07
    257    259   2   0.50000    -0.6830000   -0.1200000   1.154213e-03  1.502983e-06
    257    265   2   0.50000    -0.6830000   -0.1200000   1.154213e-03  1.502983e-06
    257    270   2   0.50000    -0.6830000    0.0600000   2.835898e-04  1.345781e-07
    268    259   2   0.50000     0.0600000   -0.1200000   2.494471e-04  1.671101e-07
    268    265   2   0.50000     0.0600000   -0.1200000   2.494471e-04  1.671101e-07
    268    270   2   0.50000     0.0600000    0.0600000   6.128906e-05  1.496315e-08
    256    260   2   0.50000     0.2050000    0.2050000   1.015252e-03  1.866303e-06
    256    271   2   0.50000     0.2050000    0.0600000   2.494471e-04  1.671101e-07
    256    272   2   0.50000     0.2050000    0.0600000   2.494471e-04  1.671101e-07
    265    260   2   0.50000    -0.1200000    0.2050000   1.015252e-03  1.866303e-06
    265    271   2   0.50000    -0.1200000    0.0600000   2.494471e-04  1.671101e-07
    265    272   2   0.50000    -0.1200000    0.0600000   2.494471e-04  1.671101e-07
    270    260   2   0.50000     0.0600000    0.2050000   2.494471e-04  1.671101e-07
    270    271   2   0.50000     0.0600000    0.0600000   6.128906e-05  1.496315e-08
    270    272   2   0.50000     0.0600000    0.0600000   6.128906e-05  1.496315e-08
    256    264   2   0.50000     0.2050000   -0.1200000   1.015252e-03  1.866303e-06
    256    280   2   0.50000     0.2050000    0.0600000   2.494471e-04  1.671101e-07
    256    281   2   0.50000     0.2050000    0.0600000   2.494471e-04  1.671101e-07
    259    264   2   0.50000    -0.1200000   -0.1200000   1.015252e-03  1.866303e-06
    259    280   2   0.50000    -0.1200000    0.0600000   2.494471e-04  1.671101e-07
    259    281   2   0.50000    -0.1200000    0.0600000   2.494471e-04  1.671101e-07
    270    264   2   0.50000     0.0600000   -0.1200000   2.494471e-04  1.671101e-07
    270    280   2   0.50000     0.0600000    0.0600000   6.128906e-05  1.496315e-08
    270    281   2   0.50000     0.0600000    0.0600000   6.128906e-05  1.496315e-08
    258    261   2   0.50000    -0.0600000   -0.6830000   1.154213e-03  1.502983e-06
    258    262   2   0.50000    -0.0600000   -0.0600000   1.015252e-03  1.866303e-06
    258    273   2   0.50000    -0.0600000    0.0600000   2.494471e-04  1.671101e-07
    271    261   2   0.50000     0.0600000   -0.6830000   2.835898e-04  1.345781e-07
    271    262   2   0.50000     0.0600000   -0.0600000   2.494471e-04  1.671101e-07
    271    273   2   0.50000     0.0600000    0.0600000   6.128906e-05  1.496315e-08
    272    261   2   0.50000     0.0600000   -0.6830000   2.835898e-04  1.345781e-07
    272    262   2   0.50000     0.0600000   -0.0600000   2.494471e-04  1.671101e-07
    272    273   2   0.50000     0.0600000    0.0600000   6.128906e-05  1.496315e-08
    259    274   2   0.50000    -0.1200000    0.4180000   1.995577e-06  1.069504e-11
    262    274   2   0.50000    -0.0600000    0.4180000   1.995577e-06  1.069504e-11
    273    274   2   0.50000     0.0600000    0.4180000   4.903125e-07  9.576416e-13
    259    263   2   0.50000    -0.1200000    0.1400000   1.015252e-03  1.866303e-06
    259    275   2   0.50000    -0.1200000    0.0600000   2.494471e-04  1.671101e-07
    261    263   2   0.50000    -0.6830000    0.1400000   1.154213e-03  1.502983e-06
    261    264   2   0.50000    -0.6830000   -0.1200000   1.154213e-03  1.502983e-06
    261    275   2   0.50000    -0.6830000    0.0600000   2.835898e-04  1.345781e-07
    273    263   2   0.50000     0.0600000    0.1400000   2.494471e-04  1.671101e-07
    273    264   2   0.50000     0.0600000   -0.1200000   2.494471e-04  1.671101e-07
    273    275   2   0.50000     0.0600000    0.0600000   6.128906e-05  1.496315e-08
    260    276   2   0.50000     0.2050000    0.0300000   2.494471e-04  1.671101e-07
    260    277   2   0.50000     0.2050000    0.0300000   2.494471e-04  1.671101e-07
    260    282   2   0.50000     0.2050000   -0.4000000   8.411158e-04  8.795366e-07
    264    276   2   0.50000    -0.1200000    0.0300000   2.494471e-04  1.671101e-07
    264    277   2   0.50000    -0.1200000    0.0300000   2.494471e-04  1.671101e-07
    264    282   2   0.50000    -0.1200000   -0.4000000   8.411158e-04  8.795366e-07
    275    276   2   0.50000     0.0600000    0.0300000   6.128906e-05  1.496315e-08
    275    277   2   0.50000     0.0600000    0.0300000   6.128906e-05  1.496315e-08
    275    282   2   0.50000     0.0600000   -0.4000000   2.066619e-04  7.875431e-08
    260    278   2   0.50000     0.2050000    0.0600000   2.494471e-04  1.671101e-07
    260    279   2   0.50000     0.2050000    0.0600000   2.494471e-04  1.671101e-07
    263    265   2   0.50000     0.1400000   -0.1200000   1.015252e-03  1.866303e-06
    263    278   2   0.50000     0.1400000    0.0600000   2.494471e-04  1.671101e-07
    263    279   2   0.50000     0.1400000    0.0600000   2.494471e-04  1.671101e-07
    275    265   2   0.50000     0.0600000   -0.1200000   2.494471e-04  1.671101e-07
    275    278   2   0.50000     0.0600000    0.0600000   6.128906e-05  1.496315e-08
    275    279   2   0.50000     0.0600000    0.0600000   6.128906e-05  1.496315e-08
    262    283   2   0.50000    -0.0600000    0.1400000   1.015252e-03  1.866303e-06
    276    283   2   0.50000     0.0300000    0.1400000   2.494471e-04  1.671101e-07
    277    283   2   0.50000     0.0300000    0.1400000   2.494471e-04  1.671101e-07
    262    280   2   0.50000    -0.0600000    0.0600000   2.494471e-04  1.671101e-07
    262    281   2   0.50000    -0.0600000    0.0600000   2.494471e-04  1.671101e-07
    278    258   2   0.50000     0.0600000   -0.0600000   2.494471e-04  1.671101e-07
    278    280   2   0.50000     0.0600000    0.0600000   6.128906e-05  1.496315e-08
    278    281   2   0.50000     0.0600000    0.0600000   6.128906e-05  1.496315e-08
    279    258   2   0.50000     0.0600000   -0.0600000   2.494471e-04  1.671101e-07
    279    280   2   0.50000     0.0600000    0.0600000   6.128906e-05  1.496315e-08
    279    281   2   0.50000     0.0600000    0.0600000   6.128906e-05  1.496315e-08
    263    284   2   0.50000     0.1400000    0.2050000   1.015252e-03  1.866303e-06
    263    294   2   0.50000     0.1400000    0.0300000   2.494471e-04  1.671101e-07
    263    295   2   0.50000     0.1400000    0.0300000   2.494471e-04  1.671101e-07
    282    285   2   0.50000    -0.4000000   -0.6830000   9.562422e-04  7.083138e-07
    282    286   2   0.50000    -0.4000000   -0.0600000   8.411158e-04  8.795366e-07
    282    296   2   0.50000    -0.4000000    0.0600000   2.066619e-04  7.875431e-08
    294    285   2   0.50000     0.0300000   -0.6830000   2.835898e-04  1.345781e-07
    294    286   2   0.50000     0.0300000   -0.0600000   2.494471e-04  1.671101e-07
    294    296   2   0.50000     0.0300000    0.0600000   6.128906e-05  1.496315e-08
    295    285   2   0.50000     0.0300000   -0.6830000   2.835898e-04  1.345781e-07
    295    286   2   0.50000     0.0300000   -0.0600000   2.494471e-04  1.671101e-07
    295    296   2   0.50000     0.0300000    0.0600000   6.128906e-05  1.496315e-08
    283    297   2   0.50000     0.1400000    0.4180000   1.995577e-06  1.069504e-11
    286    297   2   0.50000    -0.0600000    0.4180000   1.995577e-06  1.069504e-11
    296    297   2   0.50000     0.0600000    0.4180000   4.903125e-07  9.576416e-13
    283    287   2   0.50000     0.1400000   -0.1200000   1.015252e-03  1.866303e-06
    283    293   2   0.50000     0.1400000   -0.1200000   1.015252e-03  1.866303e-06
    283    298   2   0.50000     0.1400000    0.0600000   2.494471e-04  1.671101e-07
    285    287   2   0.50000    -0.6830000   -0.1200000   1.154213e-03  1.502983e-06
    285    293   2   0.50000    -0.6830000   -0.1200000   1.154213e-03  1.502983e-06
    285    298   2   0.50000    -0.6830000    0.0600000   2.835898e-04  1.345781e-07
    296    287   2   0.50000     0.0600000   -0.1200000   2.494471e-04  1.671101e-07
    296    293   2   0.50000     0.0600000   -0.1200000   2.494471e-04  1.671101e-07
    296    298   2   0.50000     0.0600000    0.0600000   6.128906e-05  1.496315e-08
    284    288   2   0.50000     0.2050000    0.2050000   1.015252e-03  1.866303e-06
    284    299   2   0.50000     0.2050000    0.0600000   2.494471e-04  1.671101e-07
    284    300   2   0.50000     0.2050000    0.0600000   2.494471e-04  1.671101e-07
    293    288   2   0.50000    -0.1200000    0.2050000   1.015252e-03  1.866303e-06
    293    299   2   0.50000    -0.1200000    0.0600000   2.494471e-04  1.671101e-07
    293    300   2   0.50000    -0.1200000    0.0600000   2.494471e-04  1.671101e-07
    298    288   2   0.50000     0.0600000    0.2050000   2.494471e-04  1.671101e-07
    298    299   2   0.50000     0.0600000    0.0600000   6.128906e-05  1.496315e-08
    298    300   2   0.50000     0.0600000    0.0600000   6.128906e-05  1.496315e-08
    284    292   2   0.50000     0.2050000   -0.1200000   1.015252e-03  1.866303e-06
    284    308   2   0.50000     0.2050000    0.0600000   2.494471e-04  1.671101e-07
    284    309   2   0.50000     0.2050000    0.0600000   2.494471e-04  1.671101e-07
    287    292   2   0.50000    -0.1200000   -0.1200000   1.015252e-03  1.866303e-06
    287    308   2   0.50000    -0.1200000    0.0600000   2.494471e-04  1.671101e-07
    287    309   2   0.50000    -0.1200000    0.0600000   2.494471e-04  1.671101e-07
    298    292   2   0.50000     0.0600000   -0.1200000   2.494471e-04  1.671101e-07
    298    308   2   0.50000     0.0600000    0.0600000   6.128906e-05  1.496315e-08
    298    309   2   0.50000     0.0600000    0.0600000   6.128906e-05  1.496315e-08
    286    289   2   0.50000    -0.0600000   -0.6830000   1.154213e-03  1.502983e-06
    286    290   2   0.50000    -0.0600000   -0.0600000   1.015252e-03  1.866303e-06
    286    301   2   0.50000    -0.0600000    0.0600000   2.494471e-04  1.671101e-07
    299    289   2   0.50000     0.0600000   -0.6830000   2.835898e-04  1.345781e-07
    299    290   2   0.50000     0.0600000   -0.0600000   2.494471e-04  1.671101e-07
    299    301   2   0.50000     0.0600000    0.0600000   6.128906e-05  1.496315e-08
    300    289   2   0.50000     0.0600000   -0.6830000   2.835898e-04  1.345781e-07
    300    290   2   0.50000     0.0600000   -0.0600000   2.494471e-04  1.671101e-07
    300    301   2   0.50000     0.0600000    0.0600000   6.128906e-05  1.496315e-08
    287    302   2   0.50000    -0.1200000    0.4180000   1.995577e-06  1.069504e-11
    290    302   2   0.50000    -0.0600000    0.4180000   1.995577e-06  1.069504e-11
    301    302   2   0.50000     0.0600000    0.4180000   4.903125e-07  9.576416e-13
    287    291   2   0.50000    -0.1200000    0.1400000   1.015252e-03  1.866303e-06
    287    303   2   0.50000    -0.1200000    0.0600000   2.494471e-04  1.671101e-07
    289    291   2   0.50000    -0.6830000    0.1400000   1.154213e-03  1.502983e-06
    289    292   2   0.50000    -0.6830000   -0.1200000   1.154213e-03  1.502983e-06
    289    303   2   0.50000    -0.6830000    0.0600000   2.835898e-04  1.345781e-07
    301    291   2   0.50000     0.0600000    0.1400000   2.494471e-04  1.671101e-07
    301    292   2   0.50000     0.0600000   -0.1200000   2.494471e-04  1.671101e-07
    301    303   2   0.50000     0.0600000    0.0600000   6.128906e-05  1.496315e-08
    288    304   2   0.50000     0.2050000    0.0300000   2.494471e-04  1.671101e-07
    288    305   2   0.50000     0.2050000    0.0300000   2.494471e-04  1.671101e-07
    288    310   2   0.50000     0.2050000   -0.4000000   8.411158e-04  8.795366e-07
    292    304   2   0.50000    -0.1200000    0.0300000   2.494471e-04  1.671101e-07
    292    305   2   0.50000    -0.1200000    0.0300000   2.494471e-04  1.671101e-07
    292    310   2   0.50000    -0.1200000   -0.4000000   8.411158e-04  8.795366e-07
    303    304   2   0.50000     0.0600000    0.0300000   6.128906e-05  1.496315e-08
    303    305   2   0.50000     0.0600000    0.0300000   6.128906e-05  1.496315e-08
    303    310   2   0.50000     0.0600000   -0.4000000   2.066619e-04  7.875431e-08
    288    306   2   0.50000     0.2050000    0.0600000   2.494471e-04  1.671101e-07
    288    307   2   0.50000     0.2050000    0.0600000   2.494471e-04  1.671101e-07
    291    293   2   0.50000     0.1400000   -0.1200000   1.015252e-03  1.866303e-06
    291    306   2   0.50000     0.1400000    0.0600000   2.494471e-04  1.671101e-07
    291    307   2   0.50000     0.1400000    0.0600000   2.494471e-04  1.671101e-07
    303    293   2   0.50000     0.0600000   -0.1200000   2.494471e-04  1.671101e-07
    303    306   2   0.50000     0.0600000    0.0600000   6.128906e-05  1.496315e-08
    303    307   2   0.50000     0.0600000    0.0600000   6.128906e-05  1.496315e-08
    290    311   2   0.50000    -0.0600000    0.1400000   1.015252e-03  1.866303e-06
    304    311   2   0.50000     0.0300000    0.1400000   2.494471e-04  1.671101e-07
    305    311   2   0.50000     0.0300000    0.1400000   2.494471e-04  1.671101e-07
    290    308   2   0.50000    -0.0600000    0.0600000   2.494471e-04  1.671101e-07
    290    309   2   0.50000    -0.0600000    0.0600000   2.494471e-04  1.671101e-07
    306    286   2   0.50000     0.0600000   -0.0600000   2.494471e-04  1.671101e-07
    306    308   2   0.50000     0.0600000    0.0600000   6.128906e-05  1.496315e-08
    306    309   2   0.50000     0.0600000    0.0600000   6.128906e-05  1.496315e-08
    307    286   2   0.50000     0.0600000   -0.0600000   2.494471e-04  1.671101e-07
    307    308   2   0.50000     0.0600000    0.0600000   6.128906e-05  1.496315e-08
    307    309   2   0.50000     0.0600000    0.0600000   6.128906e-05  1.496315e-08
    291    312   2   0.50000     0.1400000    0.2050000   1.015252e-03  1.866303e-06
    291    322   2   0.50000     0.1400000    0.0300000   2.494471e-04  1.671101e-07
    291    323   2   0.50000     0.1400000    0.0300000   2.494471e-04  1.671101e-07
    310    313   2   0.50000    -0.4000000   -0.6830000   9.562422e-04  7.083138e-07
    310    314   2   0.50000    -0.4000000   -0.0600000   8.411158e-04  8.795366e-07
    310    324   2   0.50000    -0.4000000    0.0600000   2.066619e-04  7.875431e-08
    322    313   2   0.50000     0.0300000   -0.6830000   2.835898e-04  1.345781e-07
    322    314   2   0.50000     0.0300000   -0.0600000   2.494471e-04  1.671101e-07
    322    324   2   0.50000     0.0300000    0.0600000   6.128906e-05  1.496315e-08
    323    313   2   0.50000     0.0300000   -0.6830000   2.835898e-04  1.345781e-07
    323    314   2   0.50000     0.0300000   -0.0600000   2.494471e-04  1.671101e-07
    323    324   2   0.50000     0.0300000    0.0600000   6.128906e-05  1.496315e-08
    311    325   2   0.50000     0.1400000    0.4180000   1.995577e-06  1.069504e-11
    314    325   2   0.50000    -0.0600000    0.4180000   1.995577e-06  1.069504e-11
    324    325   2   0.50000     0.0600000    0.4180000   4.903125e-07  9.576416e-13
    311    315   2   0.50000     0.1400000   -0.1200000   1.015252e-03  1.866303e-06
    311    321   2   0.50000     0.1400000   -0.1200000   1.015252e-03  1.866303e-06
    311    326   2   0.50000     0.1400000    0.0600000   2.494471e-04  1.671101e-07
    313    315   2   0.50000    -0.6830000   -0.1200000   1.154213e-03  1.502983e-06
    313    321   2   0.50000    -0.6830000   -0.1200000   1.154213e-03  1.502983e-06
    313    326   2   0.50000    -0.6830000    0.0600000   2.835898e-04  1.345781e-07
    324    315   2   0.50000     0.0600000   -0.1200000   2.494471e-04  1.671101e-07
    324    321   2   0.50000     0.0600000   -0.1200000   2.494471e-04  1.671101e-07
    324    326   2   0.50000     0.0600000    0.0600000   6.128906e-05  1.496315e-08
    312    316   2   0.50000     0.2050000    0.2050000   1.015252e-03  1.866303e-06
    312    327   2   0.50000     0.2050000    0.0600000   2.494471e-04  1.671101e-07
    312    328   2   0.50000     0.2050000    0.0600000   2.494471e-04  1.671101e-07
    321    316   2   0.50000    -0.1200000    0.2050000   1.015252e-03  1.866303e-06
    321    327   2   0.50000    -0.1200000    0.0600000   2.494471e-04  1.671101e-07
    321    328   2   0.50000    -0.1200000    0.0600000   2.494471e-04  1.671101e-07
    326    316   2   0.50000     0.0600000    0.2050000   2.494471e-04  1.671101e-07
    326    327   2   0.50000     0.0600000    0.0600000   6.128906e-05  1.496315e-08
    326    328   2   0.50000     0.0600000    0.0600000   6.128906e-05  1.496315e-08
    312    320   2   0.50000     0.2050000   -0.1200000   1.015252e-03  1.866303e-06
    312    336   2   0.50000     0.2050000    0.0600000   2.494471e-04  1.671101e-07
    312    337   2   0.50000     0.2050000    0.0600000   2.494471e-04  1.671101e-07
    315    320   2   0.50000    -0.1200000   -0.1200000   1.015252e-03  1.866303e-06
    315    336   2   0.50000    -0.1200000    0.0600000   2.494471e-04  1.671101e-07
    315    337   2   0.50000    -0.1200000    0.0600000   2.494471e-04  1.671101e-07
    326    320   2   0.50000     0.0600000   -0.1200000   2.494471e-04  1.671101e-07
    326    336   2   0.50000     0.0600000    0.0600000   6.128906e-05  1.496315e-08
    326    337   2   0.50000     0.0600000    0.0600000   6.128906e-05  1.496315e-08
    314    317   2   0.50000    -0.0600000   -0.6830000   1.154213e-03  1.502983e-06
    314    318   2   0.50000    -0.0600000   -0.0600000   1.015252e-03  1.866303e-06
    314    329   2   0.50000    -0.0600000    0.0600000   2.494471e-04  1.671101e-07
    327    317   2   0.50000     0.0600000   -0.6830000   2.835898e-04  1.345781e-07
    327    318   2   0.50000     0.0600000   -0.0600000   2.494471e-04  1.671101e-07
    327    329   2   0.50000     0.0600000    0.0600000   6.128906e-05  1.496315e-08
    328    317   2   0.50000     0.0600000   -0.6830000   2.835898e-04  1.345781e-07
    328    318   2   0.50000     0.0600000   -0.0600000   2.494471e-04  1.671101e-07
    328    329   2   0.50000     0.0600000    0.0600000   6.128906e-05  1.496315e-08
    315    330   2   0.50000    -0.1200000    0.4180000   1.995577e-06  1.069504e-11
    318    330   2   0.50000    -0.0600000    0.4180000   1.995577e-06  1.069504e-11
    329    330   2   0.50000     0.0600000    0.4180000   4.903125e-07  9.576416e-13
    315    319   2   0.50000    -0.1200000    0.1400000   1.015252e-03  1.866303e-06
    315    331   2   0.50000    -0.1200000    0.0600000   2.494471e-04  1.671101e-07
    317    319   2   0.50000    -0.6830000    0.1400000   1.154213e-03  1.502983e-06
    317    320   2   0.50000    -0.6830000   -0.1200000   1.154213e-03  1.502983e-06
    317    331   2   0.50000    -0.6830000    0.0600000   2.835898e-04  1.345781e-07
    329    319   2   0.50000     0.0600000    0.1400000   2.494471e-04  1.671101e-07
    329    320   2   0.50000     0.0600000   -0.1200000   2.494471e-04  1.671101e-07
    329    331   2   0.50000     0.0600000    0.0600000   6.128906e-05  1.496315e-08
    316    332   2   0.50000     0.2050000    0.0300000   2.494471e-04  1.671101e-07
    316    333   2   0.50000     0.2050000    0.0300000   2.494471e-04  1.671101e-07
    316    338   2   0.50000     0.2050000   -0.4000000   8.411158e-04  8.795366e-07
    320    332   2   0.50000    -0.1200000    0.0300000   2.494471e-04  1.671101e-07
    320    333   2   0.50000    -0.1200000    0.0300000   2.494471e-04  1.671101e-07
    320    338   2   0.50000    -0.1200000   -0.4000000   8.411158e-04  8.795366e-07
    331    332   2   0.50000     0.0600000    0.0300000   6.128906e-05  1.496315e-08
    331    333   2   0.50000     0.0600000    0.0300000   6.128906e-05  1.496315e-08
    331    338   2   0.50000     0.0600000   -0.4000000   2.066619e-04  7.875431e-08
    316    334   2   0.50000     0.2050000    0.0600000   2.494471e-04  1.671101e-07
    316    335   2   0.50000     0.2050000    0.0600000   2.494471e-04  1.671101e-07
    319    321   2   0.50000     0.1400000   -0.1200000   1.015252e-03  1.866303e-06
    319    334   2   0.50000     0.1400000    0.0600000   2.494471e-04  1.671101e-07
    319    335   2   0.50000     0.1400000    0.0600000   2.494471e-04  1.671101e-07
    331    321   2   0.50000     0.0600000   -0.1200000   2.494471e-04  1.671101e-07
    331    334   2   0.50000     0.0600000    0.0600000   6.128906e-05  1.496315e-08
    331    335   2   0.50000     0.0600000    0.0600000   6.128906e-05  1.496315e-08
    318    339   2   0.50000    -0.0600000    0.1400000   1.015252e-03  1.866303e-06
    332    339   2   0.50000     0.0300000    0.1400000   2.494471e-04  1.671101e-07
    333    339   2   0.50000     0.0300000    0.1400000   2.494471e-04  1.671101e-07
    318    336   2   0.50000    -0.0600000    0.0600000   2.494471e-04  1.671101e-07
    318    337   2   0.50000    -0.0600000    0.0600000   2.494471e-04  1.671101e-07
    334    314   2   0.50000     0.0600000   -0.0600000   2.494471e-04  1.671101e-07
    334    336   2   0.50000     0.0600000    0.0600000   6.128906e-05  1.496315e-08
    334    337   2   0.50000     0.0600000    0.0600000   6.128906e-05  1.496315e-08
    335    314   2   0.50000     0.0600000   -0.0600000   2.494471e-04  1.671101e-07
    335    336   2   0.50000     0.0600000    0.0600000   6.128906e-05  1.496315e-08
    335    337   2   0.50000     0.0600000    0.0600000   6.128906e-05  1.496315e-08
    319    340   2   0.50000     0.1400000    0.2050000   1.015252e-03  1.866303e-06
    319    350   2   0.50000     0.1400000    0.0300000   2.494471e-04  1.671101e-07
    319    351   2   0.50000     0.1400000    0.0300000   2.494471e-04  1.671101e-07
    338    341   2   0.50000    -0.4000000   -0.6830000   9.562422e-04  7.083138e-07
    338    342   2   0.50000    -0.4000000   -0.0600000   8.411158e-04  8.795366e-07
    338    352   2   0.50000    -0.4000000    0.0600000   2.066619e-04  7.875431e-08
    350    341   2   0.50000     0.0300000   -0.6830000   2.835898e-04  1.345781e-07
    350    342   2   0.50000     0.0300000   -0.0600000   2.494471e-04  1.671101e-07
    350    352   2   0.50000     0.0300000    0.0600000   6.128906e-05  1.496315e-08
    351    341   2   0.50000     0.0300000   -0.6830000   2.835898e-04  1.345781e-07
    351    342   2   0.50000     0.0300000   -0.0600000   2.494471e-04  1.671101e-07
    351    352   2   0.50000     0.0300000    0.0600000   6.128906e-05  1.496315e-08
    339    353   2   0.50000     0.1400000    0.4180000   1.995577e-06  1.069504e-11
    342    353   2   0.50000    -0.0600000    0.4180000   1.995577e-06  1.069504e-11
    352    353   2   0.50000     0.0600000    0.4180000   4.903125e-07  9.576416e-13
    339    343   2   0.50000     0.1400000   -0.1200000   1.015252e-03  1.866303e-06
    339    349   2   0.50000     0.1400000   -0.1200000   1.015252e-03  1.866303e-06
    339    354   2   0.50000     0.1400000    0.0600000   2.494471e-04  1.671101e-07
    341    343   2   0.50000    -0.6830000   -0.1200000   1.154213e-03  1.502983e-06
    341    349   2   0.50000    -0.6830000   -0.1200000   1.154213e-03  1.502983e-06
    341    354   2   0.50000    -0.6830000    0.0600000   2.835898e-04  1.345781e-07
    352    343   2   0.50000     0.0600000   -0.1200000   2.494471e-04  1.671101e-07
    352    349   2   0.50000     0.0600000   -0.1200000   2.494471e-04  1.671101e-07
    352    354   2   0.50000     0.0600000    0.0600000   6.128906e-05  1.496315e-08
    340    344   2   0.50000     0.2050000    0.2050000   1.015252e-03  1.866303e-06
    340    355   2   0.50000     0.2050000    0.0600000   2.494471e-04  1.671101e-07
    340    356   2   0.50000     0.2050000    0.0600000   2.494471e-04  1.671101e-07
    349    344   2   0.50000    -0.1200000    0.2050000   1.015252e-03  1.866303e-06
    349    355   2   0.50000    -0.1200000    0.0600000   2.494471e-04  1.671101e-07
    349    356   2   0.50000    -0.1200000    0.0600000   2.494471e-04  1.671101e-07
    354    344   2   0.50000     0.0600000    0.2050000   2.494471e-04  1.671101e-07
    354    355   2   0.50000     0.0600000    0.0600000   6.128906e-05  1.496315e-08
    354    356   2   0.50000     0.0600000    0.0600000   6.128906e-05  1.496315e-08
    340    348   2   0.50000     0.2050000   -0.1200000   1.015252e-03  1.866303e-06
    340    364   2   0.50000     0.2050000    0.0600000   2.494471e-04  1.671101e-07
    340    365   2   0.50000     0.2050000    0.0600000   2.494471e-04  1.671101e-07
    343    348   2   0.50000    -0.1200000   -0.1200000   1.015252e-03  1.866303e-06
    343    364   2   0.50000    -0.1200000    0.0600000   2.494471e-04  1.671101e-07
    343    365   2   0.50000    -0.1200000    0.0600000   2.494471e-04  1.671101e-07
    354    348   2   0.50000     0.0600000   -0.1200000   2.494471e-04  1.671101e-07
    354    364   2   0.50000     0.0600000    0.0600000   6.128906e-05  1.496315e-08
    354    365   2   0.50000     0.0600000    0.0600000   6.128906e-05  1.496315e-08
    342    345   2   0.50000    -0.0600000   -0.6830000   1.154213e-03  1.502983e-06
    342    346   2   0.50000    -0.0600000   -0.0600000   1.015252e-03  1.866303e-06
    342    357   2   0.50000    -0.0600000    0.0600000   2.494471e-04  1.671101e-07
    355    345   2   0.50000     0.0600000   -0.6830000   2.835898e-04  1.345781e-07
    355    346   2   0.50000     0.0600000   -0.0600000   2.494471e-04  1.671101e-07
    355    357   2   0.50000     0.0600000    0.0600000   6.128906e-05  1.496315e-08
    356    345   2   0.50000     0.0600000   -0.6830000   2.835898e-04  1.345781e-07
    356    346   2   0.50000     0.0600000   -0.0600000   2.494471e-04  1.671101e-07
    356    357   2   0.50000     0.0600000    0.0600000   6.128906e-05  1.496315e-08
    343    358   2   0.50000    -0.1200000    0.4180000   1.995577e-06  1.069504e-11
    346    358   2   0.50000    -0.0600000    0.4180000   1.995577e-06  1.069504e-11
    357    358   2   0.50000     0.0600000    0.4180000   4.903125e-07  9.576416e-13
    343    347   2   0.50000    -0.1200000    0.1400000   1.015252e-03  1.866303e-06
    343    359   2   0.50000    -0.1200000    0.0600000   2.494471e-04  1.671101e-07
    345    347   2   0.50000    -0.6830000    0.1400000   1.154213e-03  1.502983e-06
    345    348   2   0.50000    -0.6830000   -0.1200000   1.154213e-03  1.502983e-06
    345    359   2   0.50000    -0.6830000    0.0600000   2.835898e-04  1.345781e-07
    357    347   2   0.50000     0.0600000    0.1400000   2.494471e-04  1.671101e-07
    357    348   2   0.50000     0.0600000   -0.1200000   2.494471e-04  1.671101e-07
    357    359   2   0.50000     0.0600000    0.0600000   6.128906e-05  1.496315e-08
    344    360   2   0.50000     0.2050000    0.0300000   2.494471e-04  1.671101e-07
    344    361   2   0.50000     0.2050000    0.0300000   2.494471e-04  1.671101e-07
    344    366   2   0.50000     0.2050000   -0.4000000   8.411158e-04  8.795366e-07
    348    360   2   0.50000    -0.1200000    0.0300000   2.494471e-04  1.671101e-07
    348    361   2   0.50000    -0.1200000    0.0300000   2.494471e-04  1.671101e-07
    348    366   2   0.50000    -0.1200000   -0.4000000   8.411158e-04  8.795366e-07
    359    360   2   0.50000     0.0600000    0.0300000   6.128906e-05  1.496315e-08
    359    361   2   0.50000     0.0600000    0.0300000   6.128906e-05  1.496315e-08
    359    366   2   0.50000     0.0600000   -0.4000000   2.066619e-04  7.875431e-08
    344    362   2   0.50000     0.2050000    0.0600000   2.494471e-04  1.671101e-07
    344    363   2   0.50000     0.2050000    0.0600000   2.494471e-04  1.671101e-07
    347    349   2   0.50000     0.1400000   -0.1200000   1.015252e-03  1.866303e-06
    347    362   2   0.50000     0.1400000    0.0600000   2.494471e-04  1.671101e-07
    347    363   2   0.50000     0.1400000    0.0600000   2.494471e-04  1.671101e-07
    359    349   2   0.50000     0.0600000   -0.1200000   2.494471e-04  1.671101e-07
    359    362   2   0.50000     0.0600000    0.0600000   6.128906e-05  1.496315e-08
    359    363   2   0.50000     0.0600000    0.0600000   6.128906e-05  1.496315e-08
    346    367   2   0.50000    -0.0600000    0.1400000   1.015252e-03  1.866303e-06
    360    367   2   0.50000     0.0300000    0.1400000   2.494471e-04  1.671101e-07
    361    367   2   0.50000     0.0300000    0.1400000   2.494471e-04  1.671101e-07
    346    364   2   0.50000    -0.0600000    0.0600000   2.494471e-04  1.671101e-07
    346    365   2   0.50000    -0.0600000    0.0600000   2.494471e-04  1.671101e-07
    362    342   2   0.50000     0.0600000   -0.0600000   2.494471e-04  1.671101e-07
    362    364   2   0.50000     0.0600000    0.0600000   6.128906e-05  1.496315e-08
    362    365   2   0.50000     0.0600000    0.0600000   6.128906e-05  1.496315e-08
    363    342   2   0.50000     0.0600000   -0.0600000   2.494471e-04  1.671101e-07
    363    364   2   0.50000     0.0600000    0.0600000   6.128906e-05  1.496315e-08
    363    365   2   0.50000     0.0600000    0.0600000   6.128906e-05  1.496315e-08
    347    368   2   0.50000     0.1400000    0.2050000   1.015252e-03  1.866303e-06
    347    378   2   0.50000     0.1400000    0.0300000   2.494471e-04  1.671101e-07
    347    379   2   0.50000     0.1400000    0.0300000   2.494471e-04  1.671101e-07
    366    369   2   0.50000    -0.4000000   -0.6830000   9.562422e-04  7.083138e-07
    366    370   2   0.50000    -0.4000000   -0.0600000   8.411158e-04  8.795366e-07
    366    380   2   0.50000    -0.4000000    0.0600000   2.066619e-04  7.875431e-08
    378    369   2   0.50000     0.0300000   -0.6830000   2.835898e-04  1.345781e-07
    378    370   2   0.50000     0.0300000   -0.0600000   2.494471e-04  1.671101e-07
    378    380   2   0.50000     0.0300000    0.0600000   6.128906e-05  1.496315e-08
    379    369   2   0.50000     0.0300000   -0.6830000   2.835898e-04  1.345781e-07
    379    370   2   0.50000     0.0300000   -0.0600000   2.494471e-04  1.671101e-07
    379    380   2   0.50000     0.0300000    0.0600000   6.128906e-05  1.496315e-08
    367    381   2   0.50000     0.1400000    0.4180000   1.995577e-06  1.069504e-11
    370    381   2   0.50000    -0.0600000    0.4180000   1.995577e-06  1.069504e-11
    380    381   2   0.50000     0.0600000    0.4180000   4.903125e-07  9.576416e-13
    367    371   2   0.50000     0.1400000   -0.1200000   1.015252e-03  1.866303e-06
    367    377   2   0.50000     0.1400000   -0.1200000   1.015252e-03  1.866303e-06
    367    382   2   0.50000     0.1400000    0.0600000   2.494471e-04  1.671101e-07
    369    371   2   0.50000    -0.6830000   -0.1200000   1.154213e-03  1.502983e-06
    369    377   2   0.50000    -0.6830000   -0.1200000   1.154213e-03  1.502983e-06
    369    382   2   0.50000    -0.6830000    0.0600000   2.835898e-04  1.345781e-07
    380    371   2   0.50000     0.0600000   -0.1200000   2.494471e-04  1.671101e-07
    380    377   2   0.50000     0.0600000   -0.1200000   2.494471e-04  1.671101e-07
    380    382   2   0.50000     0.0600000    0.0600000   6.128906e-05  1.496315e-08
    368    372   2   0.50000     0.2050000    0.2050000   1.015252e-03  1.866303e-06
    368    383   2   0.50000     0.2050000    0.0600000   2.494471e-04  1.671101e-07
    368    384   2   0.50000     0.2050000    0.0600000   2.494471e-04  1.671101e-07
    377    372   2   0.50000    -0.1200000    0.2050000   1.015252e-03  1.866303e-06
    377    383   2   0.50000    -0.1200000    0.0600000   2.494471e-04  1.671101e-07
    377    384   2   0.50000    -0.1200000    0.0600000   2.494471e-04  1.671101e-07
    382    372   2   0.50000     0.0600000    0.2050000   2.494471e-04  1.671101e-07
    382    383   2   0.50000     0.0600000    0.0600000   6.128906e-05  1.496315e-08
    382    384   2   0.50000     0.0600000    0.0600000   6.128906e-05  1.496315e-08
    368    376   2   0.50000     0.2050000   -0.1200000   1.015252e-03  1.866303e-06
    368    392   2   0.50000     0.2050000    0.0600000   2.494471e-04  1.671101e-07
    368    393   2   0.50000     0.2050000    0.0600000   2.494471e-04  1.671101e-07
    371    376   2   0.50000    -0.1200000   -0.1200000   1.015252e-03  1.866303e-06
    371    392   2   0.50000    -0.1200000    0.0600000   2.494471e-04  1.671101e-07
    371    393   2   0.50000    -0.1200000    0.0600000   2.494471e-04  1.671101e-07
    382    376   2   0.50000     0.0600000   -0.1200000   2.494471e-04  1.671101e-07
    382    392   2   0.50000     0.0600000    0.0600000   6.128906e-05  1.496315e-08
    382    393   2   0.50000     0.0600000    0.0600000   6.128906e-05  1.496315e-08
    370    373   2   0.50000    -0.0600000   -0.6830000   1.154213e-03  1.502983e-06
    370    374   2   0.50000    -0.0600000   -0.0600000   1.015252e-03  1.866303e-06
    370    385   2   0.50000    -0.0600000    0.0600000   2.494471e-04  1.671101e-07
    383    373   2   0.50000     0.0600000   -0.6830000   2.835898e-04  1.345781e-07
    383    374   2   0.50000     0.0600000   -0.0600000   2.494471e-04  1.671101e-07
    383    385   2   0.50000     0.0600000    0.0600000   6.128906e-05  1.496315e-08
    384    373   2   0.50000     0.0600000   -0.6830000   2.835898e-04  1.345781e-07
    384    374   2   0.50000     0.0600000   -0.0600000   2.494471e-04  1.671101e-07
    384    385   2   0.50000     0.0600000    0.0600000   6.128906e-05  1.496315e-08
    371    386   2   0.50000    -0.1200000    0.4180000   1.995577e-06  1.069504e-11
    374    386   2   0.50000    -0.0600000    0.4180000   1.995577e-06  1.069504e-11
    385    386   2   0.50000     0.0600000    0.4180000   4.903125e-07  9.576416e-13
    371    375   2   0.50000    -0.1200000    0.1400000   1.015252e-03  1.866303e-06
    371    387   2   0.50000    -0.1200000    0.0600000   2.494471e-04  1.671101e-07
    373    375   2   0.50000    -0.6830000    0.1400000   1.154213e-03  1.502983e-06
    373    376   2   0.50000    -0.6830000   -0.1200000   1.154213e-03  1.502983e-06
    373    387   2   0.50000    -0.6830000    0.0600000   2.835898e-04  1.345781e-07
    385    375   2   0.50000     0.0600000    0.1400000   2.494471e-04  1.671101e-07
    385    376   2   0.50000     0.0600000   -0.1200000   2.494471e-04  1.671101e-07
    385    387   2   0.50000     0.0600000    0.0600000   6.128906e-05  1.496315e-08
    372    388   2   0.50000     0.2050000    0.0300000   2.494471e-04  1.671101e-07
    372    389   2   0.50000     0.2050000    0.0300000   2.494471e-04  1.671101e-07
    372    394   2   0.50000     0.2050000   -0.4000000   8.411158e-04  8.795366e-07
    376    388   2   0.50000    -0.1200000    0.0300000   2.494471e-04  1.671101e-07
    376    389   2   0.50000    -0.1200000    0.0300000   2.494471e-04  1.671101e-07
    376    394   2   0.50000    -0.1200000   -0.4000000   8.411158e-04  8.795366e-07
    387    388   2   0.50000     0.0600000    0.0300000   6.128906e-05  1.496315e-08
    387    389   2   0.50000     0.0600000    0.0300000   6.128906e-05  1.496315e-08
    387    394   2   0.50000     0.0600000   -0.4000000   2.066619e-04  7.875431e-08
    372    390   2   0.50000     0.2050000    0.0600000   2.494471e-04  1.671101e-07
    372    391   2   0.50000     0.2050000    0.0600000   2.494471e-04  1.671101e-07
    375    377   2   0.50000     0.1400000   -0.1200000   1.015252e-03  1.866303e-06
    375    390   2   0.50000     0.1400000    0.0600000   2.494471e-04  1.671101e-07
    375    391   2   0.50000     0.1400000    0.0600000   2.494471e-04  1.671101e-07
    387    377   2   0.50000     0.0600000   -0.1200000   2.494471e-04  1.671101e-07
    387    390   2   0.50000     0.0600000    0.0600000   6.128906e-05  1.496315e-08
    387    391   2   0.50000     0.0600000    0.0600000   6.128906e-05  1.496315e-08
    374    395   2   0.50000    -0.0600000    0.1400000   1.015252e-03  1.866303e-06
    388    395   2   0.50000     0.0300000    0.1400000   2.494471e-04  1.671101e-07
    389    395   2   0.50000     0.0300000    0.1400000   2.494471e-04  1.671101e-07
    374    392   2   0.50000    -0.0600000    0.0600000   2.494471e-04  1.671101e-07
    374    393   2   0.50000    -0.0600000    0.0600000   2.494471e-04  1.671101e-07
    390    370   2   0.50000     0.0600000   -0.0600000   2.494471e-04  1.671101e-07
    390    392   2   0.50000     0.0600000    0.0600000   6.128906e-05  1.496315e-08
    390    393   2   0.50000     0.0600000    0.0600000   6.128906e-05  1.496315e-08
    391    370   2   0.50000     0.0600000   -0.0600000   2.494471e-04  1.671101e-07
    391    392   2   0.50000     0.0600000    0.0600000   6.128906e-05  1.496315e-08
    391    393   2   0.50000     0.0600000    0.0600000   6.128906e-05  1.496315e-08
    375    396   2   0.50000     0.1400000    0.2050000   1.015252e-03  1.866303e-06
    375    406   2   0.50000     0.1400000    0.0300000   2.494471e-04  1.671101e-07
    375    407   2   0.50000     0.1400000    0.0300000   2.494471e-04  1.671101e-07
    394    397   2   0.50000    -0.4000000   -0.6830000   9.562422e-04  7.083138e-07
    394    398   2   0.50000    -0.4000000   -0.0600000   8.411158e-04  8.795366e-07
    394    408   2   0.50000    -0.4000000    0.0600000   2.066619e-04  7.875431e-08
    406    397   2   0.50000     0.0300000   -0.6830000   2.835898e-04  1.345781e-07
    406    398   2   0.50000     0.0300000   -0.0600000   2.494471e-04  1.671101e-07
    406    408   2   0.50000     0.0300000    0.0600000   6.128906e-05  1.496315e-08
    407    397   2   0.50000     0.0300000   -0.6830000   2.835898e-04  1.345781e-07
    407    398   2   0.50000     0.0300000   -0.0600000   2.494471e-04  1.671101e-07
    407    408   2   0.50000     0.0300000    0.0600000   6.128906e-05  1.496315e-08
    395    409   2   0.50000     0.1400000    0.4180000   1.995577e-06  1.069504e-11
    398    409   2   0.50000    -0.0600000    0.4180000   1.995577e-06  1.069504e-11
    408    409   2   0.50000     0.0600000    0.4180000   4.903125e-07  9.576416e-13
    395    399   2   0.50000     0.1400000   -0.1200000   1.015252e-03  1.866303e-06
    395    405   2   0.50000     0.1400000   -0.1200000   1.015252e-03  1.866303e-06
    395    410   2   0.50000     0.1400000    0.0600000   2.494471e-04  1.671101e-07
    397    399   2   0.50000    -0.6830000   -0.1200000   1.154213e-03  1.502983e-06
    397    405   2   0.50000    -0.6830000   -0.1200000   1.154213e-03  1.502983e-06
    397    410   2   0.50000    -0.6830000    0.0600000   2.835898e-04  1.345781e-07
    408    399   2   0.50000     0.0600000   -0.1200000   2.494471e-04  1.671101e-07
    408    405   2   0.50000     0.0600000   -0.1200000   2.494471e-04  1.671101e-07
    408    410   2   0.50000     0.0600000    0.0600000   6.128906e-05  1.496315e-08
    396    400   2   0.50000     0.2050000    0.2050000   1.015252e-03  1.866303e-06
    396    411   2   0.50000     0.2050000    0.0600000   2.494471e-04  1.671101e-07
    396    412   2   0.50000     0.2050000    0.0600000   2.494471e-04  1.671101e-07
    405    400   2   0.50000    -0.1200000    0.2050000   1.015252e-03  1.866303e-06
    405    411   2   0.50000    -0.1200000    0.0600000   2.494471e-04  1.671101e-07
    405    412   2   0.50000    -0.1200000    0.0600000   2.494471e-04  1.671101e-07
    410    400   2   0.50000     0.0600000    0.2050000   2.494471e-04  1.671101e-07
    410    411   2   0.50000     0.0600000    0.0600000   6.128906e-05  1.496315e-08
    410    412   2   0.50000     0.0600000    0.0600000   6.128906e-05  1.496315e-08
    396    404   2   0.50000     0.2050000   -0.1200000   1.015252e-03  1.866303e-06
    396    420   2   0.50000     0.2050000    0.0600000   2.494471e-04  1.671101e-07
    396    421   2   0.50000     0.2050000    0.0600000   2.494471e-04  1.671101e-07
    399    404   2   0.50000    -0.1200000   -0.1200000   1.015252e-03  1.866303e-06
    399    420   2   0.50000    -0.1200000    0.0600000   2.494471e-04  1.671101e-07
    399    421   2   0.50000    -0.1200000    0.0600000   2.494471e-04  1.671101e-07
    410    404   2   0.50000     0.0600000   -0.1200000   2.494471e-04  1.671101e-07
    410    420   2   0.50000     0.0600000    0.0600000   6.128906e-05  1.496315e-08
    410    421   2   0.50000     0.0600000    0.0600000   6.128906e-05  1.496315e-08
    398    401   2   0.50000    -0.0600000   -0.6830000   1.154213e-03  1.502983e-06
    398    402   2   0.50000    -0.0600000   -0.0600000   1.015252e-03  1.866303e-06
    398    413   2   0.50000    -0.0600000    0.0600000   2.494471e-04  1.671101e-07
    411    401   2   0.50000     0.0600000   -0.6830000   2.835898e-04  1.345781e-07
    411    402   2   0.50000     0.0600000   -0.0600000   2.494471e-04  1.671101e-07
    411    413   2   0.50000     0.0600000    0.0600000   6.128906e-05  1.496315e-08
    412    401   2   0.50000     0.0600000   -0.6830000   2.835898e-04  1.345781e-07
    412    402   2   0.50000     0.0600000   -0.0600000   2.494471e-04  1.671101e-07
    412    413   2   0.50000     0.0600000    0.0600000   6.128906e-05  1.496315e-08
    399    414   2   0.50000    -0.1200000    0.4180000   1.995577e-06  1.069504e-11
    402    414   2   0.50000    -0.0600000    0.4180000   1.995577e-06  1.069504e-11
    413    414   2   0.50000     0.0600000    0.4180000   4.903125e-07  9.576416e-13
    399    403   2   0.50000    -0.1200000    0.1400000   1.015252e-03  1.866303e-06
    399    415   2   0.50000    -0.1200000    0.0600000   2.494471e-04  1.671101e-07
    401    403   2   0.50000    -0.6830000    0.1400000   1.154213e-03  1.502983e-06
    401    404   2   0.50000    -0.6830000   -0.1200000   1.154213e-03  1.502983e-06
    401    415   2   0.50000    -0.6830000    0.0600000   2.835898e-04  1.345781e-07
    413    403   2   0.50000     0.0600000    0.1400000   2.494471e-04  1.671101e-07
    413    404   2   0.50000     0.0600000   -0.1200000   2.494471e-04  1.671101e-07
    413    415   2   0.50000     0.0600000    0.0600000   6.128906e-05  1.496315e-08
    400    416   2   0.50000     0.2050000    0.0300000   2.494471e-04  1.671101e-07
    400    417   2   0.50000     0.2050000    0.0300000   2.494471e-04  1.671101e-07
    400    422   2   0.50000     0.2050000   -0.4000000   8.411158e-04  8.795366e-07
    404    416   2   0.50000    -0.1200000    0.0300000   2.494471e-04  1.671101e-07
    404    417   2   0.50000    -0.1200000    0.0300000   2.494471e-04  1.671101e-07
    404    422   2   0.50000    -0.1200000   -0.4000000   8.411158e-04  8.795366e-07
    415    416   2   0.50000     0.0600000    0.0300000   6.128906e-05  1.496315e-08
    415    417   2   0.50000     0.0600000    0.0300000   6.128906e-05  1.496315e-08
    415    422   2   0.50000     0.0600000   -0.4000000   2.066619e-04  7.875431e-08
    400    418   2   0.50000     0.2050000    0.0600000   2.494471e-04  1.671101e-07
    400    419   2   0.50000     0.2050000    0.0600000   2.494471e-04  1.671101e-07
    403    405   2   0.50000     0.1400000   -0.1200000   1.015252e-03  1.866303e-06
    403    418   2   0.50000     0.1400000    0.0600000   2.494471e-04  1.671101e-07
    403    419   2   0.50000     0.1400000    0.0600000   2.494471e-04  1.671101e-07
    415    405   2   0.50000     0.0600000   -0.1200000   2.494471e-04  1.671101e-07
    415    418   2   0.50000     0.0600000    0.0600000   6.128906e-05  1.496315e-08
    415    419   2   0.50000     0.0600000    0.0600000   6.128906e-05  1.496315e-08
    402    423   2   0.50000    -0.0600000    0.1400000   1.015252e-03  1.866303e-06
    416    423   2   0.50000     0.0300000    0.1400000   2.494471e-04  1.671101e-07
    417    423   2   0.50000     0.0300000    0.1400000   2.494471e-04  1.671101e-07
    402    420   2   0.50000    -0.0600000    0.0600000   2.494471e-04  1.671101e-07
    402    421   2   0.50000    -0.0600000    0.0600000   2.494471e-04  1.671101e-07
    418    398   2   0.50000     0.0600000   -0.0600000   2.494471e-04  1.671101e-07
    418    420   2   0.50000     0.0600000    0.0600000   6.128906e-05  1.496315e-08
    418    421   2   0.50000     0.0600000    0.0600000   6.128906e-05  1.496315e-08
    419    398   2   0.50000     0.0600000   -0.0600000   2.494471e-04  1.671101e-07
    419    420   2   0.50000     0.0600000    0.0600000   6.128906e-05  1.496315e-08
    419    421   2   0.50000     0.0600000    0.0600000   6.128906e-05  1.496315e-08
    403    424   2   0.50000     0.1400000    0.2050000   1.015252e-03  1.866303e-06
    403    434   2   0.50000     0.1400000    0.0300000   2.494471e-04  1.671101e-07
    403    435   2   0.50000     0.1400000    0.0300000   2.494471e-04  1.671101e-07
    422    425   2   0.50000    -0.4000000   -0.6830000   9.562422e-04  7.083138e-07
    422    426   2   0.50000    -0.4000000   -0.0600000   8.411158e-04  8.795366e-07
    422    436   2   0.50000    -0.4000000    0.0600000   2.066619e-04  7.875431e-08
    434    425   2   0.50000     0.0300000   -0.6830000   2.835898e-04  1.345781e-07
    434    426   2   0.50000     0.0300000   -0.0600000   2.494471e-04  1.671101e-07
    434    436   2   0.50000     0.0300000    0.0600000   6.128906e-05  1.496315e-08
    435    425   2   0.50000     0.0300000   -0.6830000   2.835898e-04  1.345781e-07
    435    426   2   0.50000     0.0300000   -0.0600000   2.494471e-04  1.671101e-07
    435    436   2   0.50000     0.0300000    0.0600000   6.128906e-05  1.496315e-08
    423    437   2   0.50000     0.1400000    0.4180000   1.995577e-06  1.069504e-11
    426    437   2   0.50000    -0.0600000    0.4180000   1.995577e-06  1.069504e-11
    436    437   2   0.50000     0.0600000    0.4180000   4.903125e-07  9.576416e-13
    423    427   2   0.50000     0.1400000   -0.1200000   1.015252e-03  1.866303e-06
    423    433   2   0.50000     0.1400000   -0.1200000   1.015252e-03  1.866303e-06
    423    438   2   0.50000     0.1400000    0.0600000   2.494471e-04  1.671101e-07
    425    427   2   0.50000    -0.6830000   -0.1200000   1.154213e-03  1.502983e-06
    425    433   2   0.50000    -0.6830000   -0.1200000   1.154213e-03  1.502983e-06
    425    438   2   0.50000    -0.6830000    0.0600000   2.835898e-04  1.345781e-07
    436    427   2   0.50000     0.0600000   -0.1200000   2.494471e-04  1.671101e-07
    436    433   2   0.50000     0.0600000   -0.1200000   2.494471e-04  1.671101e-07
    436    438   2   0.50000     0.0600000    0.0600000   6.128906e-05  1.496315e-08
    424    428   2   0.50000     0.2050000    0.2050000   1.015252e-03  1.866303e-06
    424    439   2   0.50000     0.2050000    0.0600000   2.494471e-04  1.671101e-07
    424    440   2   0.50000     0.2050000    0.0600000   2.494471e-04  1.671101e-07
    433    428   2   0.50000    -0.1200000    0.2050000   1.015252e-03  1.866303e-06
    433    439   2   0.50000    -0.1200000    0.0600000   2.494471e-04  1.671101e-07
    433    440   2   0.50000    -0.1200000    0.0600000   2.494471e-04  1.671101e-07
    438    428   2   0.50000     0.0600000    0.2050000   2.494471e-04  1.671101e-07
    438    439   2   0.50000     0.0600000    0.0600000   6.128906e-05  1.496315e-08
    438    440   2   0.50000     0.0600000    0.0600000   6.128906e-05  1.496315e-08
    424    432   2   0.50000     0.2050000   -0.1200000   1.015252e-03  1.866303e-06
    424    448   2   0.50000     0.2050000    0.0600000   2.494471e-04  1.671101e-07
    424    449   2   0.50000     0.2050000    0.0600000   2.494471e-04  1.671101e-07
    427    432   2   0.50000    -0.1200000   -0.1200000   1.015252e-03  1.866303e-06
    427    448   2   0.50000    -0.1200000    0.0600000   2.494471e-04  1.671101e-07
    427    449   2   0.50000    -0.1200000    0.0600000   2.494471e-04  1.671101e-07
    438    432   2   0.50000     0.0600000   -0.1200000   2.494471e-04  1.671101e-07
    438    448   2   0.50000     0.0600000    0.0600000   6.128906e-05  1.496315e-08
    438    449   2   0.50000     0.0600000    0.0600000   6.128906e-05  1.496315e-08
    426    429   2   0.50000    -0.0600000   -0.6830000   1.154213e-03  1.502983e-06
    426    430   2   0.50000    -0.0600000   -0.0600000   1.015252e-03  1.866303e-06
    426    441   2   0.50000    -0.0600000    0.0600000   2.494471e-04  1.671101e-07
    439    429   2   0.50000     0.0600000   -0.6830000   2.835898e-04  1.345781e-07
    439    430   2   0.50000     0.0600000   -0.0600000   2.494471e-04  1.671101e-07
    439    441   2   0.50000     0.0600000    0.0600000   6.128906e-05  1.496315e-08
    440    429   2   0.50000     0.0600000   -0.6830000   2.835898e-04  1.345781e-07
    440    430   2   0.50000     0.0600000   -0.0600000   2.494471e-04  1.671101e-07
    440    441   2   0.50000     0.0600000    0.0600000   6.128906e-05  1.496315e-08
    427    442   2   0.50000    -0.1200000    0.4180000   1.995577e-06  1.069504e-11
    430    442   2   0.50000    -0.0600000    0.4180000   1.995577e-06  1.069504e-11
    441    442   2   0.50000     0.0600000    0.4180000   4.903125e-07  9.576416e-13
    427    431   2   0.50000    -0.1200000    0.1400000   1.015252e-03  1.866303e-06
    427    443   2   0.50000    -0.1200000    0.0600000   2.494471e-04  1.671101e-07
    429    431   2   0.50000    -0.6830000    0.1400000   1.154213e-03  1.502983e-06
    429    432   2   0.50000    -0.6830000   -0.1200000   1.154213e-03  1.502983e-06
    429    443   2   0.50000    -0.6830000    0.0600000   2.835898e-04  1.345781e-07
    441    431   2   0.50000     0.0600000    0.1400000   2.494471e-04  1.671101e-07
    441    432   2   0.50000     0.0600000   -0.1200000   2.494471e-04  1.671101e-07
    441    443   2   0.50000     0.0600000    0.0600000   6.128906e-05  1.496315e-08
    428    444   2   0.50000     0.2050000    0.0300000   2.494471e-04  1.671101e-07
    428    445   2   0.50000     0.2050000    0.0300000   2.494471e-04  1.671101e-07
    428    450   2   0.50000     0.2050000   -0.4000000   8.411158e-04  8.795366e-07
    432    444   2   0.50000    -0.1200000    0.0300000   2.494471e-04  1.671101e-07
    432    445   2   0.50000    -0.1200000    0.0300000   2.494471e-04  1.671101e-07
    432    450   2   0.50000    -0.1200000   -0.4000000   8.411158e-04  8.795366e-07
    443    444   2   0.50000     0.0600000    0.0300000   6.128906e-05  1.496315e-08
    443    445   2   0.50000     0.0600000    0.0300000   6.128906e-05  1.496315e-08
    443    450   2   0.50000     0.0600000   -0.4000000   2.066619e-04  7.875431e-08
    428    446   2   0.50000     0.2050000    0.0600000   2.494471e-04  1.671101e-07
    428    447   2   0.50000     0.2050000    0.0600000   2.494471e-04  1.671101e-07
    431    433   2   0.50000     0.1400000   -0.1200000   1.015252e-03  1.866303e-06
    431    446   2   0.50000     0.1400000    0.0600000   2.494471e-04  1.671101e-07
    431    447   2   0.50000     0.1400000    0.0600000   2.494471e-04  1.671101e-07
    443    433   2   0.50000     0.0600000   -0.1200000   2.494471e-04  1.671101e-07
    443    446   2   0.50000     0.0600000    0.0600000   6.128906e-05  1.496315e-08
    443    447   2   0.50000     0.0600000    0.0600000   6.128906e-05  1.496315e-08
    430    451   2   0.50000    -0.0600000    0.1400000   1.015252e-03  1.866303e-06
    444    451   2   0.50000     0.0300000    0.1400000   2.494471e-04  1.671101e-07
    445    451   2   0.50000     0.0300000    0.1400000   2.494471e-04  1.671101e-07
    430    448   2   0.50000    -0.0600000    0.0600000   2.494471e-04  1.671101e-07
    430    449   2   0.50000    -0.0600000    0.0600000   2.494471e-04  1.671101e-07
    446    426   2   0.50000     0.0600000   -0.0600000   2.494471e-04  1.671101e-07
    446    448   2   0.50000     0.0600000    0.0600000   6.128906e-05  1.496315e-08
    446    449   2   0.50000     0.0600000    0.0600000   6.128906e-05  1.496315e-08
    447    426   2   0.50000     0.0600000   -0.0600000   2.494471e-04  1.671101e-07
    447    448   2   0.50000     0.0600000    0.0600000   6.128906e-05  1.496315e-08
    447    449   2   0.50000     0.0600000    0.0600000   6.128906e-05  1.496315e-08
    431    452   2   0.50000     0.1400000    0.2050000   1.015252e-03  1.866303e-06
    431    462   2   0.50000     0.1400000    0.0300000   2.494471e-04  1.671101e-07
    431    463   2   0.50000     0.1400000    0.0300000   2.494471e-04  1.671101e-07
    450    453   2   0.50000    -0.4000000   -0.6830000   9.562422e-04  7.083138e-07
    450    454   2   0.50000    -0.4000000   -0.0600000   8.411158e-04  8.795366e-07
    450    464   2   0.50000    -0.4000000    0.0600000   2.066619e-04  7.875431e-08
    462    453   2   0.50000     0.0300000   -0.6830000   2.835898e-04  1.345781e-07
    462    454   2   0.50000     0.0300000   -0.0600000   2.494471e-04  1.671101e-07
    462    464   2   0.50000     0.0300000    0.0600000   6.128906e-05  1.496315e-08
    463    453   2   0.50000     0.0300000   -0.6830000   2.835898e-04  1.345781e-07
    463    454   2   0.50000     0.0300000   -0.0600000   2.494471e-04  1.671101e-07
    463    464   2   0.50000     0.0300000    0.0600000   6.128906e-05  1.496315e-08
    451    465   2   0.50000     0.1400000    0.4180000   1.995577e-06  1.069504e-11
    454    465   2   0.50000    -0.0600000    0.4180000   1.995577e-06  1.069504e-11
    464    465   2   0.50000     0.0600000    0.4180000   4.903125e-07  9.576416e-13
    451    455   2   0.50000     0.1400000   -0.1200000   1.015252e-03  1.866303e-06
    451    461   2   0.50000     0.1400000   -0.1200000   1.015252e-03  1.866303e-06
    451    466   2   0.50000     0.1400000    0.0600000   2.494471e-04  1.671101e-07
    453    455   2   0.50000    -0.6830000   -0.1200000   1.154213e-03  1.502983e-06
    453    461   2   0.50000    -0.6830000   -0.1200000   1.154213e-03  1.502983e-06
    453    466   2   0.50000    -0.6830000    0.0600000   2.835898e-04  1.345781e-07
    464    455   2   0.50000     0.0600000   -0.1200000   2.494471e-04  1.671101e-07
    464    461   2   0.50000     0.0600000   -0.1200000   2.494471e-04  1.671101e-07
    464    466   2   0.50000     0.0600000    0.0600000   6.128906e-05  1.496315e-08
    452    456   2   0.50000     0.2050000    0.2050000   1.015252e-03  1.866303e-06
    452    467   2   0.50000     0.2050000    0.0600000   2.494471e-04  1.671101e-07
    452    468   2   0.50000     0.2050000    0.0600000   2.494471e-04  1.671101e-07
    461    456   2   0.50000    -0.1200000    0.2050000   1.015252e-03  1.866303e-06
    461    467   2   0.50000    -0.1200000    0.0600000   2.494471e-04  1.671101e-07
    461    468   2   0.50000    -0.1200000    0.0600000   2.494471e-04  1.671101e-07
    466    456   2   0.50000     0.0600000    0.2050000   2.494471e-04  1.671101e-07
    466    467   2   0.50000     0.0600000    0.0600000   6.128906e-05  1.496315e-08
    466    468   2   0.50000     0.0600000    0.0600000   6.128906e-05  1.496315e-08
    452    460   2   0.50000     0.2050000   -0.1200000   1.015252e-03  1.866303e-06
    452    476   2   0.50000     0.2050000    0.0600000   2.494471e-04  1.671101e-07
    452    477   2   0.50000     0.2050000    0.0600000   2.494471e-04  1.671101e-07
    455    460   2   0.50000    -0.1200000   -0.1200000   1.015252e-03  1.866303e-06
    455    476   2   0.50000    -0.1200000    0.0600000   2.494471e-04  1.671101e-07
    455    477   2   0.50000    -0.1200000    0.0600000   2.494471e-04  1.671101e-07
    466    460   2   0.50000     0.0600000   -0.1200000   2.494471e-04  1.671101e-07
    466    476   2   0.50000     0.0600000    0.0600000   6.128906e-05  1.496315e-08
    466    477   2   0.50000     0.0600000    0.0600000   6.128906e-05  1.496315e-08
    454    457   2   0.50000    -0.0600000   -0.6830000   1.154213e-03  1.502983e-06
    454    458   2   0.50000    -0.0600000   -0.0600000   1.015252e-03  1.866303e-06
    454    469   2   0.50000    -0.0600000    0.0600000   2.494471e-04  1.671101e-07
    467    457   2   0.50000     0.0600000   -0.6830000   2.835898e-04  1.345781e-07
    467    458   2   0.50000     0.0600000   -0.0600000   2.494471e-04  1.671101e-07
    467    469   2   0.50000     0.0600000    0.0600000   6.128906e-05  1.496315e-08
    468    457   2   0.50000     0.0600000   -0.6830000   2.835898e-04  1.345781e-07
    468    458   2   0.50000     0.0600000   -0.0600000   2.494471e-04  1.671101e-07
    468    469   2   0.50000     0.0600000    0.0600000   6.128906e-05  1.496315e-08
    455    470   2   0.50000    -0.1200000    0.4180000   1.995577e-06  1.069504e-11
    458    470   2   0.50000    -0.0600000    0.4180000   1.995577e-06  1.069504e-11
    469    470   2   0.50000     0.0600000    0.4180000   4.903125e-07  9.576416e-13
    455    459   2   0.50000    -0.1200000    0.1400000   1.015252e-03  1.866303e-06
    455    471   2   0.50000    -0.1200000    0.0600000   2.494471e-04  1.671101e-07
    457    459   2   0.50000    -0.6830000    0.1400000   1.154213e-03  1.502983e-06
    457    460   2   0.50000    -0.6830000   -0.1200000   1.154213e-03  1.502983e-06
    457    471   2   0.50000    -0.6830000    0.0600000   2.835898e-04  1.345781e-07
    469    459   2   0.50000     0.0600000    0.1400000   2.494471e-04  1.671101e-07
    469    460   2   0.50000     0.0600000   -0.1200000   2.494471e-04  1.671101e-07
    469    471   2   0.50000     0.0600000    0.0600000   6.128906e-05  1.496315e-08
    456    472   2   0.50000     0.2050000    0.0300000   2.494471e-04  1.671101e-07
    456    473   2   0.50000     0.2050000    0.0300000   2.494471e-04  1.671101e-07
    456    478   2   0.50000     0.2050000   -0.4000000   8.411158e-04  8.795366e-07
    460    472   2   0.50000    -0.1200000    0.0300000   2.494471e-04  1.671101e-07
    460    473   2   0.50000    -0.1200000    0.0300000   2.494471e-04  1.671101e-07
    460    478   2   0.50000    -0.1200000   -0.4000000   8.411158e-04  8.795366e-07
    471    472   2   0.50000     0.0600000    0.0300000   6.128906e-05  1.496315e-08
    471    473   2   0.50000     0.0600000    0.0300000   6.128906e-05  1.496315e-08
    471    478   2   0.50000     0.0600000   -0.4000000   2.066619e-04  7.875431e-08
    456    474   2   0.50000     0.2050000    0.0600000   2.494471e-04  1.671101e-07
    456    475   2   0.50000     0.2050000    0.0600000   2.494471e-04  1.671101e-07
    459    461   2   0.50000     0.1400000   -0.1200000   1.015252e-03  1.866303e-06
    459    474   2   0.50000     0.1400000    0.0600000   2.494471e-04  1.671101e-07
    459    475   2   0.50000     0.1400000    0.0600000   2.494471e-04  1.671101e-07
    471    461   2   0.50000     0.0600000   -0.1200000   2.494471e-04  1.671101e-07
    471    474   2   0.50000     0.0600000    0.0600000   6.128906e-05  1.496315e-08
    471    475   2   0.50000     0.0600000    0.0600000   6.128906e-05  1.496315e-08
    458    479   2   0.50000    -0.0600000    0.1400000   1.015252e-03  1.866303e-06
    472    479   2   0.50000     0.0300000    0.1400000   2.494471e-04  1.671101e-07
    473    479   2   0.50000     0.0300000    0.1400000   2.494471e-04  1.671101e-07
    458    476   2   0.50000    -0.0600000    0.0600000   2.494471e-04  1.671101e-07
    458    477   2   0.50000    -0.0600000    0.0600000   2.494471e-04  1.671101e-07
    474    454   2   0.50000     0.0600000   -0.0600000   2.494471e-04  1.671101e-07
    474    476   2   0.50000     0.0600000    0.0600000   6.128906e-05  1.496315e-08
    474    477   2   0.50000     0.0600000    0.0600000   6.128906e-05  1.496315e-08
    475    454   2   0.50000     0.0600000   -0.0600000   2.494471e-04  1.671101e-07
    475    476   2   0.50000     0.0600000    0.0600000   6.128906e-05  1.496315e-08
    475    477   2   0.50000     0.0600000    0.0600000   6.128906e-05  1.496315e-08
    459    480   2   0.50000     0.1400000    0.2050000   1.015252e-03  1.866303e-06
    459    490   2   0.50000     0.1400000    0.0300000   2.494471e-04  1.671101e-07
    459    491   2   0.50000     0.1400000    0.0300000   2.494471e-04  1.671101e-07
    478    481   2   0.50000    -0.4000000   -0.6830000   9.562422e-04  7.083138e-07
    478    482   2   0.50000    -0.4000000   -0.0600000   8.411158e-04  8.795366e-07
    478    492   2   0.50000    -0.4000000    0.0600000   2.066619e-04  7.875431e-08
    490    481   2   0.50000     0.0300000   -0.6830000   2.835898e-04  1.345781e-07
    490    482   2   0.50000     0.0300000   -0.0600000   2.494471e-04  1.671101e-07
    490    492   2   0.50000     0.0300000    0.0600000   6.128906e-05  1.496315e-08
    491    481   2   0.50000     0.0300000   -0.6830000   2.835898e-04  1.345781e-07
    491    482   2   0.50000     0.0300000   -0.0600000   2.494471e-04  1.671101e-07
    491    492   2   0.50000     0.0300000    0.0600000   6.128906e-05  1.496315e-08
    479    493   2   0.50000     0.1400000    0.4180000   1.995577e-06  1.069504e-11
    482    493   2   0.50000    -0.0600000    0.4180000   1.995577e-06  1.069504e-11
    492    493   2   0.50000     0.0600000    0.4180000   4.903125e-07  9.576416e-13
    479    483   2   0.50000     0.1400000   -0.1200000   1.015252e-03  1.866303e-06
    479    489   2   0.50000     0.1400000   -0.1200000   1.015252e-03  1.866303e-06
    479    494   2   0.50000     0.1400000    0.0600000   2.494471e-04  1.671101e-07
    481    483   2   0.50000    -0.6830000   -0.1200000   1.154213e-03  1.502983e-06
    481    489   2   0.50000    -0.6830000   -0.1200000   1.154213e-03  1.502983e-06
    481    494   2   0.50000    -0.6830000    0.0600000   2.835898e-04  1.345781e-07
    492    483   2   0.50000     0.0600000   -0.1200000   2.494471e-04  1.671101e-07
    492    489   2   0.50000     0.0600000   -0.1200000   2.494471e-04  1.671101e-07
    492    494   2   0.50000     0.0600000    0.0600000   6.128906e-05  1.496315e-08
    480    484   2   0.50000     0.2050000    0.2050000   1.015252e-03  1.866303e-06
    480    495   2   0.50000     0.2050000    0.0600000   2.494471e-04  1.671101e-07
    480    496   2   0.50000     0.2050000    0.0600000   2.494471e-04  1.671101e-07
    489    484   2   0.50000    -0.1200000    0.2050000   1.015252e-03  1.866303e-06
    489    495   2   0.50000    -0.1200000    0.0600000   2.494471e-04  1.671101e-07
    489    496   2   0.50000    -0.1200000    0.0600000   2.494471e-04  1.671101e-07
    494    484   2   0.50000     0.0600000    0.2050000   2.494471e-04  1.671101e-07
    494    495   2   0.50000     0.0600000    0.0600000   6.128906e-05  1.496315e-08
    494    496   2   0.50000     0.0600000    0.0600000   6.128906e-05  1.496315e-08
    480    488   2   0.50000     0.2050000   -0.1200000   1.015252e-03  1.866303e-06
    480    504   2   0.50000     0.2050000    0.0600000   2.494471e-04  1.671101e-07
    480    505   2   0.50000     0.2050000    0.0600000   2.494471e-04  1.671101e-07
    483    488   2   0.50000    -0.1200000   -0.1200000   1.015252e-03  1.866303e-06
    483    504   2   0.50000    -0.1200000    0.0600000   2.494471e-04  1.671101e-07
    483    505   2   0.50000    -0.1200000    0.0600000   2.494471e-04  1.671101e-07
    494    488   2   0.50000     0.0600000   -0.1200000   2.494471e-04  1.671101e-07
    494    504   2   0.50000     0.0600000    0.0600000   6.128906e-05  1.496315e-08
    494    505   2   0.50000     0.0600000    0.0600000   6.128906e-05  1.496315e-08
    482    485   2   0.50000    -0.0600000   -0.6830000   1.154213e-03  1.502983e-06
    482    486   2   0.50000    -0.0600000   -0.0600000   1.015252e-03  1.866303e-06
    482    497   2   0.50000    -0.0600000    0.0600000   2.494471e-04  1.671101e-07
    495    485   2   0.50000     0.0600000   -0.6830000   2.835898e-04  1.345781e-07
    495    486   2   0.50000     0.0600000   -0.0600000   2.494471e-04  1.671101e-07
    495    497   2   0.50000     0.0600000    0.0600000   6.128906e-05  1.496315e-08
    496    485   2   0.50000     0.0600000   -0.6830000   2.835898e-04  1.345781e-07
    496    486   2   0.50000     0.0600000   -0.0600000   2.494471e-04  1.671101e-07
    496    497   2   0.50000     0.0600000    0.0600000   6.128906e-05  1.496315e-08
    483    498   2   0.50000    -0.1200000    0.4180000   1.995577e-06  1.069504e-11
    486    498   2   0.50000    -0.0600000    0.4180000   1.995577e-06  1.069504e-11
    497    498   2   0.50000     0.0600000    0.4180000   4.903125e-07  9.576416e-13
    483    487   2   0.50000    -0.1200000    0.1400000   1.015252e-03  1.866303e-06
    483    499   2   0.50000    -0.1200000    0.0600000   2.494471e-04  1.671101e-07
    485    487   2   0.50000    -0.6830000    0.1400000   1.154213e-03  1.502983e-06
    485    488   2   0.50000    -0.6830000   -0.1200000   1.154213e-03  1.502983e-06
    485    499   2   0.50000    -0.6830000    0.0600000   2.835898e-04  1.345781e-07
    497    487   2   0.50000     0.0600000    0.1400000   2.494471e-04  1.671101e-07
    497    488   2   0.50000     0.0600000   -0.1200000   2.494471e-04  1.671101e-07
    497    499   2   0.50000     0.0600000    0.0600000   6.128906e-05  1.496315e-08
    484    500   2   0.50000     0.2050000    0.0300000   2.494471e-04  1.671101e-07
    484    501   2   0.50000     0.2050000    0.0300000   2.494471e-04  1.671101e-07
    484    506   2   0.50000     0.2050000   -0.4000000   8.411158e-04  8.795366e-07
    488    500   2   0.50000    -0.1200000    0.0300000   2.494471e-04  1.671101e-07
    488    501   2   0.50000    -0.1200000    0.0300000   2.494471e-04  1.671101e-07
    488    506   2   0.50000    -0.1200000   -0.4000000   8.411158e-04  8.795366e-07
    499    500   2   0.50000     0.0600000    0.0300000   6.128906e-05  1.496315e-08
    499    501   2   0.50000     0.0600000    0.0300000   6.128906e-05  1.496315e-08
    499    506   2   0.50000     0.0600000   -0.4000000   2.066619e-04  7.875431e-08
    484    502   2   0.50000     0.2050000    0.0600000   2.494471e-04  1.671101e-07
    484    503   2   0.50000     0.2050000    0.0600000   2.494471e-04  1.671101e-07
    487    489   2   0.50000     0.1400000   -0.1200000   1.015252e-03  1.866303e-06
    487    502   2   0.50000     0.1400000    0.0600000   2.494471e-04  1.671101e-07
    487    503   2   0.50000     0.1400000    0.0600000   2.494471e-04  1.671101e-07
    499    489   2   0.50000     0.0600000   -0.1200000   2.494471e-04  1.671101e-07
    499    502   2   0.50000     0.0600000    0.0600000   6.128906e-05  1.496315e-08
    499    503   2   0.50000     0.0600000    0.0600000   6.128906e-05  1.496315e-08
    486    507   2   0.50000    -0.0600000    0.1400000   1.015252e-03  1.866303e-06
    500    507   2   0.50000     0.0300000    0.1400000   2.494471e-04  1.671101e-07
    501    507   2   0.50000     0.0300000    0.1400000   2.494471e-04  1.671101e-07
    486    504   2   0.50000    -0.0600000    0.0600000   2.494471e-04  1.671101e-07
    486    505   2   0.50000    -0.0600000    0.0600000   2.494471e-04  1.671101e-07
    502    482   2   0.50000     0.0600000   -0.0600000   2.494471e-04  1.671101e-07
    502    504   2   0.50000     0.0600000    0.0600000   6.128906e-05  1.496315e-08
    502    505   2   0.50000     0.0600000    0.0600000   6.128906e-05  1.496315e-08
    503    482   2   0.50000     0.0600000   -0.0600000   2.494471e-04  1.671101e-07
    503    504   2   0.50000     0.0600000    0.0600000   6.128906e-05  1.496315e-08
    503    505   2   0.50000     0.0600000    0.0600000   6.128906e-05  1.496315e-08
    487    508   2   0.50000     0.1400000    0.2050000   1.015252e-03  1.866303e-06
    487    518   2   0.50000     0.1400000    0.0300000   2.494471e-04  1.671101e-07
    487    519   2   0.50000     0.1400000    0.0300000   2.494471e-04  1.671101e-07
    506    509   2   0.50000    -0.4000000   -0.6830000   9.562422e-04  7.083138e-07
    506    510   2   0.50000    -0.4000000   -0.0600000   8.411158e-04  8.795366e-07
    506    520   2   0.50000    -0.4000000    0.0600000   2.066619e-04  7.875431e-08
    518    509   2   0.50000     0.0300000   -0.6830000   2.835898e-04  1.345781e-07
    518    510   2   0.50000     0.0300000   -0.0600000   2.494471e-04  1.671101e-07
    518    520   2   0.50000     0.0300000    0.0600000   6.128906e-05  1.496315e-08
    519    509   2   0.50000     0.0300000   -0.6830000   2.835898e-04  1.345781e-07
    519    510   2   0.50000     0.0300000   -0.0600000   2.494471e-04  1.671101e-07
    519    520   2   0.50000     0.0300000    0.0600000   6.128906e-05  1.496315e-08
    507    521   2   0.50000     0.1400000    0.4180000   1.995577e-06  1.069504e-11
    510    521   2   0.50000    -0.0600000    0.4180000   1.995577e-06  1.069504e-11
    520    521   2   0.50000     0.0600000    0.4180000   4.903125e-07  9.576416e-13
    507    511   2   0.50000     0.1400000   -0.1200000   1.015252e-03  1.866303e-06
    507    517   2   0.50000     0.1400000   -0.1200000   1.015252e-03  1.866303e-06
    507    522   2   0.50000     0.1400000    0.0600000   2.494471e-04  1.671101e-07
    509    511   2   0.50000    -0.6830000   -0.1200000   1.154213e-03  1.502983e-06
    509    517   2   0.50000    -0.6830000   -0.1200000   1.154213e-03  1.502983e-06
    509    522   2   0.50000    -0.6830000    0.0600000   2.835898e-04  1.345781e-07
    520    511   2   0.50000     0.0600000   -0.1200000   2.494471e-04  1.671101e-07
    520    517   2   0.50000     0.0600000   -0.1200000   2.494471e-04  1.671101e-07
    520    522   2   0.50000     0.0600000    0.0600000   6.128906e-05  1.496315e-08
    508    512   2   0.50000     0.2050000    0.2050000   1.015252e-03  1.866303e-06
    508    523   2   0.50000     0.2050000    0.0600000   2.494471e-04  1.671101e-07
    508    524   2   0.50000     0.2050000    0.0600000   2.494471e-04  1.671101e-07
    517    512   2   0.50000    -0.1200000    0.2050000   1.015252e-03  1.866303e-06
    517    523   2   0.50000    -0.1200000    0.0600000   2.494471e-04  1.671101e-07
    517    524   2   0.50000    -0.1200000    0.0600000   2.494471e-04  1.671101e-07
    522    512   2   0.50000     0.0600000    0.2050000   2.494471e-04  1.671101e-07
    522    523   2   0.50000     0.0600000    0.0600000   6.128906e-05  1.496315e-08
    522    524   2   0.50000     0.0600000    0.0600000   6.128906e-05  1.496315e-08
    508    516   2   0.50000     0.2050000   -0.1200000   1.015252e-03  1.866303e-06
    508    532   2   0.50000     0.2050000    0.0600000   2.494471e-04  1.671101e-07
    508    533   2   0.50000     0.2050000    0.0600000   2.494471e-04  1.671101e-07
    511    516   2   0.50000    -0.1200000   -0.1200000   1.015252e-03  1.866303e-06
    511    532   2   0.50000    -0.1200000    0.0600000   2.494471e-04  1.671101e-07
    511    533   2   0.50000    -0.1200000    0.0600000   2.494471e-04  1.671101e-07
    522    516   2   0.50000     0.0600000   -0.1200000   2.494471e-04  1.671101e-07
    522    532   2   0.50000     0.0600000    0.0600000   6.128906e-05  1.496315e-08
    522    533   2   0.50000     0.0600000    0.0600000   6.128906e-05  1.496315e-08
    510    513   2   0.50000    -0.0600000   -0.6830000   1.154213e-03  1.502983e-06
    510    514   2   0.50000    -0.0600000   -0.0600000   1.015252e-03  1.866303e-06
    510    525   2   0.50000    -0.0600000    0.0600000   2.494471e-04  1.671101e-07
    523    513   2   0.50000     0.0600000   -0.6830000   2.835898e-04  1.345781e-07
    523    514   2   0.50000     0.0600000   -0.0600000   2.494471e-04  1.671101e-07
    523    525   2   0.50000     0.0600000    0.0600000   6.128906e-05  1.496315e-08
    524    513   2   0.50000     0.0600000   -0.6830000   2.835898e-04  1.345781e-07
    524    514   2   0.50000     0.0600000   -0.0600000   2.494471e-04  1.671101e-07
    524    525   2   0.50000     0.0600000    0.0600000   6.128906e-05  1.496315e-08
    511    526   2   0.50000    -0.1200000    0.4180000   1.995577e-06  1.069504e-11
    514    526   2   0.50000    -0.0600000    0.4180000   1.995577e-06  1.069504e-11
    525    526   2   0.50000     0.0600000    0.4180000   4.903125e-07  9.576416e-13
    511    515   2   0.50000    -0.1200000    0.1400000   1.015252e-03  1.866303e-06
    511    527   2   0.50000    -0.1200000    0.0600000   2.494471e-04  1.671101e-07
    513    515   2   0.50000    -0.6830000    0.1400000   1.154213e-03  1.502983e-06
    513    516   2   0.50000    -0.6830000   -0.1200000   1.154213e-03  1.502983e-06
    513    527   2   0.50000    -0.6830000    0.0600000   2.835898e-04  1.345781e-07
    525    515   2   0.50000     0.0600000    0.1400000   2.494471e-04  1.671101e-07
    525    516   2   0.50000     0.0600000   -0.1200000   2.494471e-04  1.671101e-07
    525    527   2   0.50000     0.0600000    0.0600000   6.128906e-05  1.496315e-08
    512    528   2   0.50000     0.2050000    0.0300000   2.494471e-04  1.671101e-07
    512    529   2   0.50000     0.2050000    0.0300000   2.494471e-04  1.671101e-07
    512    534   2   0.50000     0.2050000   -0.4000000   8.411158e-04  8.795366e-07
    516    528   2   0.50000    -0.1200000    0.0300000   2.494471e-04  1.671101e-07
    516    529   2   0.50000    -0.1200000    0.0300000   2.494471e-04  1.671101e-07
    516    534   2   0.50000    -0.1200000   -0.4000000   8.411158e-04  8.795366e-07
    527    528   2   0.50000     0.0600000    0.0300000   6.128906e-05  1.496315e-08
    527    529   2   0.50000     0.0600000    0.0300000   6.128906e-05  1.496315e-08
    527    534   2   0.50000     0.0600000   -0.4000000   2.066619e-04  7.875431e-08
    512    530   2   0.50000     0.2050000    0.0600000   2.494471e-04  1.671101e-07
    512    531   2   0.50000     0.2050000    0.0600000   2.494471e-04  1.671101e-07
    515    517   2   0.50000     0.1400000   -0.1200000   1.015252e-03  1.866303e-06
    515    530   2   0.50000     0.1400000    0.0600000   2.494471e-04  1.671101e-07
    515    531   2   0.50000     0.1400000    0.0600000   2.494471e-04  1.671101e-07
    527    517   2   0.50000     0.0600000   -0.1200000   2.494471e-04  1.671101e-07
    527    530   2   0.50000     0.0600000    0.0600000   6.128906e-05  1.496315e-08
    527    531   2   0.50000     0.0600000    0.0600000   6.128906e-05  1.496315e-08
    514    535   2   0.50000    -0.0600000    0.1400000   1.015252e-03  1.866303e-06
    528    535   2   0.50000     0.0300000    0.1400000   2.494471e-04  1.671101e-07
    529    535   2   0.50000     0.0300000    0.1400000   2.494471e-04  1.671101e-07
    514    532   2   0.50000    -0.0600000    0.0600000   2.494471e-04  1.671101e-07
    514    533   2   0.50000    -0.0600000    0.0600000   2.494471e-04  1.671101e-07
    530    510   2   0.50000     0.0600000   -0.0600000   2.494471e-04  1.671101e-07
    530    532   2   0.50000     0.0600000    0.0600000   6.128906e-05  1.496315e-08
    530    533   2   0.50000     0.0600000    0.0600000   6.128906e-05  1.496315e-08
    531    510   2   0.50000     0.0600000   -0.0600000   2.494471e-04  1.671101e-07
    531    532   2   0.50000     0.0600000    0.0600000   6.128906e-05  1.496315e-08
    531    533   2   0.50000     0.0600000    0.0600000   6.128906e-05  1.496315e-08
    515    536   2   0.50000     0.1400000    0.2050000   1.015252e-03  1.866303e-06
    515    546   2   0.50000     0.1400000    0.0300000   2.494471e-04  1.671101e-07
    515    547   2   0.50000     0.1400000    0.0300000   2.494471e-04  1.671101e-07
    534    537   2   0.50000    -0.4000000   -0.6830000   9.562422e-04  7.083138e-07
    534    538   2   0.50000    -0.4000000   -0.0600000   8.411158e-04  8.795366e-07
    534    548   2   0.50000    -0.4000000    0.0600000   2.066619e-04  7.875431e-08
    546    537   2   0.50000     0.0300000   -0.6830000   2.835898e-04  1.345781e-07
    546    538   2   0.50000     0.0300000   -0.0600000   2.494471e-04  1.671101e-07
    546    548   2   0.50000     0.0300000    0.0600000   6.128906e-05  1.496315e-08
    547    537   2   0.50000     0.0300000   -0.6830000   2.835898e-04  1.345781e-07
    547    538   2   0.50000     0.0300000   -0.0600000   2.494471e-04  1.671101e-07
    547    548   2   0.50000     0.0300000    0.0600000   6.128906e-05  1.496315e-08
    535    549   2   0.50000     0.1400000    0.4180000   1.995577e-06  1.069504e-11
    538    549   2   0.50000    -0.0600000    0.4180000   1.995577e-06  1.069504e-11
    548    549   2   0.50000     0.0600000    0.4180000   4.903125e-07  9.576416e-13
    535    539   2   0.50000     0.1400000   -0.1200000   1.015252e-03  1.866303e-06
    535    545   2   0.50000     0.1400000   -0.1200000   1.015252e-03  1.866303e-06
    535    550   2   0.50000     0.1400000    0.0600000   2.494471e-04  1.671101e-07
    537    539   2   0.50000    -0.6830000   -0.1200000   1.154213e-03  1.502983e-06
    537    545   2   0.50000    -0.6830000   -0.1200000   1.154213e-03  1.502983e-06
    537    550   2   0.50000    -0.6830000    0.0600000   2.835898e-04  1.345781e-07
    548    539   2   0.50000     0.0600000   -0.1200000   2.494471e-04  1.671101e-07
    548    545   2   0.50000     0.0600000   -0.1200000   2.494471e-04  1.671101e-07
    548    550   2   0.50000     0.0600000    0.0600000   6.128906e-05  1.496315e-08
    536    540   2   0.50000     0.2050000    0.2050000   1.015252e-03  1.866303e-06
    536    551   2   0.50000     0.2050000    0.0600000   2.494471e-04  1.671101e-07
    536    552   2   0.50000     0.2050000    0.0600000   2.494471e-04  1.671101e-07
    545    540   2   0.50000    -0.1200000    0.2050000   1.015252e-03  1.866303e-06
    545    551   2   0.50000    -0.1200000    0.0600000   2.494471e-04  1.671101e-07
    545    552   2   0.50000    -0.1200000    0.0600000   2.494471e-04  1.671101e-07
    550    540   2   0.50000     0.0600000    0.2050000   2.494471e-04  1.671101e-07
    550    551   2   0.50000     0.0600000    0.0600000   6.128906e-05  1.496315e-08
    550    552   2   0.50000     0.0600000    0.0600000   6.128906e-05  1.496315e-08
    536    544   2   0.50000     0.2050000   -0.1200000   1.015252e-03  1.866303e-06
    536    560   2   0.50000     0.2050000    0.0600000   2.494471e-04  1.671101e-07
    536    561   2   0.50000     0.2050000    0.0600000   2.494471e-04  1.671101e-07
    539    544   2   0.50000    -0.1200000   -0.1200000   1.015252e-03  1.866303e-06
    539    560   2   0.50000    -0.1200000    0.0600000   2.494471e-04  1.671101e-07
    539    561   2   0.50000    -0.1200000    0.0600000   2.494471e-04  1.671101e-07
    550    544   2   0.50000     0.0600000   -0.1200000   2.494471e-04  1.671101e-07
    550    560   2   0.50000     0.0600000    0.0600000   6.128906e-05  1.496315e-08
    550    561   2   0.50000     0.0600000    0.0600000   6.128906e-05  1.496315e-08
    538    541   2   0.50000    -0.0600000   -0.6830000   1.154213e-03  1.502983e-06
    538    542   2   0.50000    -0.0600000   -0.0600000   1.015252e-03  1.866303e-06
    538    553   2   0.50000    -0.0600000    0.0600000   2.494471e-04  1.671101e-07
    551    541   2   0.50000     0.0600000   -0.6830000   2.835898e-04  1.345781e-07
    551    542   2   0.50000     0.0600000   -0.0600000   2.494471e-04  1.671101e-07
    551    553   2   0.50000     0.0600000    0.0600000   6.128906e-05  1.496315e-08
    552    541   2   0.50000     0.0600000   -0.6830000   2.835898e-04  1.345781e-07
    552    542   2   0.50000     0.0600000   -0.0600000   2.494471e-04  1.671101e-07
    552    553   2   0.50000     0.0600000    0.0600000   6.128906e-05  1.496315e-08
    539    554   2   0.50000    -0.1200000    0.4180000   1.995577e-06  1.069504e-11
    542    554   2   0.50000    -0.0600000    0.4180000   1.995577e-06  1.069504e-11
    553    554   2   0.50000     0.0600000    0.4180000   4.903125e-07  9.576416e-13
    539    543   2   0.50000    -0.1200000   -0.1800000   1.015252e-03  1.866303e-06
    539    555   2   0.50000    -0.1200000    0.0600000   2.494471e-04  1.671101e-07
    541    543   2   0.50000    -0.6830000   -0.1800000   1.154213e-03  1.502983e-06
    541    544   2   0.50000    -0.6830000   -0.1200000   1.154213e-03  1.502983e-06
    541    555   2   0.50000    -0.6830000    0.0600000   2.835898e-04  1.345781e-07
    553    543   2   0.50000     0.0600000   -0.1800000   2.494471e-04  1.671101e-07
    553    544   2   0.50000     0.0600000   -0.1200000   2.494471e-04  1.671101e-07
    553    555   2   0.50000     0.0600000    0.0600000   6.128906e-05  1.496315e-08
    540    556   2   0.50000     0.2050000    0.0600000   2.494471e-04  1.671101e-07
    540    557   2   0.50000     0.2050000    0.0600000   2.494471e-04  1.671101e-07
    540    562   2   0.50000     0.2050000    0.0600000   2.494471e-04  1.671101e-07
    544    556   2   0.50000    -0.1200000    0.0600000   2.494471e-04  1.671101e-07
    544    557   2   0.50000    -0.1200000    0.0600000   2.494471e-04  1.671101e-07
    544    562   2   0.50000    -0.1200000    0.0600000   2.494471e-04  1.671101e-07
    555    556   2   0.50000     0.0600000    0.0600000   6.128906e-05  1.496315e-08
    555    557   2   0.50000     0.0600000    0.0600000   6.128906e-05  1.496315e-08
    555    562   2   0.50000     0.0600000    0.0600000   6.128906e-05  1.496315e-08
    540    558   2   0.50000     0.2050000    0.0600000   2.494471e-04  1.671101e-07
    540    559   2   0.50000     0.2050000    0.0600000   2.494471e-04  1.671101e-07
    543    545   2   0.50000    -0.1800000   -0.1200000   1.015252e-03  1.866303e-06
    543    558   2   0.50000    -0.1800000    0.0600000   2.494471e-04  1.671101e-07
    543    559   2   0.50000    -0.1800000    0.0600000   2.494471e-04  1.671101e-07
    555    545   2   0.50000     0.0600000   -0.1200000   2.494471e-04  1.671101e-07
    555    558   2   0.50000     0.0600000    0.0600000   6.128906e-05  1.496315e-08
    555    559   2   0.50000     0.0600000    0.0600000   6.128906e-05  1.496315e-08
    542    560   2   0.50000    -0.0600000    0.0600000   2.494471e-04  1.671101e-07
    542    561   2   0.50000    -0.0600000    0.0600000   2.494471e-04  1.671101e-07
    558    538   2   0.50000     0.0600000   -0.0600000   2.494471e-04  1.671101e-07
    558    560   2   0.50000     0.0600000    0.0600000   6.128906e-05  1.496315e-08
    558    561   2   0.50000     0.0600000    0.0600000   6.128906e-05  1.496315e-08
    559    538   2   0.50000     0.0600000   -0.0600000   2.494471e-04  1.671101e-07
    559    560   2   0.50000     0.0600000    0.0600000   6.128906e-05  1.496315e-08
    559    561   2   0.50000     0.0600000    0.0600000   6.128906e-05  1.496315e-08

[ angles ]
; ai  aj  ak
      2      1     29   1    108.5000    460.2400
      1      2      3   1    109.5000    418.4000
      1      2     13   1    109.5000    292.8800
      1      2     14   1    109.5000    292.8800
      3      2     13   1    110.7000    313.8000
      3      2     14   1    110.7000    313.8000
     13      2     14   1    107.8000    276.1440
      2      3      4   1    109.5000    418.4000
      2      3      5   1    112.7000    488.2728
      2      3     15   1    110.7000    313.8000
      4      3      5   1    109.5000    418.4000
      4      3     15   1    109.5000    292.8800
      5      3     15   1    110.7000    313.8000
      3      4     16   1    108.5000    460.2400
      3      5      6   1    112.7000    488.2728
      3      5     12   1    112.7000    488.2728
      3      5     17   1    110.7000    313.8000
      6      5     12   1    112.7000    488.2728
      6      5     17   1    110.7000    313.8000
     12      5     17   1    110.7000    313.8000
      5      6      7   1    112.7000    488.2728
      5      6     18   1    110.7000    313.8000
      5      6     19   1    110.7000    313.8000
      7      6     18   1    110.7000    313.8000
      7      6     19   1    110.7000    313.8000
     18      6     19   1    107.8000    276.1440
      6      7      8   1    109.5000    418.4000
      6      7      9   1    112.7000    488.2728
      6      7     20   1    110.7000    313.8000
      8      7      9   1    109.5000    418.4000
      8      7     20   1    109.5000    292.8800
      9      7     20   1    110.7000    313.8000
      7      8     21   1    108.5000    460.2400
      7      9     10   1    112.7000    488.2728
      7      9     11   1    112.7000    488.2728
      7      9     22   1    110.7000    313.8000
     10      9     11   1    112.7000    488.2728
     10      9     22   1    110.7000    313.8000
     11      9     22   1    110.7000    313.8000
      9     10     23   1    110.7000    313.8000
      9     10     24   1    110.7000    313.8000
      9     10     30   1    109.5000    418.4000
     23     10     24   1    107.8000    276.1440
     23     10     30   1    109.5000    292.8800
     24     10     30   1    109.5000    292.8800
      9     11     12   1    112.7000    488.2728
      9     11     25   1    110.7000    313.8000
      9     11     26   1    110.7000    313.8000
     12     11     25   1    110.7000    313.8000
     12     11     26   1    110.7000    313.8000
     25     11     26   1    107.8000    276.1440
      5     12     11   1    112.7000    488.2728
      5     12     27   1    110.7000    313.8000
      5     12     28   1    110.7000    313.8000
     11     12     27   1    110.7000    313.8000
     11     12     28   1    110.7000    313.8000
     27     12     28   1    107.8000    276.1440
     10     30     31   1    109.5000    502.0800
     30     31     32   1    109.5000    418.4000
     30     31     42   1    109.5000    292.8800
     30     31     43   1    109.5000    292.8800
     32     31     42   1    110.7000    313.8000
     32     31     43   1    110.7000    313.8000
     42     31     43   1    107.8000    276.1440
     31     32     33   1    109.5000    418.4000
     31     32     34   1    112.7000    488.2728
     31     32     44   1    110.7000    313.8000
     33     32     34   1    109.5000    418.4000
     33     32     44   1    109.5000    292.8800
     34     32     44   1    110.7000    313.8000
     32     33     45   1    108.5000    460.2400
     32     34     35   1    112.7000    488.2728
     32     34     41   1    112.7000    488.2728
     32     34     46   1    110.7000    313.8000
     35     34     41   1    112.7000    488.2728
     35     34     46   1    110.7000    313.8000
     41     34     46   1    110.7000    313.8000
     34     35     36   1    112.7000    488.2728
     34     35     47   1    110.7000    313.8000
     34     35     48   1    110.7000    313.8000
     36     35     47   1    110.7000    313.8000
     36     35     48   1    110.7000    313.8000
     47     35     48   1    107.8000    276.1440
     35     36     37   1    109.5000    418.4000
     35     36     38   1    112.7000    488.2728
     35     36     49   1    110.7000    313.8000
     37     36     38   1    109.5000    418.4000
     37     36     49   1    109.5000    292.8800
     38     36     49   1    110.7000    313.8000
     36     37     50   1    108.5000    460.2400
     36     38     39   1    112.7000    488.2728
     36     38     40   1    112.7000    488.2728
     36     38     51   1    110.7000    313.8000
     39     38     40   1    112.7000    488.2728
     39     38     51   1    110.7000    313.8000
     40     38     51   1    110.7000    313.8000
     38     39     52   1    110.7000    313.8000
     38     39     53   1    110.7000    313.8000
     38     39     58   1    109.5000    418.4000
     52     39     53   1    107.8000    276.1440
     52     39     58   1    109.5000    292.8800
     53     39     58   1    109.5000    292.8800
     38     40     41   1    112.7000    488.2728
     38     40     54   1    110.7000    313.8000
     38     40     55   1    110.7000    313.8000
     41     40     54   1    110.7000    313.8000
     41     40     55   1    110.7000    313.8000
     54     40     55   1    107.8000    276.1440
     34     41     40   1    112.7000    488.2728
     34     41     56   1    110.7000    313.8000
     34     41     57   1    110.7000    313.8000
     40     41     56   1    110.7000    313.8000
     40     41     57   1    110.7000    313.8000
     56     41     57   1    107.8000    276.1440
     39     58     59   1    109.5000    502.0800
     58     59     60   1    109.5000    418.4000
     58     59     70   1    109.5000    292.8800
     58     59     71   1    109.5000    292.8800
     60     59     70   1    110.7000    313.8000
     60     59     71   1    110.7000    313.8000
     70     59     71   1    107.8000    276.1440
     59     60     61   1    109.5000    418.4000
     59     60     62   1    112.7000    488.2728
     59     60     72   1    110.7000    313.8000
     61     60     62   1    109.5000    418.4000
     61     60     72   1    109.5000    292.8800
     62     60     72   1    110.7000    313.8000
     60     61     73   1    108.5000    460.2400
     60     62     63   1    112.7000    488.2728
     60     62     69   1    112.7000    488.2728
     60     62     74   1    110.7000    313.8000
     63     62     69   1    112.7000    488.2728
     63     62     74   1    110.7000    313.8000
     69     62     74   1    110.7000    313.8000
     62     63     64   1    112.7000    488.2728
     62     63     75   1    110.7000    313.8000
     62     63     76   1    110.7000    313.8000
     64     63     75   1    110.7000    313.8000
     64     63     76   1    110.7000    313.8000
     75     63     76   1    107.8000    276.1440
     63     64     65   1    109.5000    418.4000
     63     64     66   1    112.7000    488.2728
     63     64     77   1    110.7000    313.8000
     65     64     66   1    109.5000    418.4000
     65     64     77   1    109.5000    292.8800
     66     64     77   1    110.7000    313.8000
     64     65     78   1    108.5000    460.2400
     64     66     67   1    112.7000    488.2728
     64     66     68   1    112.7000    488.2728
     64     66     79   1    110.7000    313.8000
     67     66     68   1    112.7000    488.2728
     67     66     79   1    110.7000    313.8000
     68     66     79   1    110.7000    313.8000
     66     67     80   1    110.7000    313.8000
     66     67     81   1    110.7000    313.8000
     66     67     86   1    109.5000    418.4000
     80     67     81   1    107.8000    276.1440
     80     67     86   1    109.5000    292.8800
     81     67     86   1    109.5000    292.8800
     66     68     69   1    112.7000    488.2728
     66     68     82   1    110.7000    313.8000
     66     68     83   1    110.7000    313.8000
     69     68     82   1    110.7000    313.8000
     69     68     83   1    110.7000    313.8000
     82     68     83   1    107.8000    276.1440
     62     69     68   1    112.7000    488.2728
     62     69     84   1    110.7000    313.8000
     62     69     85   1    110.7000    313.8000
     68     69     84   1    110.7000    313.8000
     68     69     85   1    110.7000    313.8000
     84     69     85   1    107.8000    276.1440
     67     86     87   1    109.5000    502.0800
     86     87     88   1    109.5000    418.4000
     86     87     98   1    109.5000    292.8800
     86     87     99   1    109.5000    292.8800
     88     87     98   1    110.7000    313.8000
     88     87     99   1    110.7000    313.8000
     98     87     99   1    107.8000    276.1440
     87     88     89   1    109.5000    418.4000
     87     88     90   1    112.7000    488.2728
     87     88    100   1    110.7000    313.8000
     89     88     90   1    109.5000    418.4000
     89     88    100   1    109.5000    292.8800
     90     88    100   1    110.7000    313.8000
     88     89    101   1    108.5000    460.2400
     88     90     91   1    112.7000    488.2728
     88     90     97   1    112.7000    488.2728
     88     90    102   1    110.7000    313.8000
     91     90     97   1    112.7000    488.2728
     91     90    102   1    110.7000    313.8000
     97     90    102   1    110.7000    313.8000
     90     91     92   1    112.7000    488.2728
     90     91    103   1    110.7000    313.8000
     90     91    104   1    110.7000    313.8000
     92     91    103   1    110.7000    313.8000
     92     91    104   1    110.7000    313.8000
    103     91    104   1    107.8000    276.1440
     91     92     93   1    109.5000    418.4000
     91     92     94   1    112.7000    488.2728
     91     92    105   1    110.7000    313.8000
     93     92     94   1    109.5000    418.4000
     93     92    105   1    109.5000    292.8800
     94     92    105   1    110.7000    313.8000
     92     93    106   1    108.5000    460.2400
     92     94     95   1    112.7000    488.2728
     92     94     96   1    112.7000    488.2728
     92     94    107   1    110.7000    313.8000
     95     94     96   1    112.7000    488.2728
     95     94    107   1    110.7000    313.8000
     96     94    107   1    110.7000    313.8000
     94     95    108   1    110.7000    313.8000
     94     95    109   1    110.7000    313.8000
     94     95    114   1    109.5000    418.4000
    108     95    109   1    107.8000    276.1440
    108     95    114   1    109.5000    292.8800
    109     95    114   1    109.5000    292.8800
     94     96     97   1    112.7000    488.2728
     94     96    110   1    110.7000    313.8000
     94     96    111   1    110.7000    313.8000
     97     96    110   1    110.7000    313.8000
     97     96    111   1    110.7000    313.8000
    110     96    111   1    107.8000    276.1440
     90     97     96   1    112.7000    488.2728
     90     97    112   1    110.7000    313.8000
     90     97    113   1    110.7000    313.8000
     96     97    112   1    110.7000    313.8000
     96     97    113   1    110.7000    313.8000
    112     97    113   1    107.8000    276.1440
     95    114    115   1    109.5000    502.0800
    114    115    116   1    109.5000    418.4000
    114    115    126   1    109.5000    292.8800
    114    115    127   1    109.5000    292.8800
    116    115    126   1    110.7000    313.8000
    116    115    127   1    110.7000    313.8000
    126    115    127   1    107.8000    276.1440
    115    116    117   1    109.5000    418.4000
    115    116    118   1    112.7000    488.2728
    115    116    128   1    110.7000    313.8000
    117    116    118   1    109.5000    418.4000
    117    116    128   1    109.5000    292.8800
    118    116    128   1    110.7000    313.8000
    116    117    129   1    108.5000    460.2400
    116    118    119   1    112.7000    488.2728
    116    118    125   1    112.7000    488.2728
    116    118    130   1    110.7000    313.8000
    119    118    125   1    112.7000    488.2728
    119    118    130   1    110.7000    313.8000
    125    118    130   1    110.7000    313.8000
    118    119    120   1    112.7000    488.2728
    118    119    131   1    110.7000    313.8000
    118    119    132   1    110.7000    313.8000
    120    119    131   1    110.7000    313.8000
    120    119    132   1    110.7000    313.8000
    131    119    132   1    107.8000    276.1440
    119    120    121   1    109.5000    418.4000
    119    120    122   1    112.7000    488.2728
    119    120    133   1    110.7000    313.8000
    121    120    122   1    109.5000    418.4000
    121    120    133   1    109.5000    292.8800
    122    120    133   1    110.7000    313.8000
    120    121    134   1    108.5000    460.2400
    120    122    123   1    112.7000    488.2728
    120    122    124   1    112.7000    488.2728
    120    122    135   1    110.7000    313.8000
    123    122    124   1    112.7000    488.2728
    123    122    135   1    110.7000    313.8000
    124    122    135   1    110.7000    313.8000
    122    123    136   1    110.7000    313.8000
    122    123    137   1    110.7000    313.8000
    122    123    142   1    109.5000    418.4000
    136    123    137   1    107.8000    276.1440
    136    123    142   1    109.5000    292.8800
    137    123    142   1    109.5000    292.8800
    122    124    125   1    112.7000    488.2728
    122    124    138   1    110.7000    313.8000
    122    124    139   1    110.7000    313.8000
    125    124    138   1    110.7000    313.8000
    125    124    139   1    110.7000    313.8000
    138    124    139   1    107.8000    276.1440
    118    125    124   1    112.7000    488.2728
    118    125    140   1    110.7000    313.8000
    118    125    141   1    110.7000    313.8000
    124    125    140   1    110.7000    313.8000
    124    125    141   1    110.7000    313.8000
    140    125    141   1    107.8000    276.1440
    123    142    143   1    109.5000    502.0800
    142    143    144   1    109.5000    418.4000
    142    143    154   1    109.5000    292.8800
    142    143    155   1    109.5000    292.8800
    144    143    154   1    110.7000    313.8000
    144    143    155   1    110.7000    313.8000
    154    143    155   1    107.8000    276.1440
    143    144    145   1    109.5000    418.4000
    143    144    146   1    112.7000    488.2728
    143    144    156   1    110.7000    313.8000
    145    144    146   1    109.5000    418.4000
    145    144    156   1    109.5000    292.8800
    146    144    156   1    110.7000    313.8000
    144    145    157   1    108.5000    460.2400
    144    146    147   1    112.7000    488.2728
    144    146    153   1    112.7000    488.2728
    144    146    158   1    110.7000    313.8000
    147    146    153   1    112.7000    488.2728
    147    146    158   1    110.7000    313.8000
    153    146    158   1    110.7000    313.8000
    146    147    148   1    112.7000    488.2728
    146    147    159   1    110.7000    313.8000
    146    147    160   1    110.7000    313.8000
    148    147    159   1    110.7000    313.8000
    148    147    160   1    110.7000    313.8000
    159    147    160   1    107.8000    276.1440
    147    148    149   1    109.5000    418.4000
    147    148    150   1    112.7000    488.2728
    147    148    161   1    110.7000    313.8000
    149    148    150   1    109.5000    418.4000
    149    148    161   1    109.5000    292.8800
    150    148    161   1    110.7000    313.8000
    148    149    162   1    108.5000    460.2400
    148    150    151   1    112.7000    488.2728
    148    150    152   1    112.7000    488.2728
    148    150    163   1    110.7000    313.8000
    151    150    152   1    112.7000    488.2728
    151    150    163   1    110.7000    313.8000
    152    150    163   1    110.7000    313.8000
    150    151    164   1    110.7000    313.8000
    150    151    165   1    110.7000    313.8000
    150    151    170   1    109.5000    418.4000
    164    151    165   1    107.8000    276.1440
    164    151    170   1    109.5000    292.8800
    165    151    170   1    109.5000    292.8800
    150    152    153   1    112.7000    488.2728
    150    152    166   1    110.7000    313.8000
    150    152    167   1    110.7000    313.8000
    153    152    166   1    110.7000    313.8000
    153    152    167   1    110.7000    313.8000
    166    152    167   1    107.8000    276.1440
    146    153    152   1    112.7000    488.2728
    146    153    168   1    110.7000    313.8000
    146    153    169   1    110.7000    313.8000
    152    153    168   1    110.7000    313.8000
    152    153    169   1    110.7000    313.8000
    168    153    169   1    107.8000    276.1440
    151    170    171   1    109.5000    502.0800
    170    171    172   1    109.5000    418.4000
    170    171    182   1    109.5000    292.8800
    170    171    183   1    109.5000    292.8800
    172    171    182   1    110.7000    313.8000
    172    171    183   1    110.7000    313.8000
    182    171    183   1    107.8000    276.1440
    171    172    173   1    109.5000    418.4000
    171    172    174   1    112.7000    488.2728
    171    172    184   1    110.7000    313.8000
    173    172    174   1    109.5000    418.4000
    173    172    184   1    109.5000    292.8800
    174    172    184   1    110.7000    313.8000
    172    173    185   1    108.5000    460.2400
    172    174    175   1    112.7000    488.2728
    172    174    181   1    112.7000    488.2728
    172    174    186   1    110.7000    313.8000
    175    174    181   1    112.7000    488.2728
    175    174    186   1    110.7000    313.8000
    181    174    186   1    110.7000    313.8000
    174    175    176   1    112.7000    488.2728
    174    175    187   1    110.7000    313.8000
    174    175    188   1    110.7000    313.8000
    176    175    187   1    110.7000    313.8000
    176    175    188   1    110.7000    313.8000
    187    175    188   1    107.8000    276.1440
    175    176    177   1    109.5000    418.4000
    175    176    178   1    112.7000    488.2728
    175    176    189   1    110.7000    313.8000
    177    176    178   1    109.5000    418.4000
    177    176    189   1    109.5000    292.8800
    178    176    189   1    110.7000    313.8000
    176    177    190   1    108.5000    460.2400
    176    178    179   1    112.7000    488.2728
    176    178    180   1    112.7000    488.2728
    176    178    191   1    110.7000    313.8000
    179    178    180   1    112.7000    488.2728
    179    178    191   1    110.7000    313.8000
    180    178    191   1    110.7000    313.8000
    178    179    192   1    110.7000    313.8000
    178    179    193   1    110.7000    313.8000
    178    179    198   1    109.5000    418.4000
    192    179    193   1    107.8000    276.1440
    192    179    198   1    109.5000    292.8800
    193    179    198   1    109.5000    292.8800
    178    180    181   1    112.7000    488.2728
    178    180    194   1    110.7000    313.8000
    178    180    195   1    110.7000    313.8000
    181    180    194   1    110.7000    313.8000
    181    180    195   1    110.7000    313.8000
    194    180    195   1    107.8000    276.1440
    174    181    180   1    112.7000    488.2728
    174    181    196   1    110.7000    313.8000
    174    181    197   1    110.7000    313.8000
    180    181    196   1    110.7000    313.8000
    180    181    197   1    110.7000    313.8000
    196    181    197   1    107.8000    276.1440
    179    198    199   1    109.5000    502.0800
    198    199    200   1    109.5000    418.4000
    198    199    210   1    109.5000    292.8800
    198    199    211   1    109.5000    292.8800
    200    199    210   1    110.7000    313.8000
    200    199    211   1    110.7000    313.8000
    210    199    211   1    107.8000    276.1440
    199    200    201   1    109.5000    418.4000
    199    200    202   1    112.7000    488.2728
    199    200    212   1    110.7000    313.8000
    201    200    202   1    109.5000    418.4000
    201    200    212   1    109.5000    292.8800
    202    200    212   1    110.7000    313.8000
    200    201    213   1    108.5000    460.2400
    200    202    203   1    112.7000    488.2728
    200    202    209   1    112.7000    488.2728
    200    202    214   1    110.7000    313.8000
    203    202    209   1    112.7000    488.2728
    203    202    214   1    110.7000    313.8000
    209    202    214   1    110.7000    313.8000
    202    203    204   1    112.7000    488.2728
    202    203    215   1    110.7000    313.8000
    202    203    216   1    110.7000    313.8000
    204    203    215   1    110.7000    313.8000
    204    203    216   1    110.7000    313.8000
    215    203    216   1    107.8000    276.1440
    203    204    205   1    109.5000    418.4000
    203    204    206   1    112.7000    488.2728
    203    204    217   1    110.7000    313.8000
    205    204    206   1    109.5000    418.4000
    205    204    217   1    109.5000    292.8800
    206    204    217   1    110.7000    313.8000
    204    205    218   1    108.5000    460.2400
    204    206    207   1    112.7000    488.2728
    204    206    208   1    112.7000    488.2728
    204    206    219   1    110.7000    313.8000
    207    206    208   1    112.7000    488.2728
    207    206    219   1    110.7000    313.8000
    208    206    219   1    110.7000    313.8000
    206    207    220   1    110.7000    313.8000
    206    207    221   1    110.7000    313.8000
    206    207    226   1    109.5000    418.4000
    220    207    221   1    107.8000    276.1440
    220    207    226   1    109.5000    292.8800
    221    207    226   1    109.5000    292.8800
    206    208    209   1    112.7000    488.2728
    206    208    222   1    110.7000    313.8000
    206    208    223   1    110.7000    313.8000
    209    208    222   1    110.7000    313.8000
    209    208    223   1    110.7000    313.8000
    222    208    223   1    107.8000    276.1440
    202    209    208   1    112.7000    488.2728
    202    209    224   1    110.7000    313.8000
    202    209    225   1    110.7000    313.8000
    208    209    224   1    110.7000    313.8000
    208    209    225   1    110.7000    313.8000
    224    209    225   1    107.8000    276.1440
    207    226    227   1    109.5000    502.0800
    226    227    228   1    109.5000    418.4000
    226    227    238   1    109.5000    292.8800
    226    227    239   1    109.5000    292.8800
    228    227    238   1    110.7000    313.8000
    228    227    239   1    110.7000    313.8000
    238    227    239   1    107.8000    276.1440
    227    228    229   1    109.5000    418.4000
    227    228    230   1    112.7000    488.2728
    227    228    240   1    110.7000    313.8000
    229    228    230   1    109.5000    418.4000
    229    228    240   1    109.5000    292.8800
    230    228    240   1    110.7000    313.8000
    228    229    241   1    108.5000    460.2400
    228    230    231   1    112.7000    488.2728
    228    230    237   1    112.7000    488.2728
    228    230    242   1    110.7000    313.8000
    231    230    237   1    112.7000    488.2728
    231    230    242   1    110.7000    313.8000
    237    230    242   1    110.7000    313.8000
    230    231    232   1    112.7000    488.2728
    230    231    243   1    110.7000    313.8000
    230    231    244   1    110.7000    313.8000
    232    231    243   1    110.7000    313.8000
    232    231    244   1    110.7000    313.8000
    243    231    244   1    107.8000    276.1440
    231    232    233   1    109.5000    418.4000
    231    232    234   1    112.7000    488.2728
    231    232    245   1    110.7000    313.8000
    233    232    234   1    109.5000    418.4000
    233    232    245   1    109.5000    292.8800
    234    232    245   1    110.7000    313.8000
    232    233    246   1    108.5000    460.2400
    232    234    235   1    112.7000    488.2728
    232    234    236   1    112.7000    488.2728
    232    234    247   1    110.7000    313.8000
    235    234    236   1    112.7000    488.2728
    235    234    247   1    110.7000    313.8000
    236    234    247   1    110.7000    313.8000
    234    235    248   1    110.7000    313.8000
    234    235    249   1    110.7000    313.8000
    234    235    254   1    109.5000    418.4000
    248    235    249   1    107.8000    276.1440
    248    235    254   1    109.5000    292.8800
    249    235    254   1    109.5000    292.8800
    234    236    237   1    112.7000    488.2728
    234    236    250   1    110.7000    313.8000
    234    236    251   1    110.7000    313.8000
    237    236    250   1    110.7000    313.8000
    237    236    251   1    110.7000    313.8000
    250    236    251   1    107.8000    276.1440
    230    237    236   1    112.7000    488.2728
    230    237    252   1    110.7000    313.8000
    230    237    253   1    110.7000    313.8000
    236    237    252   1    110.7000    313.8000
    236    237    253   1    110.7000    313.8000
    252    237    253   1    107.8000    276.1440
    235    254    255   1    109.5000    502.0800
    254    255    256   1    109.5000    418.4000
    254    255    266   1    109.5000    292.8800
    254    255    267   1    109.5000    292.8800
    256    255    266   1    110.7000    313.8000
    256    255    267   1    110.7000    313.8000
    266    255    267   1    107.8000    276.1440
    255    256    257   1    109.5000    418.4000
    255    256    258   1    112.7000    488.2728
    255    256    268   1    110.7000    313.8000
    257    256    258   1    109.5000    418.4000
    257    256    268   1    109.5000    292.8800
    258    256    268   1    110.7000    313.8000
    256    257    269   1    108.5000    460.2400
    256    258    259   1    112.7000    488.2728
    256    258    265   1    112.7000    488.2728
    256    258    270   1    110.7000    313.8000
    259    258    265   1    112.7000    488.2728
    259    258    270   1    110.7000    313.8000
    265    258    270   1    110.7000    313.8000
    258    259    260   1    112.7000    488.2728
    258    259    271   1    110.7000    313.8000
    258    259    272   1    110.7000    313.8000
    260    259    271   1    110.7000    313.8000
    260    259    272   1    110.7000    313.8000
    271    259    272   1    107.8000    276.1440
    259    260    261   1    109.5000    418.4000
    259    260    262   1    112.7000    488.2728
    259    260    273   1    110.7000    313.8000
    261    260    262   1    109.5000    418.4000
    261    260    273   1    109.5000    292.8800
    262    260    273   1    110.7000    313.8000
    260    261    274   1    108.5000    460.2400
    260    262    263   1    112.7000    488.2728
    260    262    264   1    112.7000    488.2728
    260    262    275   1    110.7000    313.8000
    263    262    264   1    112.7000    488.2728
    263    262    275   1    110.7000    313.8000
    264    262    275   1    110.7000    313.8000
    262    263    276   1    110.7000    313.8000
    262    263    277   1    110.7000    313.8000
    262    263    282   1    109.5000    418.4000
    276    263    277   1    107.8000    276.1440
    276    263    282   1    109.5000    292.8800
    277    263    282   1    109.5000    292.8800
    262    264    265   1    112.7000    488.2728
    262    264    278   1    110.7000    313.8000
    262    264    279   1    110.7000    313.8000
    265    264    278   1    110.7000    313.8000
    265    264    279   1    110.7000    313.8000
    278    264    279   1    107.8000    276.1440
    258    265    264   1    112.7000    488.2728
    258    265    280   1    110.7000    313.8000
    258    265    281   1    110.7000    313.8000
    264    265    280   1    110.7000    313.8000
    264    265    281   1    110.7000    313.8000
    280    265    281   1    107.8000    276.1440
    263    282    283   1    109.5000    502.0800
    282    283    284   1    109.5000    418.4000
    282    283    294   1    109.5000    292.8800
    282    283    295   1    109.5000    292.8800
    284    283    294   1    110.7000    313.8000
    284    283    295   1    110.7000    313.8000
    294    283    295   1    107.8000    276.1440
    283    284    285   1    109.5000    418.4000
    283    284    286   1    112.7000    488.2728
    283    284    296   1    110.7000    313.8000
    285    284    286   1    109.5000    418.4000
    285    284    296   1    109.5000    292.8800
    286    284    296   1    110.7000    313.8000
    284    285    297   1    108.5000    460.2400
    284    286    287   1    112.7000    488.2728
    284    286    293   1    112.7000    488.2728
    284    286    298   1    110.7000    313.8000
    287    286    293   1    112.7000    488.2728
    287    286    298   1    110.7000    313.8000
    293    286    298   1    110.7000    313.8000
    286    287    288   1    112.7000    488.2728
    286    287    299   1    110.7000    313.8000
    286    287    300   1    110.7000    313.8000
    288    287    299   1    110.7000    313.8000
    288    287    300   1    110.7000    313.8000
    299    287    300   1    107.8000    276.1440
    287    288    289   1    109.5000    418.4000
    287    288    290   1    112.7000    488.2728
    287    288    301   1    110.7000    313.8000
    289    288    290   1    109.5000    418.4000
    289    288    301   1    109.5000    292.8800
    290    288    301   1    110.7000    313.8000
    288    289    302   1    108.5000    460.2400
    288    290    291   1    112.7000    488.2728
    288    290    292   1    112.7000    488.2728
    288    290    303   1    110.7000    313.8000
    291    290    292   1    112.7000    488.2728
    291    290    303   1    110.7000    313.8000
    292    290    303   1    110.7000    313.8000
    290    291    304   1    110.7000    313.8000
    290    291    305   1    110.7000    313.8000
    290    291    310   1    109.5000    418.4000
    304    291    305   1    107.8000    276.1440
    304    291    310   1    109.5000    292.8800
    305    291    310   1    109.5000    292.8800
    290    292    293   1    112.7000    488.2728
    290    292    306   1    110.7000    313.8000
    290    292    307   1    110.7000    313.8000
    293    292    306   1    110.7000    313.8000
    293    292    307   1    110.7000    313.8000
    306    292    307   1    107.8000    276.1440
    286    293    292   1    112.7000    488.2728
    286    293    308   1    110.7000    313.8000
    286    293    309   1    110.7000    313.8000
    292    293    308   1    110.7000    313.8000
    292    293    309   1    110.7000    313.8000
    308    293    309   1    107.8000    276.1440
    291    310    311   1    109.5000    502.0800
    310    311    312   1    109.5000    418.4000
    310    311    322   1    109.5000    292.8800
    310    311    323   1    109.5000    292.8800
    312    311    322   1    110.7000    313.8000
    312    311    323   1    110.7000    313.8000
    322    311    323   1    107.8000    276.1440
    311    312    313   1    109.5000    418.4000
    311    312    314   1    112.7000    488.2728
    311    312    324   1    110.7000    313.8000
    313    312    314   1    109.5000    418.4000
    313    312    324   1    109.5000    292.8800
    314    312    324   1    110.7000    313.8000
    312    313    325   1    108.5000    460.2400
    312    314    315   1    112.7000    488.2728
    312    314    321   1    112.7000    488.2728
    312    314    326   1    110.7000    313.8000
    315    314    321   1    112.7000    488.2728
    315    314    326   1    110.7000    313.8000
    321    314    326   1    110.7000    313.8000
    314    315    316   1    112.7000    488.2728
    314    315    327   1    110.7000    313.8000
    314    315    328   1    110.7000    313.8000
    316    315    327   1    110.7000    313.8000
    316    315    328   1    110.7000    313.8000
    327    315    328   1    107.8000    276.1440
    315    316    317   1    109.5000    418.4000
    315    316    318   1    112.7000    488.2728
    315    316    329   1    110.7000    313.8000
    317    316    318   1    109.5000    418.4000
    317    316    329   1    109.5000    292.8800
    318    316    329   1    110.7000    313.8000
    316    317    330   1    108.5000    460.2400
    316    318    319   1    112.7000    488.2728
    316    318    320   1    112.7000    488.2728
    316    318    331   1    110.7000    313.8000
    319    318    320   1    112.7000    488.2728
    319    318    331   1    110.7000    313.8000
    320    318    331   1    110.7000    313.8000
    318    319    332   1    110.7000    313.8000
    318    319    333   1    110.7000    313.8000
    318    319    338   1    109.5000    418.4000
    332    319    333   1    107.8000    276.1440
    332    319    338   1    109.5000    292.8800
    333    319    338   1    109.5000    292.8800
    318    320    321   1    112.7000    488.2728
    318    320    334   1    110.7000    313.8000
    318    320    335   1    110.7000    313.8000
    321    320    334   1    110.7000    313.8000
    321    320    335   1    110.7000    313.8000
    334    320    335   1    107.8000    276.1440
    314    321    320   1    112.7000    488.2728
    314    321    336   1    110.7000    313.8000
    314    321    337   1    110.7000    313.8000
    320    321    336   1    110.7000    313.8000
    320    321    337   1    110.7000    313.8000
    336    321    337   1    107.8000    276.1440
    319    338    339   1    109.5000    502.0800
    338    339    340   1    109.5000    418.4000
    338    339    350   1    109.5000    292.8800
    338    339    351   1    109.5000    292.8800
    340    339    350   1    110.7000    313.8000
    340    339    351   1    110.7000    313.8000
    350    339    351   1    107.8000    276.1440
    339    340    341   1    109.5000    418.4000
    339    340    342   1    112.7000    488.2728
    339    340    352   1    110.7000    313.8000
    341    340    342   1    109.5000    418.4000
    341    340    352   1    109.5000    292.8800
    342    340    352   1    110.7000    313.8000
    340    341    353   1    108.5000    460.2400
    340    342    343   1    112.7000    488.2728
    340    342    349   1    112.7000    488.2728
    340    342    354   1    110.7000    313.8000
    343    342    349   1    112.7000    488.2728
    343    342    354   1    110.7000    313.8000
    349    342    354   1    110.7000    313.8000
    342    343    344   1    112.7000    488.2728
    342    343    355   1    110.7000    313.8000
    342    343    356   1    110.7000    313.8000
    344    343    355   1    110.7000    313.8000
    344    343    356   1    110.7000    313.8000
    355    343    356   1    107.8000    276.1440
    343    344    345   1    109.5000    418.4000
    343    344    346   1    112.7000    488.2728
    343    344    357   1    110.7000    313.8000
    345    344    346   1    109.5000    418.4000
    345    344    357   1    109.5000    292.8800
    346    344    357   1    110.7000    313.8000
    344    345    358   1    108.5000    460.2400
    344    346    347   1    112.7000    488.2728
    344    346    348   1    112.7000    488.2728
    344    346    359   1    110.7000    313.8000
    347    346    348   1    112.7000    488.2728
    347    346    359   1    110.7000    313.8000
    348    346    359   1    110.7000    313.8000
    346    347    360   1    110.7000    313.8000
    346    347    361   1    110.7000    313.8000
    346    347    366   1    109.5000    418.4000
    360    347    361   1    107.8000    276.1440
    360    347    366   1    109.5000    292.8800
    361    347    366   1    109.5000    292.8800
    346    348    349   1    112.7000    488.2728
    346    348    362   1    110.7000    313.8000
    346    348    363   1    110.7000    313.8000
    349    348    362   1    110.7000    313.8000
    349    348    363   1    110.7000    313.8000
    362    348    363   1    107.8000    276.1440
    342    349    348   1    112.7000    488.2728
    342    349    364   1    110.7000    313.8000
    342    349    365   1    110.7000    313.8000
    348    349    364   1    110.7000    313.8000
    348    349    365   1    110.7000    313.8000
    364    349    365   1    107.8000    276.1440
    347    366    367   1    109.5000    502.0800
    366    367    368   1    109.5000    418.4000
    366    367    378   1    109.5000    292.8800
    366    367    379   1    109.5000    292.8800
    368    367    378   1    110.7000    313.8000
    368    367    379   1    110.7000    313.8000
    378    367    379   1    107.8000    276.1440
    367    368    369   1    109.5000    418.4000
    367    368    370   1    112.7000    488.2728
    367    368    380   1    110.7000    313.8000
    369    368    370   1    109.5000    418.4000
    369    368    380   1    109.5000    292.8800
    370    368    380   1    110.7000    313.8000
    368    369    381   1    108.5000    460.2400
    368    370    371   1    112.7000    488.2728
    368    370    377   1    112.7000    488.2728
    368    370    382   1    110.7000    313.8000
    371    370    377   1    112.7000    488.2728
    371    370    382   1    110.7000    313.8000
    377    370    382   1    110.7000    313.8000
    370    371    372   1    112.7000    488.2728
    370    371    383   1    110.7000    313.8000
    370    371    384   1    110.7000    313.8000
    372    371    383   1    110.7000    313.8000
    372    371    384   1    110.7000    313.8000
    383    371    384   1    107.8000    276.1440
    371    372    373   1    109.5000    418.4000
    371    372    374   1    112.7000    488.2728
    371    372    385   1    110.7000    313.8000
    373    372    374   1    109.5000    418.4000
    373    372    385   1    109.5000    292.8800
    374    372    385   1    110.7000    313.8000
    372    373    386   1    108.5000    460.2400
    372    374    375   1    112.7000    488.2728
    372    374    376   1    112.7000    488.2728
    372    374    387   1    110.7000    313.8000
    375    374    376   1    112.7000    488.2728
    375    374    387   1    110.7000    313.8000
    376    374    387   1    110.7000    313.8000
    374    375    388   1    110.7000    313.8000
    374    375    389   1    110.7000    313.8000
    374    375    394   1    109.5000    418.4000
    388    375    389   1    107.8000    276.1440
    388    375    394   1    109.5000    292.8800
    389    375    394   1    109.5000    292.8800
    374    376    377   1    112.7000    488.2728
    374    376    390   1    110.7000    313.8000
    374    376    391   1    110.7000    313.8000
    377    376    390   1    110.7000    313.8000
    377    376    391   1    110.7000    313.8000
    390    376    391   1    107.8000    276.1440
    370    377    376   1    112.7000    488.2728
    370    377    392   1    110.7000    313.8000
    370    377    393   1    110.7000    313.8000
    376    377    392   1    110.7000    313.8000
    376    377    393   1    110.7000    313.8000
    392    377    393   1    107.8000    276.1440
    375    394    395   1    109.5000    502.0800
    394    395    396   1    109.5000    418.4000
    394    395    406   1    109.5000    292.8800
    394    395    407   1    109.5000    292.8800
    396    395    406   1    110.7000    313.8000
    396    395    407   1    110.7000    313.8000
    406    395    407   1    107.8000    276.1440
    395    396    397   1    109.5000    418.4000
    395    396    398   1    112.7000    488.2728
    395    396    408   1    110.7000    313.8000
    397    396    398   1    109.5000    418.4000
    397    396    408   1    109.5000    292.8800
    398    396    408   1    110.7000    313.8000
    396    397    409   1    108.5000    460.2400
    396    398    399   1    112.7000    488.2728
    396    398    405   1    112.7000    488.2728
    396    398    410   1    110.7000    313.8000
    399    398    405   1    112.7000    488.2728
    399    398    410   1    110.7000    313.8000
    405    398    410   1    110.7000    313.8000
    398    399    400   1    112.7000    488.2728
    398    399    411   1    110.7000    313.8000
    398    399    412   1    110.7000    313.8000
    400    399    411   1    110.7000    313.8000
    400    399    412   1    110.7000    313.8000
    411    399    412   1    107.8000    276.1440
    399    400    401   1    109.5000    418.4000
    399    400    402   1    112.7000    488.2728
    399    400    413   1    110.7000    313.8000
    401    400    402   1    109.5000    418.4000
    401    400    413   1    109.5000    292.8800
    402    400    413   1    110.7000    313.8000
    400    401    414   1    108.5000    460.2400
    400    402    403   1    112.7000    488.2728
    400    402    404   1    112.7000    488.2728
    400    402    415   1    110.7000    313.8000
    403    402    404   1    112.7000    488.2728
    403    402    415   1    110.7000    313.8000
    404    402    415   1    110.7000    313.8000
    402    403    416   1    110.7000    313.8000
    402    403    417   1    110.7000    313.8000
    402    403    422   1    109.5000    418.4000
    416    403    417   1    107.8000    276.1440
    416    403    422   1    109.5000    292.8800
    417    403    422   1    109.5000    292.8800
    402    404    405   1    112.7000    488.2728
    402    404    418   1    110.7000    313.8000
    402    404    419   1    110.7000    313.8000
    405    404    418   1    110.7000    313.8000
    405    404    419   1    110.7000    313.8000
    418    404    419   1    107.8000    276.1440
    398    405    404   1    112.7000    488.2728
    398    405    420   1    110.7000    313.8000
    398    405    421   1    110.7000    313.8000
    404    405    420   1    110.7000    313.8000
    404    405    421   1    110.7000    313.8000
    420    405    421   1    107.8000    276.1440
    403    422    423   1    109.5000    502.0800
    422    423    424   1    109.5000    418.4000
    422    423    434   1    109.5000    292.8800
    422    423    435   1    109.5000    292.8800
    424    423    434   1    110.7000    313.8000
    424    423    435   1    110.7000    313.8000
    434    423    435   1    107.8000    276.1440
    423    424    425   1    109.5000    418.4000
    423    424    426   1    112.7000    488.2728
    423    424    436   1    110.7000    313.8000
    425    424    426   1    109.5000    418.4000
    425    424    436   1    109.5000    292.8800
    426    424    436   1    110.7000    313.8000
    424    425    437   1    108.5000    460.2400
    424    426    427   1    112.7000    488.2728
    424    426    433   1    112.7000    488.2728
    424    426    438   1    110.7000    313.8000
    427    426    433   1    112.7000    488.2728
    427    426    438   1    110.7000    313.8000
    433    426    438   1    110.7000    313.8000
    426    427    428   1    112.7000    488.2728
    426    427    439   1    110.7000    313.8000
    426    427    440   1    110.7000    313.8000
    428    427    439   1    110.7000    313.8000
    428    427    440   1    110.7000    313.8000
    439    427    440   1    107.8000    276.1440
    427    428    429   1    109.5000    418.4000
    427    428    430   1    112.7000    488.2728
    427    428    441   1    110.7000    313.8000
    429    428    430   1    109.5000    418.4000
    429    428    441   1    109.5000    292.8800
    430    428    441   1    110.7000    313.8000
    428    429    442   1    108.5000    460.2400
    428    430    431   1    112.7000    488.2728
    428    430    432   1    112.7000    488.2728
    428    430    443   1    110.7000    313.8000
    431    430    432   1    112.7000    488.2728
    431    430    443   1    110.7000    313.8000
    432    430    443   1    110.7000    313.8000
    430    431    444   1    110.7000    313.8000
    430    431    445   1    110.7000    313.8000
    430    431    450   1    109.5000    418.4000
    444    431    445   1    107.8000    276.1440
    444    431    450   1    109.5000    292.8800
    445    431    450   1    109.5000    292.8800
    430    432    433   1    112.7000    488.2728
    430    432    446   1    110.7000    313.8000
    430    432    447   1    110.7000    313.8000
    433    432    446   1    110.7000    313.8000
    433    432    447   1    110.7000    313.8000
    446    432    447   1    107.8000    276.1440
    426    433    432   1    112.7000    488.2728
    426    433    448   1    110.7000    313.8000
    426    433    449   1    110.7000    313.8000
    432    433    448   1    110.7000    313.8000
    432    433    449   1    110.7000    313.8000
    448    433    449   1    107.8000    276.1440
    431    450    451   1    109.5000    502.0800
    450    451    452   1    109.5000    418.4000
    450    451    462   1    109.5000    292.8800
    450    451    463   1    109.5000    292.8800
    452    451    462   1    110.7000    313.8000
    452    451    463   1    110.7000    313.8000
    462    451    463   1    107.8000    276.1440
    451    452    453   1    109.5000    418.4000
    451    452    454   1    112.7000    488.2728
    451    452    464   1    110.7000    313.8000
    453    452    454   1    109.5000    418.4000
    453    452    464   1    109.5000    292.8800
    454    452    464   1    110.7000    313.8000
    452    453    465   1    108.5000    460.2400
    452    454    455   1    112.7000    488.2728
    452    454    461   1    112.7000    488.2728
    452    454    466   1    110.7000    313.8000
    455    454    461   1    112.7000    488.2728
    455    454    466   1    110.7000    313.8000
    461    454    466   1    110.7000    313.8000
    454    455    456   1    112.7000    488.2728
    454    455    467   1    110.7000    313.8000
    454    455    468   1    110.7000    313.8000
    456    455    467   1    110.7000    313.8000
    456    455    468   1    110.7000    313.8000
    467    455    468   1    107.8000    276.1440
    455    456    457   1    109.5000    418.4000
    455    456    458   1    112.7000    488.2728
    455    456    469   1    110.7000    313.8000
    457    456    458   1    109.5000    418.4000
    457    456    469   1    109.5000    292.8800
    458    456    469   1    110.7000    313.8000
    456    457    470   1    108.5000    460.2400
    456    458    459   1    112.7000    488.2728
    456    458    460   1    112.7000    488.2728
    456    458    471   1    110.7000    313.8000
    459    458    460   1    112.7000    488.2728
    459    458    471   1    110.7000    313.8000
    460    458    471   1    110.7000    313.8000
    458    459    472   1    110.7000    313.8000
    458    459    473   1    110.7000    313.8000
    458    459    478   1    109.5000    418.4000
    472    459    473   1    107.8000    276.1440
    472    459    478   1    109.5000    292.8800
    473    459    478   1    109.5000    292.8800
    458    460    461   1    112.7000    488.2728
    458    460    474   1    110.7000    313.8000
    458    460    475   1    110.7000    313.8000
    461    460    474   1    110.7000    313.8000
    461    460    475   1    110.7000    313.8000
    474    460    475   1    107.8000    276.1440
    454    461    460   1    112.7000    488.2728
    454    461    476   1    110.7000    313.8000
    454    461    477   1    110.7000    313.8000
    460    461    476   1    110.7000    313.8000
    460    461    477   1    110.7000    313.8000
    476    461    477   1    107.8000    276.1440
    459    478    479   1    109.5000    502.0800
    478    479    480   1    109.5000    418.4000
    478    479    490   1    109.5000    292.8800
    478    479    491   1    109.5000    292.8800
    480    479    490   1    110.7000    313.8000
    480    479    491   1    110.7000    313.8000
    490    479    491   1    107.8000    276.1440
    479    480    481   1    109.5000    418.4000
    479    480    482   1    112.7000    488.2728
    479    480    492   1    110.7000    313.8000
    481    480    482   1    109.5000    418.4000
    481    480    492   1    109.5000    292.8800
    482    480    492   1    110.7000    313.8000
    480    481    493   1    108.5000    460.2400
    480    482    483   1    112.7000    488.2728
    480    482    489   1    112.7000    488.2728
    480    482    494   1    110.7000    313.8000
    483    482    489   1    112.7000    488.2728
    483    482    494   1    110.7000    313.8000
    489    482    494   1    110.7000    313.8000
    482    483    484   1    112.7000    488.2728
    482    483    495   1    110.7000    313.8000
    482    483    496   1    110.7000    313.8000
    484    483    495   1    110.7000    313.8000
    484    483    496   1    110.7000    313.8000
    495    483    496   1    107.8000    276.1440
    483    484    485   1    109.5000    418.4000
    483    484    486   1    112.7000    488.2728
    483    484    497   1    110.7000    313.8000
    485    484    486   1    109.5000    418.4000
    485    484    497   1    109.5000    292.8800
    486    484    497   1    110.7000    313.8000
    484    485    498   1    108.5000    460.2400
    484    486    487   1    112.7000    488.2728
    484    486    488   1    112.7000    488.2728
    484    486    499   1    110.7000    313.8000
    487    486    488   1    112.7000    488.2728
    487    486    499   1    110.7000    313.8000
    488    486    499   1    110.7000    313.8000
    486    487    500   1    110.7000    313.8000
    486    487    501   1    110.7000    313.8000
    486    487    506   1    109.5000    418.4000
    500    487    501   1    107.8000    276.1440
    500    487    506   1    109.5000    292.8800
    501    487    506   1    109.5000    292.8800
    486    488    489   1    112.7000    488.2728
    486    488    502   1    110.7000    313.8000
    486    488    503   1    110.7000    313.8000
    489    488    502   1    110.7000    313.8000
    489    488    503   1    110.7000    313.8000
    502    488    503   1    107.8000    276.1440
    482    489    488   1    112.7000    488.2728
    482    489    504   1    110.7000    313.8000
    482    489    505   1    110.7000    313.8000
    488    489    504   1    110.7000    313.8000
    488    489    505   1    110.7000    313.8000
    504    489    505   1    107.8000    276.1440
    487    506    507   1    109.5000    502.0800
    506    507    508   1    109.5000    418.4000
    506    507    518   1    109.5000    292.8800
    506    507    519   1    109.5000    292.8800
    508    507    518   1    110.7000    313.8000
    508    507    519   1    110.7000    313.8000
    518    507    519   1    107.8000    276.1440
    507    508    509   1    109.5000    418.4000
    507    508    510   1    112.7000    488.2728
    507    508    520   1    110.7000    313.8000
    509    508    510   1    109.5000    418.4000
    509    508    520   1    109.5000    292.8800
    510    508    520   1    110.7000    313.8000
    508    509    521   1    108.5000    460.2400
    508    510    511   1    112.7000    488.2728
    508    510    517   1    112.7000    488.2728
    508    510    522   1    110.7000    313.8000
    511    510    517   1    112.7000    488.2728
    511    510    522   1    110.7000    313.8000
    517    510    522   1    110.7000    313.8000
    510    511    512   1    112.7000    488.2728
    510    511    523   1    110.7000    313.8000
    510    511    524   1    110.7000    313.8000
    512    511    523   1    110.7000    313.8000
    512    511    524   1    110.7000    313.8000
    523    511    524   1    107.8000    276.1440
    511    512    513   1    109.5000    418.4000
    511    512    514   1    112.7000    488.2728
    511    512    525   1    110.7000    313.8000
    513    512    514   1    109.5000    418.4000
    513    512    525   1    109.5000    292.8800
    514    512    525   1    110.7000    313.8000
    512    513    526   1    108.5000    460.2400
    512    514    515   1    112.7000    488.2728
    512    514    516   1    112.7000    488.2728
    512    514    527   1    110.7000    313.8000
    515    514    516   1    112.7000    488.2728
    515    514    527   1    110.7000    313.8000
    516    514    527   1    110.7000    313.8000
    514    515    528   1    110.7000    313.8000
    514    515    529   1    110.7000    313.8000
    514    515    534   1    109.5000    418.4000
    528    515    529   1    107.8000    276.1440
    528    515    534   1    109.5000    292.8800
    529    515    534   1    109.5000    292.8800
    514    516    517   1    112.7000    488.2728
    514    516    530   1    110.7000    313.8000
    514    516    531   1    110.7000    313.8000
    517    516    530   1    110.7000    313.8000
    517    516    531   1    110.7000    313.8000
    530    516    531   1    107.8000    276.1440
    510    517    516   1    112.7000    488.2728
    510    517    532   1    110.7000    313.8000
    510    517    533   1    110.7000    313.8000
    516    517    532   1    110.7000    313.8000
    516    517    533   1    110.7000    313.8000
    532    517    533   1    107.8000    276.1440
    515    534    535   1    109.5000    502.0800
    534    535    536   1    109.5000    418.4000
    534    535    546   1    109.5000    292.8800
    534    535    547   1    109.5000    292.8800
    536    535    546   1    110.7000    313.8000
    536    535    547   1    110.7000    313.8000
    546    535    547   1    107.8000    276.1440
    535    536    537   1    109.5000    418.4000
    535    536    538   1    112.7000    488.2728
    535    536    548   1    110.7000    313.8000
    537    536    538   1    109.5000    418.4000
    537    536    548   1    109.5000    292.8800
    538    536    548   1    110.7000    313.8000
    536    537    549   1    108.5000    460.2400
    536    538    539   1    112.7000    488.2728
    536    538    545   1    112.7000    488.2728
    536    538    550   1    110.7000    313.8000
    539    538    545   1    112.7000    488.2728
    539    538    550   1    110.7000    313.8000
    545    538    550   1    110.7000    313.8000
    538    539    540   1    112.7000    488.2728
    538    539    551   1    110.7000    313.8000
    538    539    552   1    110.7000    313.8000
    540    539    551   1    110.7000    313.8000
    540    539    552   1    110.7000    313.8000
    551    539    552   1    107.8000    276.1440
    539    540    541   1    109.5000    418.4000
    539    540    542   1    112.7000    488.2728
    539    540    553   1    110.7000    313.8000
    541    540    542   1    109.5000    418.4000
    541    540    553   1    109.5000    292.8800
    542    540    553   1    110.7000    313.8000
    540    541    554   1    108.5000    460.2400
    540    542    543   1    112.7000    488.2728
    540    542    544   1    112.7000    488.2728
    540    542    555   1    110.7000    313.8000
    543    542    544   1    112.7000    488.2728
    543    542    555   1    110.7000    313.8000
    544    542    555   1    110.7000    313.8000
    542    543    556   1    110.7000    313.8000
    542    543    557   1    110.7000    313.8000
    542    543    562   1    110.7000    313.8000
    556    543    557   1    107.8000    276.1440
    556    543    562   1    107.8000    276.1440
    557    543    562   1    107.8000    276.1440
    542    544    545   1    112.7000    488.2728
    542    544    558   1    110.7000    313.8000
    542    544    559   1    110.7000    313.8000
    545    544    558   1    110.7000    313.8000
    545    544    559   1    110.7000    313.8000
    558    544    559   1    107.8000    276.1440
    538    545    544   1    112.7000    488.2728
    538    545    560   1    110.7000    313.8000
    538    545    561   1    110.7000    313.8000
    544    545    560   1    110.7000    313.8000
    544    545    561   1    110.7000    313.8000
    560    545    561   1    107.8000    276.1440

[ dihedrals ]
; Proper dihedrals
     29      1      2      3   5    -0.97069    -0.79078     1.77820  0.0
     29      1      2     13   5     0.00000     0.00000     1.62758  0.0
     29      1      2     14   5     0.00000     0.00000     1.62758  0.0
      1      2      3      4   5    31.41766     0.00000     0.00000  0.0
      1      2      3      5   5     7.23832    -1.46440     1.74054  0.0
      1      2      3     15   5     0.00000     0.00000     1.95811  0.0
     13      2      3      4   5     0.00000     0.00000     1.95811  0.0
     13      2      3      5   5     0.00000     0.00000     1.25520  0.0
     13      2      3     15   5     0.00000     0.00000     1.25520  0.0
     14      2      3      4   5     0.00000     0.00000     1.95811  0.0
     14      2      3      5   5     0.00000     0.00000     1.25520  0.0
     14      2      3     15   5     0.00000     0.00000     1.25520  0.0
      2      3      4     16   5    -0.97069    -0.79078     1.77820  0.0
      5      3      4     16   5    -0.97069    -0.79078     1.77820  0.0
     15      3      4     16   5     0.00000     0.00000     1.62758  0.0
      2      3      5      6   5     4.74884    -0.63178     1.67360  0.0
      2      3      5     12   5     4.74884    -0.63178     1.67360  0.0
      2      3      5     17   5     0.00000     0.00000     1.25520  0.0
      4      3      5      6   5     7.23832    -1.46440     1.74054  0.0
      4      3      5     12   5     7.23832    -1.46440     1.74054  0.0
      4      3      5     17   5     0.00000     0.00000     1.95811  0.0
     15      3      5      6   5     0.00000     0.00000     1.25520  0.0
     15      3      5     12   5     0.00000     0.00000     1.25520  0.0
     15      3      5     17   5     0.00000     0.00000     1.25520  0.0
      3      5      6      7   5     4.74884    -0.63178     1.67360  0.0
      3      5      6     18   5     0.00000     0.00000     1.25520  0.0
      3      5      6     19   5     0.00000     0.00000     1.25520  0.0
     12      5      6      7   5     4.74884    -0.63178     1.67360  0.0
     12      5      6     18   5     0.00000     0.00000     1.25520  0.0
     12      5      6     19   5     0.00000     0.00000     1.25520  0.0
     17      5      6      7   5     0.00000     0.00000     1.25520  0.0
     17      5      6     18   5     0.00000     0.00000     1.25520  0.0
     17      5      6     19   5     0.00000     0.00000     1.25520  0.0
      3      5     12     11   5     4.74884    -0.63178     1.67360  0.0
      3      5     12     27   5     0.00000     0.00000     1.25520  0.0
      3      5     12     28   5     0.00000     0.00000     1.25520  0.0
      6      5     12     11   5     4.74884    -0.63178     1.67360  0.0
      6      5     12     27   5     0.00000     0.00000     1.25520  0.0
      6      5     12     28   5     0.00000     0.00000     1.25520  0.0
     17      5     12     11   5     0.00000     0.00000     1.25520  0.0
     17      5     12     27   5     0.00000     0.00000     1.25520  0.0
     17      5     12     28   5     0.00000     0.00000     1.25520  0.0
      5      6      7      8   5     7.23832    -1.46440     1.74054  0.0
      5      6      7      9   5     4.74884    -0.63178     1.67360  0.0
      5      6      7     20   5     0.00000     0.00000     1.25520  0.0
     18      6      7      8   5     0.00000     0.00000     1.95811  0.0
     18      6      7      9   5     0.00000     0.00000     1.25520  0.0
     18      6      7     20   5     0.00000     0.00000     1.25520  0.0
     19      6      7      8   5     0.00000     0.00000     1.95811  0.0
     19      6      7      9   5     0.00000     0.00000     1.25520  0.0
     19      6      7     20   5     0.00000     0.00000     1.25520  0.0
      6      7      8     21   5    -0.97069    -0.79078     1.77820  0.0
      9      7      8     21   5    -0.97069    -0.79078     1.77820  0.0
     20      7      8     21   5     0.00000     0.00000     1.62758  0.0
      6      7      9     10   5     4.74884    -0.63178     1.67360  0.0
      6      7      9     11   5     4.74884    -0.63178     1.67360  0.0
      6      7      9     22   5     0.00000     0.00000     1.25520  0.0
      8      7      9     10   5     7.23832    -1.46440     1.74054  0.0
      8      7      9     11   5     7.23832    -1.46440     1.74054  0.0
      8      7      9     22   5     0.00000     0.00000     1.95811  0.0
     20      7      9     10   5     0.00000     0.00000     1.25520  0.0
     20      7      9     11   5     0.00000     0.00000     1.25520  0.0
     20      7      9     22   5     0.00000     0.00000     1.25520  0.0
      7      9     10     23   5     0.00000     0.00000     1.25520  0.0
      7      9     10     24   5     0.00000     0.00000     1.25520  0.0
      7      9     10     30   5     5.25092    -2.58990     2.28446  0.0
     11      9     10     23   5     0.00000     0.00000     1.25520  0.0
     11      9     10     24   5     0.00000     0.00000     1.25520  0.0
     11      9     10     30   5     5.25092    -2.58990     2.28446  0.0
     22      9     10     23   5     0.00000     0.00000     1.25520  0.0
     22      9     10     24   5     0.00000     0.00000     1.25520  0.0
     22      9     10     30   5     0.00000     0.00000     1.95811  0.0
      7      9     11     12   5     4.74884    -0.63178     1.67360  0.0
      7      9     11     25   5     0.00000     0.00000     1.25520  0.0
      7      9     11     26   5     0.00000     0.00000     1.25520  0.0
     10      9     11     12   5     4.74884    -0.63178     1.67360  0.0
     10      9     11     25   5     0.00000     0.00000     1.25520  0.0
     10      9     11     26   5     0.00000     0.00000     1.25520  0.0
     22      9     11     12   5     0.00000     0.00000     1.25520  0.0
     22      9     11     25   5     0.00000     0.00000     1.25520  0.0
     22      9     11     26   5     0.00000     0.00000     1.25520  0.0
      9     10     30     31   5     0.52300    -0.09205     2.34722  0.0
     23     10     30     31   5     0.00000     0.00000     3.10034  0.0
     24     10     30     31   5     0.00000     0.00000     3.10034  0.0
      9     11     12      5   5     4.74884    -0.63178     1.67360  0.0
      9     11     12     27   5     0.00000     0.00000     1.25520  0.0
      9     11     12     28   5     0.00000     0.00000     1.25520  0.0
     25     11     12      5   5     0.00000     0.00000     1.25520  0.0
     25     11     12     27   5     0.00000     0.00000     1.25520  0.0
     25     11     12     28   5     0.00000     0.00000     1.25520  0.0
     26     11     12      5   5     0.00000     0.00000     1.25520  0.0
     26     11     12     27   5     0.00000     0.00000     1.25520  0.0
     26     11     12     28   5     0.00000     0.00000     1.25520  0.0
     10     30     31     32   5     0.52300    -0.09205     2.34722  0.0
     10     30     31     42   5     0.00000     0.00000     3.10034  0.0
     10     30     31     43   5     0.00000     0.00000     3.10034  0.0
     30     31     32     33   5    30.90721   -15.30926     0.00000  0.0
     30     31     32     34   5     5.25092    -2.58990     2.28446  0.0
     30     31     32     44   5     0.00000     0.00000     1.95811  0.0
     42     31     32     33   5     0.00000     0.00000     1.95811  0.0
     42     31     32     34   5     0.00000     0.00000     1.25520  0.0
     42     31     32     44   5     0.00000     0.00000     1.25520  0.0
     43     31     32     33   5     0.00000     0.00000     1.95811  0.0
     43     31     32     34   5     0.00000     0.00000     1.25520  0.0
     43     31     32     44   5     0.00000     0.00000     1.25520  0.0
     31     32     33     45   5    -0.97069    -0.79078     1.77820  0.0
     34     32     33     45   5    -0.97069    -0.79078     1.77820  0.0
     44     32     33     45   5     0.00000     0.00000     1.62758  0.0
     31     32     34     35   5     4.74884    -0.63178     1.67360  0.0
     31     32     34     41   5     4.74884    -0.63178     1.67360  0.0
     31     32     34     46   5     0.00000     0.00000     1.25520  0.0
     33     32     34     35   5     7.23832    -1.46440     1.74054  0.0
     33     32     34     41   5     7.23832    -1.46440     1.74054  0.0
     33     32     34     46   5     0.00000     0.00000     1.95811  0.0
     44     32     34     35   5     0.00000     0.00000     1.25520  0.0
     44     32     34     41   5     0.00000     0.00000     1.25520  0.0
     44     32     34     46   5     0.00000     0.00000     1.25520  0.0
     32     34     35     36   5     4.74884    -0.63178     1.67360  0.0
     32     34     35     47   5     0.00000     0.00000     1.25520  0.0
     32     34     35     48   5     0.00000     0.00000     1.25520  0.0
     41     34     35     36   5     4.74884    -0.63178     1.67360  0.0
     41     34     35     47   5     0.00000     0.00000     1.25520  0.0
     41     34     35     48   5     0.00000     0.00000     1.25520  0.0
     46     34     35     36   5     0.00000     0.00000     1.25520  0.0
     46     34     35     47   5     0.00000     0.00000     1.25520  0.0
     46     34     35     48   5     0.00000     0.00000     1.25520  0.0
     32     34     41     40   5     4.74884    -0.63178     1.67360  0.0
     32     34     41     56   5     0.00000     0.00000     1.25520  0.0
     32     34     41     57   5     0.00000     0.00000     1.25520  0.0
     35     34     41     40   5     4.74884    -0.63178     1.67360  0.0
     35     34     41     56   5     0.00000     0.00000     1.25520  0.0
     35     34     41     57   5     0.00000     0.00000     1.25520  0.0
     46     34     41     40   5     0.00000     0.00000     1.25520  0.0
     46     34     41     56   5     0.00000     0.00000     1.25520  0.0
     46     34     41     57   5     0.00000     0.00000     1.25520  0.0
     34     35     36     37   5     7.23832    -1.46440     1.74054  0.0
     34     35     36     38   5     4.74884    -0.63178     1.67360  0.0
     34     35     36     49   5     0.00000     0.00000     1.25520  0.0
     47     35     36     37   5     0.00000     0.00000     1.95811  0.0
     47     35     36     38   5     0.00000     0.00000     1.25520  0.0
     47     35     36     49   5     0.00000     0.00000     1.25520  0.0
     48     35     36     37   5     0.00000     0.00000     1.95811  0.0
     48     35     36     38   5     0.00000     0.00000     1.25520  0.0
     48     35     36     49   5     0.00000     0.00000     1.25520  0.0
     35     36     37     50   5    -0.97069    -0.79078     1.77820  0.0
     38     36     37     50   5    -0.97069    -0.79078     1.77820  0.0
     49     36     37     50   5     0.00000     0.00000     1.62758  0.0
     35     36     38     39   5     4.74884    -0.63178     1.67360  0.0
     35     36     38     40   5     4.74884    -0.63178     1.67360  0.0
     35     36     38     51   5     0.00000     0.00000     1.25520  0.0
     37     36     38     39   5     7.23832    -1.46440     1.74054  0.0
     37     36     38     40   5     7.23832    -1.46440     1.74054  0.0
     37     36     38     51   5     0.00000     0.00000     1.95811  0.0
     49     36     38     39   5     0.00000     0.00000     1.25520  0.0
     49     36     38     40   5     0.00000     0.00000     1.25520  0.0
     49     36     38     51   5     0.00000     0.00000     1.25520  0.0
     36     38     39     52   5     0.00000     0.00000     1.25520  0.0
     36     38     39     53   5     0.00000     0.00000     1.25520  0.0
     36     38     39     58   5     5.25092    -2.58990     2.28446  0.0
     40     38     39     52   5     0.00000     0.00000     1.25520  0.0
     40     38     39     53   5     0.00000     0.00000     1.25520  0.0
     40     38     39     58   5     5.25092    -2.58990     2.28446  0.0
     51     38     39     52   5     0.00000     0.00000     1.25520  0.0
     51     38     39     53   5     0.00000     0.00000     1.25520  0.0
     51     38     39     58   5     0.00000     0.00000     1.95811  0.0
     36     38     40     41   5     4.74884    -0.63178     1.67360  0.0
     36     38     40     54   5     0.00000     0.00000     1.25520  0.0
     36     38     40     55   5     0.00000     0.00000     1.25520  0.0
     39     38     40     41   5     4.74884    -0.63178     1.67360  0.0
     39     38     40     54   5     0.00000     0.00000     1.25520  0.0
     39     38     40     55   5     0.00000     0.00000     1.25520  0.0
     51     38     40     41   5     0.00000     0.00000     1.25520  0.0
     51     38     40     54   5     0.00000     0.00000     1.25520  0.0
     51     38     40     55   5     0.00000     0.00000     1.25520  0.0
     38     39     58     59   5     0.52300    -0.09205     2.34722  0.0
     52     39     58     59   5     0.00000     0.00000     3.10034  0.0
     53     39     58     59   5     0.00000     0.00000     3.10034  0.0
     38     40     41     34   5     4.74884    -0.63178     1.67360  0.0
     38     40     41     56   5     0.00000     0.00000     1.25520  0.0
     38     40     41     57   5     0.00000     0.00000     1.25520  0.0
     54     40     41     34   5     0.00000     0.00000     1.25520  0.0
     54     40     41     56   5     0.00000     0.00000     1.25520  0.0
     54     40     41     57   5     0.00000     0.00000     1.25520  0.0
     55     40     41     34   5     0.00000     0.00000     1.25520  0.0
     55     40     41     56   5     0.00000     0.00000     1.25520  0.0
     55     40     41     57   5     0.00000     0.00000     1.25520  0.0
     39     58     59     60   5     0.52300    -0.09205     2.34722  0.0
     39     58     59     70   5     0.00000     0.00000     3.10034  0.0
     39     58     59     71   5     0.00000     0.00000     3.10034  0.0
     58     59     60     61   5    30.90721   -15.30926     0.00000  0.0
     58     59     60     62   5     5.25092    -2.58990     2.28446  0.0
     58     59     60     72   5     0.00000     0.00000     1.95811  0.0
     70     59     60     61   5     0.00000     0.00000     1.95811  0.0
     70     59     60     62   5     0.00000     0.00000     1.25520  0.0
     70     59     60     72   5     0.00000     0.00000     1.25520  0.0
     71     59     60     61   5     0.00000     0.00000     1.95811  0.0
     71     59     60     62   5     0.00000     0.00000     1.25520  0.0
     71     59     60     72   5     0.00000     0.00000     1.25520  0.0
     59     60     61     73   5    -0.97069    -0.79078     1.77820  0.0
     62     60     61     73   5    -0.97069    -0.79078     1.77820  0.0
     72     60     61     73   5     0.00000     0.00000     1.62758  0.0
     59     60     62     63   5     4.74884    -0.63178     1.67360  0.0
     59     60     62     69   5     4.74884    -0.63178     1.67360  0.0
     59     60     62     74   5     0.00000     0.00000     1.25520  0.0
     61     60     62     63   5     7.23832    -1.46440     1.74054  0.0
     61     60     62     69   5     7.23832    -1.46440     1.74054  0.0
     61     60     62     74   5     0.00000     0.00000     1.95811  0.0
     72     60     62     63   5     0.00000     0.00000     1.25520  0.0
     72     60     62     69   5     0.00000     0.00000     1.25520  0.0
     72     60     62     74   5     0.00000     0.00000     1.25520  0.0
     60     62     63     64   5     4.74884    -0.63178     1.67360  0.0
     60     62     63     75   5     0.00000     0.00000     1.25520  0.0
     60     62     63     76   5     0.00000     0.00000     1.25520  0.0
     69     62     63     64   5     4.74884    -0.63178     1.67360  0.0
     69     62     63     75   5     0.00000     0.00000     1.25520  0.0
     69     62     63     76   5     0.00000     0.00000     1.25520  0.0
     74     62     63     64   5     0.00000     0.00000     1.25520  0.0
     74     62     63     75   5     0.00000     0.00000     1.25520  0.0
     74     62     63     76   5     0.00000     0.00000     1.25520  0.0
     60     62     69     68   5     4.74884    -0.63178     1.67360  0.0
     60     62     69     84   5     0.00000     0.00000     1.25520  0.0
     60     62     69     85   5     0.00000     0.00000     1.25520  0.0
     63     62     69     68   5     4.74884    -0.63178     1.67360  0.0
     63     62     69     84   5     0.00000     0.00000     1.25520  0.0
     63     62     69     85   5     0.00000     0.00000     1.25520  0.0
     74     62     69     68   5     0.00000     0.00000     1.25520  0.0
     74     62     69     84   5     0.00000     0.00000     1.25520  0.0
     74     62     69     85   5     0.00000     0.00000     1.25520  0.0
     62     63     64     65   5     7.23832    -1.46440     1.74054  0.0
     62     63     64     66   5     4.74884    -0.63178     1.67360  0.0
     62     63     64     77   5     0.00000     0.00000     1.25520  0.0
     75     63     64     65   5     0.00000     0.00000     1.95811  0.0
     75     63     64     66   5     0.00000     0.00000     1.25520  0.0
     75     63     64     77   5     0.00000     0.00000     1.25520  0.0
     76     63     64     65   5     0.00000     0.00000     1.95811  0.0
     76     63     64     66   5     0.00000     0.00000     1.25520  0.0
     76     63     64     77   5     0.00000     0.00000     1.25520  0.0
     63     64     65     78   5    -0.97069    -0.79078     1.77820  0.0
     66     64     65     78   5    -0.97069    -0.79078     1.77820  0.0
     77     64     65     78   5     0.00000     0.00000     1.62758  0.0
     63     64     66     67   5     4.74884    -0.63178     1.67360  0.0
     63     64     66     68   5     4.74884    -0.63178     1.67360  0.0
     63     64     66     79   5     0.00000     0.00000     1.25520  0.0
     65     64     66     67   5     7.23832    -1.46440     1.74054  0.0
     65     64     66     68   5     7.23832    -1.46440     1.74054  0.0
     65     64     66     79   5     0.00000     0.00000     1.95811  0.0
     77     64     66     67   5     0.00000     0.00000     1.25520  0.0
     77     64     66     68   5     0.00000     0.00000     1.25520  0.0
     77     64     66     79   5     0.00000     0.00000     1.25520  0.0
     64     66     67     80   5     0.00000     0.00000     1.25520  0.0
     64     66     67     81   5     0.00000     0.00000     1.25520  0.0
     64     66     67     86   5     5.25092    -2.58990     2.28446  0.0
     68     66     67     80   5     0.00000     0.00000     1.25520  0.0
     68     66     67     81   5     0.00000     0.00000     1.25520  0.0
     68     66     67     86   5     5.25092    -2.58990     2.28446  0.0
     79     66     67     80   5     0.00000     0.00000     1.25520  0.0
     79     66     67     81   5     0.00000     0.00000     1.25520  0.0
     79     66     67     86   5     0.00000     0.00000     1.95811  0.0
     64     66     68     69   5     4.74884    -0.63178     1.67360  0.0
     64     66     68     82   5     0.00000     0.00000     1.25520  0.0
     64     66     68     83   5     0.00000     0.00000     1.25520  0.0
     67     66     68     69   5     4.74884    -0.63178     1.67360  0.0
     67     66     68     82   5     0.00000     0.00000     1.25520  0.0
     67     66     68     83   5     0.00000     0.00000     1.25520  0.0
     79     66     68     69   5     0.00000     0.00000     1.25520  0.0
     79     66     68     82   5     0.00000     0.00000     1.25520  0.0
     79     66     68     83   5     0.00000     0.00000     1.25520  0.0
     66     67     86     87   5     0.52300    -0.09205     2.34722  0.0
     80     67     86     87   5     0.00000     0.00000     3.10034  0.0
     81     67     86     87   5     0.00000     0.00000     3.10034  0.0
     66     68     69     62   5     4.74884    -0.63178     1.67360  0.0
     66     68     69     84   5     0.00000     0.00000     1.25520  0.0
     66     68     69     85   5     0.00000     0.00000     1.25520  0.0
     82     68     69     62   5     0.00000     0.00000     1.25520  0.0
     82     68     69     84   5     0.00000     0.00000     1.25520  0.0
     82     68     69     85   5     0.00000     0.00000     1.25520  0.0
     83     68     69     62   5     0.00000     0.00000     1.25520  0.0
     83     68     69     84   5     0.00000     0.00000     1.25520  0.0
     83     68     69     85   5     0.00000     0.00000     1.25520  0.0
     67     86     87     88   5     0.52300    -0.09205     2.34722  0.0
     67     86     87     98   5     0.00000     0.00000     3.10034  0.0
     67     86     87     99   5     0.00000     0.00000     3.10034  0.0
     86     87     88     89   5    30.90721   -15.30926     0.00000  0.0
     86     87     88     90   5     5.25092    -2.58990     2.28446  0.0
     86     87     88    100   5     0.00000     0.00000     1.95811  0.0
     98     87     88     89   5     0.00000     0.00000     1.95811  0.0
     98     87     88     90   5     0.00000     0.00000     1.25520  0.0
     98     87     88    100   5     0.00000     0.00000     1.25520  0.0
     99     87     88     89   5     0.00000     0.00000     1.95811  0.0
     99     87     88     90   5     0.00000     0.00000     1.25520  0.0
     99     87     88    100   5     0.00000     0.00000     1.25520  0.0
     87     88     89    101   5    -0.97069    -0.79078     1.77820  0.0
     90     88     89    101   5    -0.97069    -0.79078     1.77820  0.0
    100     88     89    101   5     0.00000     0.00000     1.62758  0.0
     87     88     90     91   5     4.74884    -0.63178     1.67360  0.0
     87     88     90     97   5     4.74884    -0.63178     1.67360  0.0
     87     88     90    102   5     0.00000     0.00000     1.25520  0.0
     89     88     90     91   5     7.23832    -1.46440     1.74054  0.0
     89     88     90     97   5     7.23832    -1.46440     1.74054  0.0
     89     88     90    102   5     0.00000     0.00000     1.95811  0.0
    100     88     90     91   5     0.00000     0.00000     1.25520  0.0
    100     88     90     97   5     0.00000     0.00000     1.25520  0.0
    100     88     90    102   5     0.00000     0.00000     1.25520  0.0
     88     90     91     92   5     4.74884    -0.63178     1.67360  0.0
     88     90     91    103   5     0.00000     0.00000     1.25520  0.0
     88     90     91    104   5     0.00000     0.00000     1.25520  0.0
     97     90     91     92   5     4.74884    -0.63178     1.67360  0.0
     97     90     91    103   5     0.00000     0.00000     1.25520  0.0
     97     90     91    104   5     0.00000     0.00000     1.25520  0.0
    102     90     91     92   5     0.00000     0.00000     1.25520  0.0
    102     90     91    103   5     0.00000     0.00000     1.25520  0.0
    102     90     91    104   5     0.00000     0.00000     1.25520  0.0
     88     90     97     96   5     4.74884    -0.63178     1.67360  0.0
     88     90     97    112   5     0.00000     0.00000     1.25520  0.0
     88     90     97    113   5     0.00000     0.00000     1.25520  0.0
     91     90     97     96   5     4.74884    -0.63178     1.67360  0.0
     91     90     97    112   5     0.00000     0.00000     1.25520  0.0
     91     90     97    113   5     0.00000     0.00000     1.25520  0.0
    102     90     97     96   5     0.00000     0.00000     1.25520  0.0
    102     90     97    112   5     0.00000     0.00000     1.25520  0.0
    102     90     97    113   5     0.00000     0.00000     1.25520  0.0
     90     91     92     93   5     7.23832    -1.46440     1.74054  0.0
     90     91     92     94   5     4.74884    -0.63178     1.67360  0.0
     90     91     92    105   5     0.00000     0.00000     1.25520  0.0
    103     91     92     93   5     0.00000     0.00000     1.95811  0.0
    103     91     92     94   5     0.00000     0.00000     1.25520  0.0
    103     91     92    105   5     0.00000     0.00000     1.25520  0.0
    104     91     92     93   5     0.00000     0.00000     1.95811  0.0
    104     91     92     94   5     0.00000     0.00000     1.25520  0.0
    104     91     92    105   5     0.00000     0.00000     1.25520  0.0
     91     92     93    106   5    -0.97069    -0.79078     1.77820  0.0
     94     92     93    106   5    -0.97069    -0.79078     1.77820  0.0
    105     92     93    106   5     0.00000     0.00000     1.62758  0.0
     91     92     94     95   5     4.74884    -0.63178     1.67360  0.0
     91     92     94     96   5     4.74884    -0.63178     1.67360  0.0
     91     92     94    107   5     0.00000     0.00000     1.25520  0.0
     93     92     94     95   5     7.23832    -1.46440     1.74054  0.0
     93     92     94     96   5     7.23832    -1.46440     1.74054  0.0
     93     92     94    107   5     0.00000     0.00000     1.95811  0.0
    105     92     94     95   5     0.00000     0.00000     1.25520  0.0
    105     92     94     96   5     0.00000     0.00000     1.25520  0.0
    105     92     94    107   5     0.00000     0.00000     1.25520  0.0
     92     94     95    108   5     0.00000     0.00000     1.25520  0.0
     92     94     95    109   5     0.00000     0.00000     1.25520  0.0
     92     94     95    114   5     5.25092    -2.58990     2.28446  0.0
     96     94     95    108   5     0.00000     0.00000     1.25520  0.0
     96     94     95    109   5     0.00000     0.00000     1.25520  0.0
     96     94     95    114   5     5.25092    -2.58990     2.28446  0.0
    107     94     95    108   5     0.00000     0.00000     1.25520  0.0
    107     94     95    109   5     0.00000     0.00000     1.25520  0.0
    107     94     95    114   5     0.00000     0.00000     1.95811  0.0
     92     94     96     97   5     4.74884    -0.63178     1.67360  0.0
     92     94     96    110   5     0.00000     0.00000     1.25520  0.0
     92     94     96    111   5     0.00000     0.00000     1.25520  0.0
     95     94     96     97   5     4.74884    -0.63178     1.67360  0.0
     95     94     96    110   5     0.00000     0.00000     1.25520  0.0
     95     94     96    111   5     0.00000     0.00000     1.25520  0.0
    107     94     96     97   5     0.00000     0.00000     1.25520  0.0
    107     94     96    110   5     0.00000     0.00000     1.25520  0.0
    107     94     96    111   5     0.00000     0.00000     1.25520  0.0
     94     95    114    115   5     0.52300    -0.09205     2.34722  0.0
    108     95    114    115   5     0.00000     0.00000     3.10034  0.0
    109     95    114    115   5     0.00000     0.00000     3.10034  0.0
     94     96     97     90   5     4.74884    -0.63178     1.67360  0.0
     94     96     97    112   5     0.00000     0.00000     1.25520  0.0
     94     96     97    113   5     0.00000     0.00000     1.25520  0.0
    110     96     97     90   5     0.00000     0.00000     1.25520  0.0
    110     96     97    112   5     0.00000     0.00000     1.25520  0.0
    110     96     97    113   5     0.00000     0.00000     1.25520  0.0
    111     96     97     90   5     0.00000     0.00000     1.25520  0.0
    111     96     97    112   5     0.00000     0.00000     1.25520  0.0
    111     96     97    113   5     0.00000     0.00000     1.25520  0.0
     95    114    115    116   5     0.52300    -0.09205     2.34722  0.0
     95    114    115    126   5     0.00000     0.00000     3.10034  0.0
     95    114    115    127   5     0.00000     0.00000     3.10034  0.0
    114    115    116    117   5    30.90721   -15.30926     0.00000  0.0
    114    115    116    118   5     5.25092    -2.58990     2.28446  0.0
    114    115    116    128   5     0.00000     0.00000     1.95811  0.0
    126    115    116    117   5     0.00000     0.00000     1.95811  0.0
    126    115    116    118   5     0.00000     0.00000     1.25520  0.0
    126    115    116    128   5     0.00000     0.00000     1.25520  0.0
    127    115    116    117   5     0.00000     0.00000     1.95811  0.0
    127    115    116    118   5     0.00000     0.00000     1.25520  0.0
    127    115    116    128   5     0.00000     0.00000     1.25520  0.0
    115    116    117    129   5    -0.97069    -0.79078     1.77820  0.0
    118    116    117    129   5    -0.97069    -0.79078     1.77820  0.0
    128    116    117    129   5     0.00000     0.00000     1.62758  0.0
    115    116    118    119   5     4.74884    -0.63178     1.67360  0.0
    115    116    118    125   5     4.74884    -0.63178     1.67360  0.0
    115    116    118    130   5     0.00000     0.00000     1.25520  0.0
    117    116    118    119   5     7.23832    -1.46440     1.74054  0.0
    117    116    118    125   5     7.23832    -1.46440     1.74054  0.0
    117    116    118    130   5     0.00000     0.00000     1.95811  0.0
    128    116    118    119   5     0.00000     0.00000     1.25520  0.0
    128    116    118    125   5     0.00000     0.00000     1.25520  0.0
    128    116    118    130   5     0.00000     0.00000     1.25520  0.0
    116    118    119    120   5     4.74884    -0.63178     1.67360  0.0
    116    118    119    131   5     0.00000     0.00000     1.25520  0.0
    116    118    119    132   5     0.00000     0.00000     1.25520  0.0
    125    118    119    120   5     4.74884    -0.63178     1.67360  0.0
    125    118    119    131   5     0.00000     0.00000     1.25520  0.0
    125    118    119    132   5     0.00000     0.00000     1.25520  0.0
    130    118    119    120   5     0.00000     0.00000     1.25520  0.0
    130    118    119    131   5     0.00000     0.00000     1.25520  0.0
    130    118    119    132   5     0.00000     0.00000     1.25520  0.0
    116    118    125    124   5     4.74884    -0.63178     1.67360  0.0
    116    118    125    140   5     0.00000     0.00000     1.25520  0.0
    116    118    125    141   5     0.00000     0.00000     1.25520  0.0
    119    118    125    124   5     4.74884    -0.63178     1.67360  0.0
    119    118    125    140   5     0.00000     0.00000     1.25520  0.0
    119    118    125    141   5     0.00000     0.00000     1.25520  0.0
    130    118    125    124   5     0.00000     0.00000     1.25520  0.0
    130    118    125    140   5     0.00000     0.00000     1.25520  0.0
    130    118    125    141   5     0.00000     0.00000     1.25520  0.0
    118    119    120    121   5     7.23832    -1.46440     1.74054  0.0
    118    119    120    122   5     4.74884    -0.63178     1.67360  0.0
    118    119    120    133   5     0.00000     0.00000     1.25520  0.0
    131    119    120    121   5     0.00000     0.00000     1.95811  0.0
    131    119    120    122   5     0.00000     0.00000     1.25520  0.0
    131    119    120    133   5     0.00000     0.00000     1.25520  0.0
    132    119    120    121   5     0.00000     0.00000     1.95811  0.0
    132    119    120    122   5     0.00000     0.00000     1.25520  0.0
    132    119    120    133   5     0.00000     0.00000     1.25520  0.0
    119    120    121    134   5    -0.97069    -0.79078     1.77820  0.0
    122    120    121    134   5    -0.97069    -0.79078     1.77820  0.0
    133    120    121    134   5     0.00000     0.00000     1.62758  0.0
    119    120    122    123   5     4.74884    -0.63178     1.67360  0.0
    119    120    122    124   5     4.74884    -0.63178     1.67360  0.0
    119    120    122    135   5     0.00000     0.00000     1.25520  0.0
    121    120    122    123   5     7.23832    -1.46440     1.74054  0.0
    121    120    122    124   5     7.23832    -1.46440     1.74054  0.0
    121    120    122    135   5     0.00000     0.00000     1.95811  0.0
    133    120    122    123   5     0.00000     0.00000     1.25520  0.0
    133    120    122    124   5     0.00000     0.00000     1.25520  0.0
    133    120    122    135   5     0.00000     0.00000     1.25520  0.0
    120    122    123    136   5     0.00000     0.00000     1.25520  0.0
    120    122    123    137   5     0.00000     0.00000     1.25520  0.0
    120    122    123    142   5     5.25092    -2.58990     2.28446  0.0
    124    122    123    136   5     0.00000     0.00000     1.25520  0.0
    124    122    123    137   5     0.00000     0.00000     1.25520  0.0
    124    122    123    142   5     5.25092    -2.58990     2.28446  0.0
    135    122    123    136   5     0.00000     0.00000     1.25520  0.0
    135    122    123    137   5     0.00000     0.00000     1.25520  0.0
    135    122    123    142   5     0.00000     0.00000     1.95811  0.0
    120    122    124    125   5     4.74884    -0.63178     1.67360  0.0
    120    122    124    138   5     0.00000     0.00000     1.25520  0.0
    120    122    124    139   5     0.00000     0.00000     1.25520  0.0
    123    122    124    125   5     4.74884    -0.63178     1.67360  0.0
    123    122    124    138   5     0.00000     0.00000     1.25520  0.0
    123    122    124    139   5     0.00000     0.00000     1.25520  0.0
    135    122    124    125   5     0.00000     0.00000     1.25520  0.0
    135    122    124    138   5     0.00000     0.00000     1.25520  0.0
    135    122    124    139   5     0.00000     0.00000     1.25520  0.0
    122    123    142    143   5     0.52300    -0.09205     2.34722  0.0
    136    123    142    143   5     0.00000     0.00000     3.10034  0.0
    137    123    142    143   5     0.00000     0.00000     3.10034  0.0
    122    124    125    118   5     4.74884    -0.63178     1.67360  0.0
    122    124    125    140   5     0.00000     0.00000     1.25520  0.0
    122    124    125    141   5     0.00000     0.00000     1.25520  0.0
    138    124    125    118   5     0.00000     0.00000     1.25520  0.0
    138    124    125    140   5     0.00000     0.00000     1.25520  0.0
    138    124    125    141   5     0.00000     0.00000     1.25520  0.0
    139    124    125    118   5     0.00000     0.00000     1.25520  0.0
    139    124    125    140   5     0.00000     0.00000     1.25520  0.0
    139    124    125    141   5     0.00000     0.00000     1.25520  0.0
    123    142    143    144   5     0.52300    -0.09205     2.34722  0.0
    123    142    143    154   5     0.00000     0.00000     3.10034  0.0
    123    142    143    155   5     0.00000     0.00000     3.10034  0.0
    142    143    144    145   5    30.90721   -15.30926     0.00000  0.0
    142    143    144    146   5     5.25092    -2.58990     2.28446  0.0
    142    143    144    156   5     0.00000     0.00000     1.95811  0.0
    154    143    144    145   5     0.00000     0.00000     1.95811  0.0
    154    143    144    146   5     0.00000     0.00000     1.25520  0.0
    154    143    144    156   5     0.00000     0.00000     1.25520  0.0
    155    143    144    145   5     0.00000     0.00000     1.95811  0.0
    155    143    144    146   5     0.00000     0.00000     1.25520  0.0
    155    143    144    156   5     0.00000     0.00000     1.25520  0.0
    143    144    145    157   5    -0.97069    -0.79078     1.77820  0.0
    146    144    145    157   5    -0.97069    -0.79078     1.77820  0.0
    156    144    145    157   5     0.00000     0.00000     1.62758  0.0
    143    144    146    147   5     4.74884    -0.63178     1.67360  0.0
    143    144    146    153   5     4.74884    -0.63178     1.67360  0.0
    143    144    146    158   5     0.00000     0.00000     1.25520  0.0
    145    144    146    147   5     7.23832    -1.46440     1.74054  0.0
    145    144    146    153   5     7.23832    -1.46440     1.74054  0.0
    145    144    146    158   5     0.00000     0.00000     1.95811  0.0
    156    144    146    147   5     0.00000     0.00000     1.25520  0.0
    156    144    146    153   5     0.00000     0.00000     1.25520  0.0
    156    144    146    158   5     0.00000     0.00000     1.25520  0.0
    144    146    147    148   5     4.74884    -0.63178     1.67360  0.0
    144    146    147    159   5     0.00000     0.00000     1.25520  0.0
    144    146    147    160   5     0.00000     0.00000     1.25520  0.0
    153    146    147    148   5     4.74884    -0.63178     1.67360  0.0
    153    146    147    159   5     0.00000     0.00000     1.25520  0.0
    153    146    147    160   5     0.00000     0.00000     1.25520  0.0
    158    146    147    148   5     0.00000     0.00000     1.25520  0.0
    158    146    147    159   5     0.00000     0.00000     1.25520  0.0
    158    146    147    160   5     0.00000     0.00000     1.25520  0.0
    144    146    153    152   5     4.74884    -0.63178     1.67360  0.0
    144    146    153    168   5     0.00000     0.00000     1.25520  0.0
    144    146    153    169   5     0.00000     0.00000     1.25520  0.0
    147    146    153    152   5     4.74884    -0.63178     1.67360  0.0
    147    146    153    168   5     0.00000     0.00000     1.25520  0.0
    147    146    153    169   5     0.00000     0.00000     1.25520  0.0
    158    146    153    152   5     0.00000     0.00000     1.25520  0.0
    158    146    153    168   5     0.00000     0.00000     1.25520  0.0
    158    146    153    169   5     0.00000     0.00000     1.25520  0.0
    146    147    148    149   5     7.23832    -1.46440     1.74054  0.0
    146    147    148    150   5     4.74884    -0.63178     1.67360  0.0
    146    147    148    161   5     0.00000     0.00000     1.25520  0.0
    159    147    148    149   5     0.00000     0.00000     1.95811  0.0
    159    147    148    150   5     0.00000     0.00000     1.25520  0.0
    159    147    148    161   5     0.00000     0.00000     1.25520  0.0
    160    147    148    149   5     0.00000     0.00000     1.95811  0.0
    160    147    148    150   5     0.00000     0.00000     1.25520  0.0
    160    147    148    161   5     0.00000     0.00000     1.25520  0.0
    147    148    149    162   5    -0.97069    -0.79078     1.77820  0.0
    150    148    149    162   5    -0.97069    -0.79078     1.77820  0.0
    161    148    149    162   5     0.00000     0.00000     1.62758  0.0
    147    148    150    151   5     4.74884    -0.63178     1.67360  0.0
    147    148    150    152   5     4.74884    -0.63178     1.67360  0.0
    147    148    150    163   5     0.00000     0.00000     1.25520  0.0
    149    148    150    151   5     7.23832    -1.46440     1.74054  0.0
    149    148    150    152   5     7.23832    -1.46440     1.74054  0.0
    149    148    150    163   5     0.00000     0.00000     1.95811  0.0
    161    148    150    151   5     0.00000     0.00000     1.25520  0.0
    161    148    150    152   5     0.00000     0.00000     1.25520  0.0
    161    148    150    163   5     0.00000     0.00000     1.25520  0.0
    148    150    151    164   5     0.00000     0.00000     1.25520  0.0
    148    150    151    165   5     0.00000     0.00000     1.25520  0.0
    148    150    151    170   5     5.25092    -2.58990     2.28446  0.0
    152    150    151    164   5     0.00000     0.00000     1.25520  0.0
    152    150    151    165   5     0.00000     0.00000     1.25520  0.0
    152    150    151    170   5     5.25092    -2.58990     2.28446  0.0
    163    150    151    164   5     0.00000     0.00000     1.25520  0.0
    163    150    151    165   5     0.00000     0.00000     1.25520  0.0
    163    150    151    170   5     0.00000     0.00000     1.95811  0.0
    148    150    152    153   5     4.74884    -0.63178     1.67360  0.0
    148    150    152    166   5     0.00000     0.00000     1.25520  0.0
    148    150    152    167   5     0.00000     0.00000     1.25520  0.0
    151    150    152    153   5     4.74884    -0.63178     1.67360  0.0
    151    150    152    166   5     0.00000     0.00000     1.25520  0.0
    151    150    152    167   5     0.00000     0.00000     1.25520  0.0
    163    150    152    153   5     0.00000     0.00000     1.25520  0.0
    163    150    152    166   5     0.00000     0.00000     1.25520  0.0
    163    150    152    167   5     0.00000     0.00000     1.25520  0.0
    150    151    170    171   5     0.52300    -0.09205     2.34722  0.0
    164    151    170    171   5     0.00000     0.00000     3.10034  0.0
    165    151    170    171   5     0.00000     0.00000     3.10034  0.0
    150    152    153    146   5     4.74884    -0.63178     1.67360  0.0
    150    152    153    168   5     0.00000     0.00000     1.25520  0.0
    150    152    153    169   5     0.00000     0.00000     1.25520  0.0
    166    152    153    146   5     0.00000     0.00000     1.25520  0.0
    166    152    153    168   5     0.00000     0.00000     1.25520  0.0
    166    152    153    169   5     0.00000     0.00000     1.25520  0.0
    167    152    153    146   5     0.00000     0.00000     1.25520  0.0
    167    152    153    168   5     0.00000     0.00000     1.25520  0.0
    167    152    153    169   5     0.00000     0.00000     1.25520  0.0
    151    170    171    172   5     0.52300    -0.09205     2.34722  0.0
    151    170    171    182   5     0.00000     0.00000     3.10034  0.0
    151    170    171    183   5     0.00000     0.00000     3.10034  0.0
    170    171    172    173   5    30.90721   -15.30926     0.00000  0.0
    170    171    172    174   5     5.25092    -2.58990     2.28446  0.0
    170    171    172    184   5     0.00000     0.00000     1.95811  0.0
    182    171    172    173   5     0.00000     0.00000     1.95811  0.0
    182    171    172    174   5     0.00000     0.00000     1.25520  0.0
    182    171    172    184   5     0.00000     0.00000     1.25520  0.0
    183    171    172    173   5     0.00000     0.00000     1.95811  0.0
    183    171    172    174   5     0.00000     0.00000     1.25520  0.0
    183    171    172    184   5     0.00000     0.00000     1.25520  0.0
    171    172    173    185   5    -0.97069    -0.79078     1.77820  0.0
    174    172    173    185   5    -0.97069    -0.79078     1.77820  0.0
    184    172    173    185   5     0.00000     0.00000     1.62758  0.0
    171    172    174    175   5     4.74884    -0.63178     1.67360  0.0
    171    172    174    181   5     4.74884    -0.63178     1.67360  0.0
    171    172    174    186   5     0.00000     0.00000     1.25520  0.0
    173    172    174    175   5     7.23832    -1.46440     1.74054  0.0
    173    172    174    181   5     7.23832    -1.46440     1.74054  0.0
    173    172    174    186   5     0.00000     0.00000     1.95811  0.0
    184    172    174    175   5     0.00000     0.00000     1.25520  0.0
    184    172    174    181   5     0.00000     0.00000     1.25520  0.0
    184    172    174    186   5     0.00000     0.00000     1.25520  0.0
    172    174    175    176   5     4.74884    -0.63178     1.67360  0.0
    172    174    175    187   5     0.00000     0.00000     1.25520  0.0
    172    174    175    188   5     0.00000     0.00000     1.25520  0.0
    181    174    175    176   5     4.74884    -0.63178     1.67360  0.0
    181    174    175    187   5     0.00000     0.00000     1.25520  0.0
    181    174    175    188   5     0.00000     0.00000     1.25520  0.0
    186    174    175    176   5     0.00000     0.00000     1.25520  0.0
    186    174    175    187   5     0.00000     0.00000     1.25520  0.0
    186    174    175    188   5     0.00000     0.00000     1.25520  0.0
    172    174    181    180   5     4.74884    -0.63178     1.67360  0.0
    172    174    181    196   5     0.00000     0.00000     1.25520  0.0
    172    174    181    197   5     0.00000     0.00000     1.25520  0.0
    175    174    181    180   5     4.74884    -0.63178     1.67360  0.0
    175    174    181    196   5     0.00000     0.00000     1.25520  0.0
    175    174    181    197   5     0.00000     0.00000     1.25520  0.0
    186    174    181    180   5     0.00000     0.00000     1.25520  0.0
    186    174    181    196   5     0.00000     0.00000     1.25520  0.0
    186    174    181    197   5     0.00000     0.00000     1.25520  0.0
    174    175    176    177   5     7.23832    -1.46440     1.74054  0.0
    174    175    176    178   5     4.74884    -0.63178     1.67360  0.0
    174    175    176    189   5     0.00000     0.00000     1.25520  0.0
    187    175    176    177   5     0.00000     0.00000     1.95811  0.0
    187    175    176    178   5     0.00000     0.00000     1.25520  0.0
    187    175    176    189   5     0.00000     0.00000     1.25520  0.0
    188    175    176    177   5     0.00000     0.00000     1.95811  0.0
    188    175    176    178   5     0.00000     0.00000     1.25520  0.0
    188    175    176    189   5     0.00000     0.00000     1.25520  0.0
    175    176    177    190   5    -0.97069    -0.79078     1.77820  0.0
    178    176    177    190   5    -0.97069    -0.79078     1.77820  0.0
    189    176    177    190   5     0.00000     0.00000     1.62758  0.0
    175    176    178    179   5     4.74884    -0.63178     1.67360  0.0
    175    176    178    180   5     4.74884    -0.63178     1.67360  0.0
    175    176    178    191   5     0.00000     0.00000     1.25520  0.0
    177    176    178    179   5     7.23832    -1.46440     1.74054  0.0
    177    176    178    180   5     7.23832    -1.46440     1.74054  0.0
    177    176    178    191   5     0.00000     0.00000     1.95811  0.0
    189    176    178    179   5     0.00000     0.00000     1.25520  0.0
    189    176    178    180   5     0.00000     0.00000     1.25520  0.0
    189    176    178    191   5     0.00000     0.00000     1.25520  0.0
    176    178    179    192   5     0.00000     0.00000     1.25520  0.0
    176    178    179    193   5     0.00000     0.00000     1.25520  0.0
    176    178    179    198   5     5.25092    -2.58990     2.28446  0.0
    180    178    179    192   5     0.00000     0.00000     1.25520  0.0
    180    178    179    193   5     0.00000     0.00000     1.25520  0.0
    180    178    179    198   5     5.25092    -2.58990     2.28446  0.0
    191    178    179    192   5     0.00000     0.00000     1.25520  0.0
    191    178    179    193   5     0.00000     0.00000     1.25520  0.0
    191    178    179    198   5     0.00000     0.00000     1.95811  0.0
    176    178    180    181   5     4.74884    -0.63178     1.67360  0.0
    176    178    180    194   5     0.00000     0.00000     1.25520  0.0
    176    178    180    195   5     0.00000     0.00000     1.25520  0.0
    179    178    180    181   5     4.74884    -0.63178     1.67360  0.0
    179    178    180    194   5     0.00000     0.00000     1.25520  0.0
    179    178    180    195   5     0.00000     0.00000     1.25520  0.0
    191    178    180    181   5     0.00000     0.00000     1.25520  0.0
    191    178    180    194   5     0.00000     0.00000     1.25520  0.0
    191    178    180    195   5     0.00000     0.00000     1.25520  0.0
    178    179    198    199   5     0.52300    -0.09205     2.34722  0.0
    192    179    198    199   5     0.00000     0.00000     3.10034  0.0
    193    179    198    199   5     0.00000     0.00000     3.10034  0.0
    178    180    181    174   5     4.74884    -0.63178     1.67360  0.0
    178    180    181    196   5     0.00000     0.00000     1.25520  0.0
    178    180    181    197   5     0.00000     0.00000     1.25520  0.0
    194    180    181    174   5     0.00000     0.00000     1.25520  0.0
    194    180    181    196   5     0.00000     0.00000     1.25520  0.0
    194    180    181    197   5     0.00000     0.00000     1.25520  0.0
    195    180    181    174   5     0.00000     0.00000     1.25520  0.0
    195    180    181    196   5     0.00000     0.00000     1.25520  0.0
    195    180    181    197   5     0.00000     0.00000     1.25520  0.0
    179    198    199    200   5     0.52300    -0.09205     2.34722  0.0
    179    198    199    210   5     0.00000     0.00000     3.10034  0.0
    179    198    199    211   5     0.00000     0.00000     3.10034  0.0
    198    199    200    201   5    30.90721   -15.30926     0.00000  0.0
    198    199    200    202   5     5.25092    -2.58990     2.28446  0.0
    198    199    200    212   5     0.00000     0.00000     1.95811  0.0
    210    199    200    201   5     0.00000     0.00000     1.95811  0.0
    210    199    200    202   5     0.00000     0.00000     1.25520  0.0
    210    199    200    212   5     0.00000     0.00000     1.25520  0.0
    211    199    200    201   5     0.00000     0.00000     1.95811  0.0
    211    199    200    202   5     0.00000     0.00000     1.25520  0.0
    211    199    200    212   5     0.00000     0.00000     1.25520  0.0
    199    200    201    213   5    -0.97069    -0.79078     1.77820  0.0
    202    200    201    213   5    -0.97069    -0.79078     1.77820  0.0
    212    200    201    213   5     0.00000     0.00000     1.62758  0.0
    199    200    202    203   5     4.74884    -0.63178     1.67360  0.0
    199    200    202    209   5     4.74884    -0.63178     1.67360  0.0
    199    200    202    214   5     0.00000     0.00000     1.25520  0.0
    201    200    202    203   5     7.23832    -1.46440     1.74054  0.0
    201    200    202    209   5     7.23832    -1.46440     1.74054  0.0
    201    200    202    214   5     0.00000     0.00000     1.95811  0.0
    212    200    202    203   5     0.00000     0.00000     1.25520  0.0
    212    200    202    209   5     0.00000     0.00000     1.25520  0.0
    212    200    202    214   5     0.00000     0.00000     1.25520  0.0
    200    202    203    204   5     4.74884    -0.63178     1.67360  0.0
    200    202    203    215   5     0.00000     0.00000     1.25520  0.0
    200    202    203    216   5     0.00000     0.00000     1.25520  0.0
    209    202    203    204   5     4.74884    -0.63178     1.67360  0.0
    209    202    203    215   5     0.00000     0.00000     1.25520  0.0
    209    202    203    216   5     0.00000     0.00000     1.25520  0.0
    214    202    203    204   5     0.00000     0.00000     1.25520  0.0
    214    202    203    215   5     0.00000     0.00000     1.25520  0.0
    214    202    203    216   5     0.00000     0.00000     1.25520  0.0
    200    202    209    208   5     4.74884    -0.63178     1.67360  0.0
    200    202    209    224   5     0.00000     0.00000     1.25520  0.0
    200    202    209    225   5     0.00000     0.00000     1.25520  0.0
    203    202    209    208   5     4.74884    -0.63178     1.67360  0.0
    203    202    209    224   5     0.00000     0.00000     1.25520  0.0
    203    202    209    225   5     0.00000     0.00000     1.25520  0.0
    214    202    209    208   5     0.00000     0.00000     1.25520  0.0
    214    202    209    224   5     0.00000     0.00000     1.25520  0.0
    214    202    209    225   5     0.00000     0.00000     1.25520  0.0
    202    203    204    205   5     7.23832    -1.46440     1.74054  0.0
    202    203    204    206   5     4.74884    -0.63178     1.67360  0.0
    202    203    204    217   5     0.00000     0.00000     1.25520  0.0
    215    203    204    205   5     0.00000     0.00000     1.95811  0.0
    215    203    204    206   5     0.00000     0.00000     1.25520  0.0
    215    203    204    217   5     0.00000     0.00000     1.25520  0.0
    216    203    204    205   5     0.00000     0.00000     1.95811  0.0
    216    203    204    206   5     0.00000     0.00000     1.25520  0.0
    216    203    204    217   5     0.00000     0.00000     1.25520  0.0
    203    204    205    218   5    -0.97069    -0.79078     1.77820  0.0
    206    204    205    218   5    -0.97069    -0.79078     1.77820  0.0
    217    204    205    218   5     0.00000     0.00000     1.62758  0.0
    203    204    206    207   5     4.74884    -0.63178     1.67360  0.0
    203    204    206    208   5     4.74884    -0.63178     1.67360  0.0
    203    204    206    219   5     0.00000     0.00000     1.25520  0.0
    205    204    206    207   5     7.23832    -1.46440     1.74054  0.0
    205    204    206    208   5     7.23832    -1.46440     1.74054  0.0
    205    204    206    219   5     0.00000     0.00000     1.95811  0.0
    217    204    206    207   5     0.00000     0.00000     1.25520  0.0
    217    204    206    208   5     0.00000     0.00000     1.25520  0.0
    217    204    206    219   5     0.00000     0.00000     1.25520  0.0
    204    206    207    220   5     0.00000     0.00000     1.25520  0.0
    204    206    207    221   5     0.00000     0.00000     1.25520  0.0
    204    206    207    226   5     5.25092    -2.58990     2.28446  0.0
    208    206    207    220   5     0.00000     0.00000     1.25520  0.0
    208    206    207    221   5     0.00000     0.00000     1.25520  0.0
    208    206    207    226   5     5.25092    -2.58990     2.28446  0.0
    219    206    207    220   5     0.00000     0.00000     1.25520  0.0
    219    206    207    221   5     0.00000     0.00000     1.25520  0.0
    219    206    207    226   5     0.00000     0.00000     1.95811  0.0
    204    206    208    209   5     4.74884    -0.63178     1.67360  0.0
    204    206    208    222   5     0.00000     0.00000     1.25520  0.0
    204    206    208    223   5     0.00000     0.00000     1.25520  0.0
    207    206    208    209   5     4.74884    -0.63178     1.67360  0.0
    207    206    208    222   5     0.00000     0.00000     1.25520  0.0
    207    206    208    223   5     0.00000     0.00000     1.25520  0.0
    219    206    208    209   5     0.00000     0.00000     1.25520  0.0
    219    206    208    222   5     0.00000     0.00000     1.25520  0.0
    219    206    208    223   5     0.00000     0.00000     1.25520  0.0
    206    207    226    227   5     0.52300    -0.09205     2.34722  0.0
    220    207    226    227   5     0.00000     0.00000     3.10034  0.0
    221    207    226    227   5     0.00000     0.00000     3.10034  0.0
    206    208    209    202   5     4.74884    -0.63178     1.67360  0.0
    206    208    209    224   5     0.00000     0.00000     1.25520  0.0
    206    208    209    225   5     0.00000     0.00000     1.25520  0.0
    222    208    209    202   5     0.00000     0.00000     1.25520  0.0
    222    208    209    224   5     0.00000     0.00000     1.25520  0.0
    222    208    209    225   5     0.00000     0.00000     1.25520  0.0
    223    208    209    202   5     0.00000     0.00000     1.25520  0.0
    223    208    209    224   5     0.00000     0.00000     1.25520  0.0
    223    208    209    225   5     0.00000     0.00000     1.25520  0.0
    207    226    227    228   5     0.52300    -0.09205     2.34722  0.0
    207    226    227    238   5     0.00000     0.00000     3.10034  0.0
    207    226    227    239   5     0.00000     0.00000     3.10034  0.0
    226    227    228    229   5    30.90721   -15.30926     0.00000  0.0
    226    227    228    230   5     5.25092    -2.58990     2.28446  0.0
    226    227    228    240   5     0.00000     0.00000     1.95811  0.0
    238    227    228    229   5     0.00000     0.00000     1.95811  0.0
    238    227    228    230   5     0.00000     0.00000     1.25520  0.0
    238    227    228    240   5     0.00000     0.00000     1.25520  0.0
    239    227    228    229   5     0.00000     0.00000     1.95811  0.0
    239    227    228    230   5     0.00000     0.00000     1.25520  0.0
    239    227    228    240   5     0.00000     0.00000     1.25520  0.0
    227    228    229    241   5    -0.97069    -0.79078     1.77820  0.0
    230    228    229    241   5    -0.97069    -0.79078     1.77820  0.0
    240    228    229    241   5     0.00000     0.00000     1.62758  0.0
    227    228    230    231   5     4.74884    -0.63178     1.67360  0.0
    227    228    230    237   5     4.74884    -0.63178     1.67360  0.0
    227    228    230    242   5     0.00000     0.00000     1.25520  0.0
    229    228    230    231   5     7.23832    -1.46440     1.74054  0.0
    229    228    230    237   5     7.23832    -1.46440     1.74054  0.0
    229    228    230    242   5     0.00000     0.00000     1.95811  0.0
    240    228    230    231   5     0.00000     0.00000     1.25520  0.0
    240    228    230    237   5     0.00000     0.00000     1.25520  0.0
    240    228    230    242   5     0.00000     0.00000     1.25520  0.0
    228    230    231    232   5     4.74884    -0.63178     1.67360  0.0
    228    230    231    243   5     0.00000     0.00000     1.25520  0.0
    228    230    231    244   5     0.00000     0.00000     1.25520  0.0
    237    230    231    232   5     4.74884    -0.63178     1.67360  0.0
    237    230    231    243   5     0.00000     0.00000     1.25520  0.0
    237    230    231    244   5     0.00000     0.00000     1.25520  0.0
    242    230    231    232   5     0.00000     0.00000     1.25520  0.0
    242    230    231    243   5     0.00000     0.00000     1.25520  0.0
    242    230    231    244   5     0.00000     0.00000     1.25520  0.0
    228    230    237    236   5     4.74884    -0.63178     1.67360  0.0
    228    230    237    252   5     0.00000     0.00000     1.25520  0.0
    228    230    237    253   5     0.00000     0.00000     1.25520  0.0
    231    230    237    236   5     4.74884    -0.63178     1.67360  0.0
    231    230    237    252   5     0.00000     0.00000     1.25520  0.0
    231    230    237    253   5     0.00000     0.00000     1.25520  0.0
    242    230    237    236   5     0.00000     0.00000     1.25520  0.0
    242    230    237    252   5     0.00000     0.00000     1.25520  0.0
    242    230    237    253   5     0.00000     0.00000     1.25520  0.0
    230    231    232    233   5     7.23832    -1.46440     1.74054  0.0
    230    231    232    234   5     4.74884    -0.63178     1.67360  0.0
    230    231    232    245   5     0.00000     0.00000     1.25520  0.0
    243    231    232    233   5     0.00000     0.00000     1.95811  0.0
    243    231    232    234   5     0.00000     0.00000     1.25520  0.0
    243    231    232    245   5     0.00000     0.00000     1.25520  0.0
    244    231    232    233   5     0.00000     0.00000     1.95811  0.0
    244    231    232    234   5     0.00000     0.00000     1.25520  0.0
    244    231    232    245   5     0.00000     0.00000     1.25520  0.0
    231    232    233    246   5    -0.97069    -0.79078     1.77820  0.0
    234    232    233    246   5    -0.97069    -0.79078     1.77820  0.0
    245    232    233    246   5     0.00000     0.00000     1.62758  0.0
    231    232    234    235   5     4.74884    -0.63178     1.67360  0.0
    231    232    234    236   5     4.74884    -0.63178     1.67360  0.0
    231    232    234    247   5     0.00000     0.00000     1.25520  0.0
    233    232    234    235   5     7.23832    -1.46440     1.74054  0.0
    233    232    234    236   5     7.23832    -1.46440     1.74054  0.0
    233    232    234    247   5     0.00000     0.00000     1.95811  0.0
    245    232    234    235   5     0.00000     0.00000     1.25520  0.0
    245    232    234    236   5     0.00000     0.00000     1.25520  0.0
    245    232    234    247   5     0.00000     0.00000     1.25520  0.0
    232    234    235    248   5     0.00000     0.00000     1.25520  0.0
    232    234    235    249   5     0.00000     0.00000     1.25520  0.0
    232    234    235    254   5     5.25092    -2.58990     2.28446  0.0
    236    234    235    248   5     0.00000     0.00000     1.25520  0.0
    236    234    235    249   5     0.00000     0.00000     1.25520  0.0
    236    234    235    254   5     5.25092    -2.58990     2.28446  0.0
    247    234    235    248   5     0.00000     0.00000     1.25520  0.0
    247    234    235    249   5     0.00000     0.00000     1.25520  0.0
    247    234    235    254   5     0.00000     0.00000     1.95811  0.0
    232    234    236    237   5     4.74884    -0.63178     1.67360  0.0
    232    234    236    250   5     0.00000     0.00000     1.25520  0.0
    232    234    236    251   5     0.00000     0.00000     1.25520  0.0
    235    234    236    237   5     4.74884    -0.63178     1.67360  0.0
    235    234    236    250   5     0.00000     0.00000     1.25520  0.0
    235    234    236    251   5     0.00000     0.00000     1.25520  0.0
    247    234    236    237   5     0.00000     0.00000     1.25520  0.0
    247    234    236    250   5     0.00000     0.00000     1.25520  0.0
    247    234    236    251   5     0.00000     0.00000     1.25520  0.0
    234    235    254    255   5     0.52300    -0.09205     2.34722  0.0
    248    235    254    255   5     0.00000     0.00000     3.10034  0.0
    249    235    254    255   5     0.00000     0.00000     3.10034  0.0
    234    236    237    230   5     4.74884    -0.63178     1.67360  0.0
    234    236    237    252   5     0.00000     0.00000     1.25520  0.0
    234    236    237    253   5     0.00000     0.00000     1.25520  0.0
    250    236    237    230   5     0.00000     0.00000     1.25520  0.0
    250    236    237    252   5     0.00000     0.00000     1.25520  0.0
    250    236    237    253   5     0.00000     0.00000     1.25520  0.0
    251    236    237    230   5     0.00000     0.00000     1.25520  0.0
    251    236    237    252   5     0.00000     0.00000     1.25520  0.0
    251    236    237    253   5     0.00000     0.00000     1.25520  0.0
    235    254    255    256   5     0.52300    -0.09205     2.34722  0.0
    235    254    255    266   5     0.00000     0.00000     3.10034  0.0
    235    254    255    267   5     0.00000     0.00000     3.10034  0.0
    254    255    256    257   5    30.90721   -15.30926     0.00000  0.0
    254    255    256    258   5     5.25092    -2.58990     2.28446  0.0
    254    255    256    268   5     0.00000     0.00000     1.95811  0.0
    266    255    256    257   5     0.00000     0.00000     1.95811  0.0
    266    255    256    258   5     0.00000     0.00000     1.25520  0.0
    266    255    256    268   5     0.00000     0.00000     1.25520  0.0
    267    255    256    257   5     0.00000     0.00000     1.95811  0.0
    267    255    256    258   5     0.00000     0.00000     1.25520  0.0
    267    255    256    268   5     0.00000     0.00000     1.25520  0.0
    255    256    257    269   5    -0.97069    -0.79078     1.77820  0.0
    258    256    257    269   5    -0.97069    -0.79078     1.77820  0.0
    268    256    257    269   5     0.00000     0.00000     1.62758  0.0
    255    256    258    259   5     4.74884    -0.63178     1.67360  0.0
    255    256    258    265   5     4.74884    -0.63178     1.67360  0.0
    255    256    258    270   5     0.00000     0.00000     1.25520  0.0
    257    256    258    259   5     7.23832    -1.46440     1.74054  0.0
    257    256    258    265   5     7.23832    -1.46440     1.74054  0.0
    257    256    258    270   5     0.00000     0.00000     1.95811  0.0
    268    256    258    259   5     0.00000     0.00000     1.25520  0.0
    268    256    258    265   5     0.00000     0.00000     1.25520  0.0
    268    256    258    270   5     0.00000     0.00000     1.25520  0.0
    256    258    259    260   5     4.74884    -0.63178     1.67360  0.0
    256    258    259    271   5     0.00000     0.00000     1.25520  0.0
    256    258    259    272   5     0.00000     0.00000     1.25520  0.0
    265    258    259    260   5     4.74884    -0.63178     1.67360  0.0
    265    258    259    271   5     0.00000     0.00000     1.25520  0.0
    265    258    259    272   5     0.00000     0.00000     1.25520  0.0
    270    258    259    260   5     0.00000     0.00000     1.25520  0.0
    270    258    259    271   5     0.00000     0.00000     1.25520  0.0
    270    258    259    272   5     0.00000     0.00000     1.25520  0.0
    256    258    265    264   5     4.74884    -0.63178     1.67360  0.0
    256    258    265    280   5     0.00000     0.00000     1.25520  0.0
    256    258    265    281   5     0.00000     0.00000     1.25520  0.0
    259    258    265    264   5     4.74884    -0.63178     1.67360  0.0
    259    258    265    280   5     0.00000     0.00000     1.25520  0.0
    259    258    265    281   5     0.00000     0.00000     1.25520  0.0
    270    258    265    264   5     0.00000     0.00000     1.25520  0.0
    270    258    265    280   5     0.00000     0.00000     1.25520  0.0
    270    258    265    281   5     0.00000     0.00000     1.25520  0.0
    258    259    260    261   5     7.23832    -1.46440     1.74054  0.0
    258    259    260    262   5     4.74884    -0.63178     1.67360  0.0
    258    259    260    273   5     0.00000     0.00000     1.25520  0.0
    271    259    260    261   5     0.00000     0.00000     1.95811  0.0
    271    259    260    262   5     0.00000     0.00000     1.25520  0.0
    271    259    260    273   5     0.00000     0.00000     1.25520  0.0
    272    259    260    261   5     0.00000     0.00000     1.95811  0.0
    272    259    260    262   5     0.00000     0.00000     1.25520  0.0
    272    259    260    273   5     0.00000     0.00000     1.25520  0.0
    259    260    261    274   5    -0.97069    -0.79078     1.77820  0.0
    262    260    261    274   5    -0.97069    -0.79078     1.77820  0.0
    273    260    261    274   5     0.00000     0.00000     1.62758  0.0
    259    260    262    263   5     4.74884    -0.63178     1.67360  0.0
    259    260    262    264   5     4.74884    -0.63178     1.67360  0.0
    259    260    262    275   5     0.00000     0.00000     1.25520  0.0
    261    260    262    263   5     7.23832    -1.46440     1.74054  0.0
    261    260    262    264   5     7.23832    -1.46440     1.74054  0.0
    261    260    262    275   5     0.00000     0.00000     1.95811  0.0
    273    260    262    263   5     0.00000     0.00000     1.25520  0.0
    273    260    262    264   5     0.00000     0.00000     1.25520  0.0
    273    260    262    275   5     0.00000     0.00000     1.25520  0.0
    260    262    263    276   5     0.00000     0.00000     1.25520  0.0
    260    262    263    277   5     0.00000     0.00000     1.25520  0.0
    260    262    263    282   5     5.25092    -2.58990     2.28446  0.0
    264    262    263    276   5     0.00000     0.00000     1.25520  0.0
    264    262    263    277   5     0.00000     0.00000     1.25520  0.0
    264    262    263    282   5     5.25092    -2.58990     2.28446  0.0
    275    262    263    276   5     0.00000     0.00000     1.25520  0.0
    275    262    263    277   5     0.00000     0.00000     1.25520  0.0
    275    262    263    282   5     0.00000     0.00000     1.95811  0.0
    260    262    264    265   5     4.74884    -0.63178     1.67360  0.0
    260    262    264    278   5     0.00000     0.00000     1.25520  0.0
    260    262    264    279   5     0.00000     0.00000     1.25520  0.0
    263    262    264    265   5     4.74884    -0.63178     1.67360  0.0
    263    262    264    278   5     0.00000     0.00000     1.25520  0.0
    263    262    264    279   5     0.00000     0.00000     1.25520  0.0
    275    262    264    265   5     0.00000     0.00000     1.25520  0.0
    275    262    264    278   5     0.00000     0.00000     1.25520  0.0
    275    262    264    279   5     0.00000     0.00000     1.25520  0.0
    262    263    282    283   5     0.52300    -0.09205     2.34722  0.0
    276    263    282    283   5     0.00000     0.00000     3.10034  0.0
    277    263    282    283   5     0.00000     0.00000     3.10034  0.0
    262    264    265    258   5     4.74884    -0.63178     1.67360  0.0
    262    264    265    280   5     0.00000     0.00000     1.25520  0.0
    262    264    265    281   5     0.00000     0.00000     1.25520  0.0
    278    264    265    258   5     0.00000     0.00000     1.25520  0.0
    278    264    265    280   5     0.00000     0.00000     1.25520  0.0
    278    264    265    281   5     0.00000     0.00000     1.25520  0.0
    279    264    265    258   5     0.00000     0.00000     1.25520  0.0
    279    264    265    280   5     0.00000     0.00000     1.25520  0.0
    279    264    265    281   5     0.00000     0.00000     1.25520  0.0
    263    282    283    284   5     0.52300    -0.09205     2.34722  0.0
    263    282    283    294   5     0.00000     0.00000     3.10034  0.0
    263    282    283    295   5     0.00000     0.00000     3.10034  0.0
    282    283    284    285   5    30.90721   -15.30926     0.00000  0.0
    282    283    284    286   5     5.25092    -2.58990     2.28446  0.0
    282    283    284    296   5     0.00000     0.00000     1.95811  0.0
    294    283    284    285   5     0.00000     0.00000     1.95811  0.0
    294    283    284    286   5     0.00000     0.00000     1.25520  0.0
    294    283    284    296   5     0.00000     0.00000     1.25520  0.0
    295    283    284    285   5     0.00000     0.00000     1.95811  0.0
    295    283    284    286   5     0.00000     0.00000     1.25520  0.0
    295    283    284    296   5     0.00000     0.00000     1.25520  0.0
    283    284    285    297   5    -0.97069    -0.79078     1.77820  0.0
    286    284    285    297   5    -0.97069    -0.79078     1.77820  0.0
    296    284    285    297   5     0.00000     0.00000     1.62758  0.0
    283    284    286    287   5     4.74884    -0.63178     1.67360  0.0
    283    284    286    293   5     4.74884    -0.63178     1.67360  0.0
    283    284    286    298   5     0.00000     0.00000     1.25520  0.0
    285    284    286    287   5     7.23832    -1.46440     1.74054  0.0
    285    284    286    293   5     7.23832    -1.46440     1.74054  0.0
    285    284    286    298   5     0.00000     0.00000     1.95811  0.0
    296    284    286    287   5     0.00000     0.00000     1.25520  0.0
    296    284    286    293   5     0.00000     0.00000     1.25520  0.0
    296    284    286    298   5     0.00000     0.00000     1.25520  0.0
    284    286    287    288   5     4.74884    -0.63178     1.67360  0.0
    284    286    287    299   5     0.00000     0.00000     1.25520  0.0
    284    286    287    300   5     0.00000     0.00000     1.25520  0.0
    293    286    287    288   5     4.74884    -0.63178     1.67360  0.0
    293    286    287    299   5     0.00000     0.00000     1.25520  0.0
    293    286    287    300   5     0.00000     0.00000     1.25520  0.0
    298    286    287    288   5     0.00000     0.00000     1.25520  0.0
    298    286    287    299   5     0.00000     0.00000     1.25520  0.0
    298    286    287    300   5     0.00000     0.00000     1.25520  0.0
    284    286    293    292   5     4.74884    -0.63178     1.67360  0.0
    284    286    293    308   5     0.00000     0.00000     1.25520  0.0
    284    286    293    309   5     0.00000     0.00000     1.25520  0.0
    287    286    293    292   5     4.74884    -0.63178     1.67360  0.0
    287    286    293    308   5     0.00000     0.00000     1.25520  0.0
    287    286    293    309   5     0.00000     0.00000     1.25520  0.0
    298    286    293    292   5     0.00000     0.00000     1.25520  0.0
    298    286    293    308   5     0.00000     0.00000     1.25520  0.0
    298    286    293    309   5     0.00000     0.00000     1.25520  0.0
    286    287    288    289   5     7.23832    -1.46440     1.74054  0.0
    286    287    288    290   5     4.74884    -0.63178     1.67360  0.0
    286    287    288    301   5     0.00000     0.00000     1.25520  0.0
    299    287    288    289   5     0.00000     0.00000     1.95811  0.0
    299    287    288    290   5     0.00000     0.00000     1.25520  0.0
    299    287    288    301   5     0.00000     0.00000     1.25520  0.0
    300    287    288    289   5     0.00000     0.00000     1.95811  0.0
    300    287    288    290   5     0.00000     0.00000     1.25520  0.0
    300    287    288    301   5     0.00000     0.00000     1.25520  0.0
    287    288    289    302   5    -0.97069    -0.79078     1.77820  0.0
    290    288    289    302   5    -0.97069    -0.79078     1.77820  0.0
    301    288    289    302   5     0.00000     0.00000     1.62758  0.0
    287    288    290    291   5     4.74884    -0.63178     1.67360  0.0
    287    288    290    292   5     4.74884    -0.63178     1.67360  0.0
    287    288    290    303   5     0.00000     0.00000     1.25520  0.0
    289    288    290    291   5     7.23832    -1.46440     1.74054  0.0
    289    288    290    292   5     7.23832    -1.46440     1.74054  0.0
    289    288    290    303   5     0.00000     0.00000     1.95811  0.0
    301    288    290    291   5     0.00000     0.00000     1.25520  0.0
    301    288    290    292   5     0.00000     0.00000     1.25520  0.0
    301    288    290    303   5     0.00000     0.00000     1.25520  0.0
    288    290    291    304   5     0.00000     0.00000     1.25520  0.0
    288    290    291    305   5     0.00000     0.00000     1.25520  0.0
    288    290    291    310   5     5.25092    -2.58990     2.28446  0.0
    292    290    291    304   5     0.00000     0.00000     1.25520  0.0
    292    290    291    305   5     0.00000     0.00000     1.25520  0.0
    292    290    291    310   5     5.25092    -2.58990     2.28446  0.0
    303    290    291    304   5     0.00000     0.00000     1.25520  0.0
    303    290    291    305   5     0.00000     0.00000     1.25520  0.0
    303    290    291    310   5     0.00000     0.00000     1.95811  0.0
    288    290    292    293   5     4.74884    -0.63178     1.67360  0.0
    288    290    292    306   5     0.00000     0.00000     1.25520  0.0
    288    290    292    307   5     0.00000     0.00000     1.25520  0.0
    291    290    292    293   5     4.74884    -0.63178     1.67360  0.0
    291    290    292    306   5     0.00000     0.00000     1.25520  0.0
    291    290    292    307   5     0.00000     0.00000     1.25520  0.0
    303    290    292    293   5     0.00000     0.00000     1.25520  0.0
    303    290    292    306   5     0.00000     0.00000     1.25520  0.0
    303    290    292    307   5     0.00000     0.00000     1.25520  0.0
    290    291    310    311   5     0.52300    -0.09205     2.34722  0.0
    304    291    310    311   5     0.00000     0.00000     3.10034  0.0
    305    291    310    311   5     0.00000     0.00000     3.10034  0.0
    290    292    293    286   5     4.74884    -0.63178     1.67360  0.0
    290    292    293    308   5     0.00000     0.00000     1.25520  0.0
    290    292    293    309   5     0.00000     0.00000     1.25520  0.0
    306    292    293    286   5     0.00000     0.00000     1.25520  0.0
    306    292    293    308   5     0.00000     0.00000     1.25520  0.0
    306    292    293    309   5     0.00000     0.00000     1.25520  0.0
    307    292    293    286   5     0.00000     0.00000     1.25520  0.0
    307    292    293    308   5     0.00000     0.00000     1.25520  0.0
    307    292    293    309   5     0.00000     0.00000     1.25520  0.0
    291    310    311    312   5     0.52300    -0.09205     2.34722  0.0
    291    310    311    322   5     0.00000     0.00000     3.10034  0.0
    291    310    311    323   5     0.00000     0.00000     3.10034  0.0
    310    311    312    313   5    30.90721   -15.30926     0.00000  0.0
    310    311    312    314   5     5.25092    -2.58990     2.28446  0.0
    310    311    312    324   5     0.00000     0.00000     1.95811  0.0
    322    311    312    313   5     0.00000     0.00000     1.95811  0.0
    322    311    312    314   5     0.00000     0.00000     1.25520  0.0
    322    311    312    324   5     0.00000     0.00000     1.25520  0.0
    323    311    312    313   5     0.00000     0.00000     1.95811  0.0
    323    311    312    314   5     0.00000     0.00000     1.25520  0.0
    323    311    312    324   5     0.00000     0.00000     1.25520  0.0
    311    312    313    325   5    -0.97069    -0.79078     1.77820  0.0
    314    312    313    325   5    -0.97069    -0.79078     1.77820  0.0
    324    312    313    325   5     0.00000     0.00000     1.62758  0.0
    311    312    314    315   5     4.74884    -0.63178     1.67360  0.0
    311    312    314    321   5     4.74884    -0.63178     1.67360  0.0
    311    312    314    326   5     0.00000     0.00000     1.25520  0.0
    313    312    314    315   5     7.23832    -1.46440     1.74054  0.0
    313    312    314    321   5     7.23832    -1.46440     1.74054  0.0
    313    312    314    326   5     0.00000     0.00000     1.95811  0.0
    324    312    314    315   5     0.00000     0.00000     1.25520  0.0
    324    312    314    321   5     0.00000     0.00000     1.25520  0.0
    324    312    314    326   5     0.00000     0.00000     1.25520  0.0
    312    314    315    316   5     4.74884    -0.63178     1.67360  0.0
    312    314    315    327   5     0.00000     0.00000     1.25520  0.0
    312    314    315    328   5     0.00000     0.00000     1.25520  0.0
    321    314    315    316   5     4.74884    -0.63178     1.67360  0.0
    321    314    315    327   5     0.00000     0.00000     1.25520  0.0
    321    314    315    328   5     0.00000     0.00000     1.25520  0.0
    326    314    315    316   5     0.00000     0.00000     1.25520  0.0
    326    314    315    327   5     0.00000     0.00000     1.25520  0.0
    326    314    315    328   5     0.00000     0.00000     1.25520  0.0
    312    314    321    320   5     4.74884    -0.63178     1.67360  0.0
    312    314    321    336   5     0.00000     0.00000     1.25520  0.0
    312    314    321    337   5     0.00000     0.00000     1.25520  0.0
    315    314    321    320   5     4.74884    -0.63178     1.67360  0.0
    315    314    321    336   5     0.00000     0.00000     1.25520  0.0
    315    314    321    337   5     0.00000     0.00000     1.25520  0.0
    326    314    321    320   5     0.00000     0.00000     1.25520  0.0
    326    314    321    336   5     0.00000     0.00000     1.25520  0.0
    326    314    321    337   5     0.00000     0.00000     1.25520  0.0
    314    315    316    317   5     7.23832    -1.46440     1.74054  0.0
    314    315    316    318   5     4.74884    -0.63178     1.67360  0.0
    314    315    316    329   5     0.00000     0.00000     1.25520  0.0
    327    315    316    317   5     0.00000     0.00000     1.95811  0.0
    327    315    316    318   5     0.00000     0.00000     1.25520  0.0
    327    315    316    329   5     0.00000     0.00000     1.25520  0.0
    328    315    316    317   5     0.00000     0.00000     1.95811  0.0
    328    315    316    318   5     0.00000     0.00000     1.25520  0.0
    328    315    316    329   5     0.00000     0.00000     1.25520  0.0
    315    316    317    330   5    -0.97069    -0.79078     1.77820  0.0
    318    316    317    330   5    -0.97069    -0.79078     1.77820  0.0
    329    316    317    330   5     0.00000     0.00000     1.62758  0.0
    315    316    318    319   5     4.74884    -0.63178     1.67360  0.0
    315    316    318    320   5     4.74884    -0.63178     1.67360  0.0
    315    316    318    331   5     0.00000     0.00000     1.25520  0.0
    317    316    318    319   5     7.23832    -1.46440     1.74054  0.0
    317    316    318    320   5     7.23832    -1.46440     1.74054  0.0
    317    316    318    331   5     0.00000     0.00000     1.95811  0.0
    329    316    318    319   5     0.00000     0.00000     1.25520  0.0
    329    316    318    320   5     0.00000     0.00000     1.25520  0.0
    329    316    318    331   5     0.00000     0.00000     1.25520  0.0
    316    318    319    332   5     0.00000     0.00000     1.25520  0.0
    316    318    319    333   5     0.00000     0.00000     1.25520  0.0
    316    318    319    338   5     5.25092    -2.58990     2.28446  0.0
    320    318    319    332   5     0.00000     0.00000     1.25520  0.0
    320    318    319    333   5     0.00000     0.00000     1.25520  0.0
    320    318    319    338   5     5.25092    -2.58990     2.28446  0.0
    331    318    319    332   5     0.00000     0.00000     1.25520  0.0
    331    318    319    333   5     0.00000     0.00000     1.25520  0.0
    331    318    319    338   5     0.00000     0.00000     1.95811  0.0
    316    318    320    321   5     4.74884    -0.63178     1.67360  0.0
    316    318    320    334   5     0.00000     0.00000     1.25520  0.0
    316    318    320    335   5     0.00000     0.00000     1.25520  0.0
    319    318    320    321   5     4.74884    -0.63178     1.67360  0.0
    319    318    320    334   5     0.00000     0.00000     1.25520  0.0
    319    318    320    335   5     0.00000     0.00000     1.25520  0.0
    331    318    320    321   5     0.00000     0.00000     1.25520  0.0
    331    318    320    334   5     0.00000     0.00000     1.25520  0.0
    331    318    320    335   5     0.00000     0.00000     1.25520  0.0
    318    319    338    339   5     0.52300    -0.09205     2.34722  0.0
    332    319    338    339   5     0.00000     0.00000     3.10034  0.0
    333    319    338    339   5     0.00000     0.00000     3.10034  0.0
    318    320    321    314   5     4.74884    -0.63178     1.67360  0.0
    318    320    321    336   5     0.00000     0.00000     1.25520  0.0
    318    320    321    337   5     0.00000     0.00000     1.25520  0.0
    334    320    321    314   5     0.00000     0.00000     1.25520  0.0
    334    320    321    336   5     0.00000     0.00000     1.25520  0.0
    334    320    321    337   5     0.00000     0.00000     1.25520  0.0
    335    320    321    314   5     0.00000     0.00000     1.25520  0.0
    335    320    321    336   5     0.00000     0.00000     1.25520  0.0
    335    320    321    337   5     0.00000     0.00000     1.25520  0.0
    319    338    339    340   5     0.52300    -0.09205     2.34722  0.0
    319    338    339    350   5     0.00000     0.00000     3.10034  0.0
    319    338    339    351   5     0.00000     0.00000     3.10034  0.0
    338    339    340    341   5    30.90721   -15.30926     0.00000  0.0
    338    339    340    342   5     5.25092    -2.58990     2.28446  0.0
    338    339    340    352   5     0.00000     0.00000     1.95811  0.0
    350    339    340    341   5     0.00000     0.00000     1.95811  0.0
    350    339    340    342   5     0.00000     0.00000     1.25520  0.0
    350    339    340    352   5     0.00000     0.00000     1.25520  0.0
    351    339    340    341   5     0.00000     0.00000     1.95811  0.0
    351    339    340    342   5     0.00000     0.00000     1.25520  0.0
    351    339    340    352   5     0.00000     0.00000     1.25520  0.0
    339    340    341    353   5    -0.97069    -0.79078     1.77820  0.0
    342    340    341    353   5    -0.97069    -0.79078     1.77820  0.0
    352    340    341    353   5     0.00000     0.00000     1.62758  0.0
    339    340    342    343   5     4.74884    -0.63178     1.67360  0.0
    339    340    342    349   5     4.74884    -0.63178     1.67360  0.0
    339    340    342    354   5     0.00000     0.00000     1.25520  0.0
    341    340    342    343   5     7.23832    -1.46440     1.74054  0.0
    341    340    342    349   5     7.23832    -1.46440     1.74054  0.0
    341    340    342    354   5     0.00000     0.00000     1.95811  0.0
    352    340    342    343   5     0.00000     0.00000     1.25520  0.0
    352    340    342    349   5     0.00000     0.00000     1.25520  0.0
    352    340    342    354   5     0.00000     0.00000     1.25520  0.0
    340    342    343    344   5     4.74884    -0.63178     1.67360  0.0
    340    342    343    355   5     0.00000     0.00000     1.25520  0.0
    340    342    343    356   5     0.00000     0.00000     1.25520  0.0
    349    342    343    344   5     4.74884    -0.63178     1.67360  0.0
    349    342    343    355   5     0.00000     0.00000     1.25520  0.0
    349    342    343    356   5     0.00000     0.00000     1.25520  0.0
    354    342    343    344   5     0.00000     0.00000     1.25520  0.0
    354    342    343    355   5     0.00000     0.00000     1.25520  0.0
    354    342    343    356   5     0.00000     0.00000     1.25520  0.0
    340    342    349    348   5     4.74884    -0.63178     1.67360  0.0
    340    342    349    364   5     0.00000     0.00000     1.25520  0.0
    340    342    349    365   5     0.00000     0.00000     1.25520  0.0
    343    342    349    348   5     4.74884    -0.63178     1.67360  0.0
    343    342    349    364   5     0.00000     0.00000     1.25520  0.0
    343    342    349    365   5     0.00000     0.00000     1.25520  0.0
    354    342    349    348   5     0.00000     0.00000     1.25520  0.0
    354    342    349    364   5     0.00000     0.00000     1.25520  0.0
    354    342    349    365   5     0.00000     0.00000     1.25520  0.0
    342    343    344    345   5     7.23832    -1.46440     1.74054  0.0
    342    343    344    346   5     4.74884    -0.63178     1.67360  0.0
    342    343    344    357   5     0.00000     0.00000     1.25520  0.0
    355    343    344    345   5     0.00000     0.00000     1.95811  0.0
    355    343    344    346   5     0.00000     0.00000     1.25520  0.0
    355    343    344    357   5     0.00000     0.00000     1.25520  0.0
    356    343    344    345   5     0.00000     0.00000     1.95811  0.0
    356    343    344    346   5     0.00000     0.00000     1.25520  0.0
    356    343    344    357   5     0.00000     0.00000     1.25520  0.0
    343    344    345    358   5    -0.97069    -0.79078     1.77820  0.0
    346    344    345    358   5    -0.97069    -0.79078     1.77820  0.0
    357    344    345    358   5     0.00000     0.00000     1.62758  0.0
    343    344    346    347   5     4.74884    -0.63178     1.67360  0.0
    343    344    346    348   5     4.74884    -0.63178     1.67360  0.0
    343    344    346    359   5     0.00000     0.00000     1.25520  0.0
    345    344    346    347   5     7.23832    -1.46440     1.74054  0.0
    345    344    346    348   5     7.23832    -1.46440     1.74054  0.0
    345    344    346    359   5     0.00000     0.00000     1.95811  0.0
    357    344    346    347   5     0.00000     0.00000     1.25520  0.0
    357    344    346    348   5     0.00000     0.00000     1.25520  0.0
    357    344    346    359   5     0.00000     0.00000     1.25520  0.0
    344    346    347    360   5     0.00000     0.00000     1.25520  0.0
    344    346    347    361   5     0.00000     0.00000     1.25520  0.0
    344    346    347    366   5     5.25092    -2.58990     2.28446  0.0
    348    346    347    360   5     0.00000     0.00000     1.25520  0.0
    348    346    347    361   5     0.00000     0.00000     1.25520  0.0
    348    346    347    366   5     5.25092    -2.58990     2.28446  0.0
    359    346    347    360   5     0.00000     0.00000     1.25520  0.0
    359    346    347    361   5     0.00000     0.00000     1.25520  0.0
    359    346    347    366   5     0.00000     0.00000     1.95811  0.0
    344    346    348    349   5     4.74884    -0.63178     1.67360  0.0
    344    346    348    362   5     0.00000     0.00000     1.25520  0.0
    344    346    348    363   5     0.00000     0.00000     1.25520  0.0
    347    346    348    349   5     4.74884    -0.63178     1.67360  0.0
    347    346    348    362   5     0.00000     0.00000     1.25520  0.0
    347    346    348    363   5     0.00000     0.00000     1.25520  0.0
    359    346    348    349   5     0.00000     0.00000     1.25520  0.0
    359    346    348    362   5     0.00000     0.00000     1.25520  0.0
    359    346    348    363   5     0.00000     0.00000     1.25520  0.0
    346    347    366    367   5     0.52300    -0.09205     2.34722  0.0
    360    347    366    367   5     0.00000     0.00000     3.10034  0.0
    361    347    366    367   5     0.00000     0.00000     3.10034  0.0
    346    348    349    342   5     4.74884    -0.63178     1.67360  0.0
    346    348    349    364   5     0.00000     0.00000     1.25520  0.0
    346    348    349    365   5     0.00000     0.00000     1.25520  0.0
    362    348    349    342   5     0.00000     0.00000     1.25520  0.0
    362    348    349    364   5     0.00000     0.00000     1.25520  0.0
    362    348    349    365   5     0.00000     0.00000     1.25520  0.0
    363    348    349    342   5     0.00000     0.00000     1.25520  0.0
    363    348    349    364   5     0.00000     0.00000     1.25520  0.0
    363    348    349    365   5     0.00000     0.00000     1.25520  0.0
    347    366    367    368   5     0.52300    -0.09205     2.34722  0.0
    347    366    367    378   5     0.00000     0.00000     3.10034  0.0
    347    366    367    379   5     0.00000     0.00000     3.10034  0.0
    366    367    368    369   5    30.90721   -15.30926     0.00000  0.0
    366    367    368    370   5     5.25092    -2.58990     2.28446  0.0
    366    367    368    380   5     0.00000     0.00000     1.95811  0.0
    378    367    368    369   5     0.00000     0.00000     1.95811  0.0
    378    367    368    370   5     0.00000     0.00000     1.25520  0.0
    378    367    368    380   5     0.00000     0.00000     1.25520  0.0
    379    367    368    369   5     0.00000     0.00000     1.95811  0.0
    379    367    368    370   5     0.00000     0.00000     1.25520  0.0
    379    367    368    380   5     0.00000     0.00000     1.25520  0.0
    367    368    369    381   5    -0.97069    -0.79078     1.77820  0.0
    370    368    369    381   5    -0.97069    -0.79078     1.77820  0.0
    380    368    369    381   5     0.00000     0.00000     1.62758  0.0
    367    368    370    371   5     4.74884    -0.63178     1.67360  0.0
    367    368    370    377   5     4.74884    -0.63178     1.67360  0.0
    367    368    370    382   5     0.00000     0.00000     1.25520  0.0
    369    368    370    371   5     7.23832    -1.46440     1.74054  0.0
    369    368    370    377   5     7.23832    -1.46440     1.74054  0.0
    369    368    370    382   5     0.00000     0.00000     1.95811  0.0
    380    368    370    371   5     0.00000     0.00000     1.25520  0.0
    380    368    370    377   5     0.00000     0.00000     1.25520  0.0
    380    368    370    382   5     0.00000     0.00000     1.25520  0.0
    368    370    371    372   5     4.74884    -0.63178     1.67360  0.0
    368    370    371    383   5     0.00000     0.00000     1.25520  0.0
    368    370    371    384   5     0.00000     0.00000     1.25520  0.0
    377    370    371    372   5     4.74884    -0.63178     1.67360  0.0
    377    370    371    383   5     0.00000     0.00000     1.25520  0.0
    377    370    371    384   5     0.00000     0.00000     1.25520  0.0
    382    370    371    372   5     0.00000     0.00000     1.25520  0.0
    382    370    371    383   5     0.00000     0.00000     1.25520  0.0
    382    370    371    384   5     0.00000     0.00000     1.25520  0.0
    368    370    377    376   5     4.74884    -0.63178     1.67360  0.0
    368    370    377    392   5     0.00000     0.00000     1.25520  0.0
    368    370    377    393   5     0.00000     0.00000     1.25520  0.0
    371    370    377    376   5     4.74884    -0.63178     1.67360  0.0
    371    370    377    392   5     0.00000     0.00000     1.25520  0.0
    371    370    377    393   5     0.00000     0.00000     1.25520  0.0
    382    370    377    376   5     0.00000     0.00000     1.25520  0.0
    382    370    377    392   5     0.00000     0.00000     1.25520  0.0
    382    370    377    393   5     0.00000     0.00000     1.25520  0.0
    370    371    372    373   5     7.23832    -1.46440     1.74054  0.0
    370    371    372    374   5     4.74884    -0.63178     1.67360  0.0
    370    371    372    385   5     0.00000     0.00000     1.25520  0.0
    383    371    372    373   5     0.00000     0.00000     1.95811  0.0
    383    371    372    374   5     0.00000     0.00000     1.25520  0.0
    383    371    372    385   5     0.00000     0.00000     1.25520  0.0
    384    371    372    373   5     0.00000     0.00000     1.95811  0.0
    384    371    372    374   5     0.00000     0.00000     1.25520  0.0
    384    371    372    385   5     0.00000     0.00000     1.25520  0.0
    371    372    373    386   5    -0.97069    -0.79078     1.77820  0.0
    374    372    373    386   5    -0.97069    -0.79078     1.77820  0.0
    385    372    373    386   5     0.00000     0.00000     1.62758  0.0
    371    372    374    375   5     4.74884    -0.63178     1.67360  0.0
    371    372    374    376   5     4.74884    -0.63178     1.67360  0.0
    371    372    374    387   5     0.00000     0.00000     1.25520  0.0
    373    372    374    375   5     7.23832    -1.46440     1.74054  0.0
    373    372    374    376   5     7.23832    -1.46440     1.74054  0.0
    373    372    374    387   5     0.00000     0.00000     1.95811  0.0
    385    372    374    375   5     0.00000     0.00000     1.25520  0.0
    385    372    374    376   5     0.00000     0.00000     1.25520  0.0
    385    372    374    387   5     0.00000     0.00000     1.25520  0.0
    372    374    375    388   5     0.00000     0.00000     1.25520  0.0
    372    374    375    389   5     0.00000     0.00000     1.25520  0.0
    372    374    375    394   5     5.25092    -2.58990     2.28446  0.0
    376    374    375    388   5     0.00000     0.00000     1.25520  0.0
    376    374    375    389   5     0.00000     0.00000     1.25520  0.0
    376    374    375    394   5     5.25092    -2.58990     2.28446  0.0
    387    374    375    388   5     0.00000     0.00000     1.25520  0.0
    387    374    375    389   5     0.00000     0.00000     1.25520  0.0
    387    374    375    394   5     0.00000     0.00000     1.95811  0.0
    372    374    376    377   5     4.74884    -0.63178     1.67360  0.0
    372    374    376    390   5     0.00000     0.00000     1.25520  0.0
    372    374    376    391   5     0.00000     0.00000     1.25520  0.0
    375    374    376    377   5     4.74884    -0.63178     1.67360  0.0
    375    374    376    390   5     0.00000     0.00000     1.25520  0.0
    375    374    376    391   5     0.00000     0.00000     1.25520  0.0
    387    374    376    377   5     0.00000     0.00000     1.25520  0.0
    387    374    376    390   5     0.00000     0.00000     1.25520  0.0
    387    374    376    391   5     0.00000     0.00000     1.25520  0.0
    374    375    394    395   5     0.52300    -0.09205     2.34722  0.0
    388    375    394    395   5     0.00000     0.00000     3.10034  0.0
    389    375    394    395   5     0.00000     0.00000     3.10034  0.0
    374    376    377    370   5     4.74884    -0.63178     1.67360  0.0
    374    376    377    392   5     0.00000     0.00000     1.25520  0.0
    374    376    377    393   5     0.00000     0.00000     1.25520  0.0
    390    376    377    370   5     0.00000     0.00000     1.25520  0.0
    390    376    377    392   5     0.00000     0.00000     1.25520  0.0
    390    376    377    393   5     0.00000     0.00000     1.25520  0.0
    391    376    377    370   5     0.00000     0.00000     1.25520  0.0
    391    376    377    392   5     0.00000     0.00000     1.25520  0.0
    391    376    377    393   5     0.00000     0.00000     1.25520  0.0
    375    394    395    396   5     0.52300    -0.09205     2.34722  0.0
    375    394    395    406   5     0.00000     0.00000     3.10034  0.0
    375    394    395    407   5     0.00000     0.00000     3.10034  0.0
    394    395    396    397   5    30.90721   -15.30926     0.00000  0.0
    394    395    396    398   5     5.25092    -2.58990     2.28446  0.0
    394    395    396    408   5     0.00000     0.00000     1.95811  0.0
    406    395    396    397   5     0.00000     0.00000     1.95811  0.0
    406    395    396    398   5     0.00000     0.00000     1.25520  0.0
    406    395    396    408   5     0.00000     0.00000     1.25520  0.0
    407    395    396    397   5     0.00000     0.00000     1.95811  0.0
    407    395    396    398   5     0.00000     0.00000     1.25520  0.0
    407    395    396    408   5     0.00000     0.00000     1.25520  0.0
    395    396    397    409   5    -0.97069    -0.79078     1.77820  0.0
    398    396    397    409   5    -0.97069    -0.79078     1.77820  0.0
    408    396    397    409   5     0.00000     0.00000     1.62758  0.0
    395    396    398    399   5     4.74884    -0.63178     1.67360  0.0
    395    396    398    405   5     4.74884    -0.63178     1.67360  0.0
    395    396    398    410   5     0.00000     0.00000     1.25520  0.0
    397    396    398    399   5     7.23832    -1.46440     1.74054  0.0
    397    396    398    405   5     7.23832    -1.46440     1.74054  0.0
    397    396    398    410   5     0.00000     0.00000     1.95811  0.0
    408    396    398    399   5     0.00000     0.00000     1.25520  0.0
    408    396    398    405   5     0.00000     0.00000     1.25520  0.0
    408    396    398    410   5     0.00000     0.00000     1.25520  0.0
    396    398    399    400   5     4.74884    -0.63178     1.67360  0.0
    396    398    399    411   5     0.00000     0.00000     1.25520  0.0
    396    398    399    412   5     0.00000     0.00000     1.25520  0.0
    405    398    399    400   5     4.74884    -0.63178     1.67360  0.0
    405    398    399    411   5     0.00000     0.00000     1.25520  0.0
    405    398    399    412   5     0.00000     0.00000     1.25520  0.0
    410    398    399    400   5     0.00000     0.00000     1.25520  0.0
    410    398    399    411   5     0.00000     0.00000     1.25520  0.0
    410    398    399    412   5     0.00000     0.00000     1.25520  0.0
    396    398    405    404   5     4.74884    -0.63178     1.67360  0.0
    396    398    405    420   5     0.00000     0.00000     1.25520  0.0
    396    398    405    421   5     0.00000     0.00000     1.25520  0.0
    399    398    405    404   5     4.74884    -0.63178     1.67360  0.0
    399    398    405    420   5     0.00000     0.00000     1.25520  0.0
    399    398    405    421   5     0.00000     0.00000     1.25520  0.0
    410    398    405    404   5     0.00000     0.00000     1.25520  0.0
    410    398    405    420   5     0.00000     0.00000     1.25520  0.0
    410    398    405    421   5     0.00000     0.00000     1.25520  0.0
    398    399    400    401   5     7.23832    -1.46440     1.74054  0.0
    398    399    400    402   5     4.74884    -0.63178     1.67360  0.0
    398    399    400    413   5     0.00000     0.00000     1.25520  0.0
    411    399    400    401   5     0.00000     0.00000     1.95811  0.0
    411    399    400    402   5     0.00000     0.00000     1.25520  0.0
    411    399    400    413   5     0.00000     0.00000     1.25520  0.0
    412    399    400    401   5     0.00000     0.00000     1.95811  0.0
    412    399    400    402   5     0.00000     0.00000     1.25520  0.0
    412    399    400    413   5     0.00000     0.00000     1.25520  0.0
    399    400    401    414   5    -0.97069    -0.79078     1.77820  0.0
    402    400    401    414   5    -0.97069    -0.79078     1.77820  0.0
    413    400    401    414   5     0.00000     0.00000     1.62758  0.0
    399    400    402    403   5     4.74884    -0.63178     1.67360  0.0
    399    400    402    404   5     4.74884    -0.63178     1.67360  0.0
    399    400    402    415   5     0.00000     0.00000     1.25520  0.0
    401    400    402    403   5     7.23832    -1.46440     1.74054  0.0
    401    400    402    404   5     7.23832    -1.46440     1.74054  0.0
    401    400    402    415   5     0.00000     0.00000     1.95811  0.0
    413    400    402    403   5     0.00000     0.00000     1.25520  0.0
    413    400    402    404   5     0.00000     0.00000     1.25520  0.0
    413    400    402    415   5     0.00000     0.00000     1.25520  0.0
    400    402    403    416   5     0.00000     0.00000     1.25520  0.0
    400    402    403    417   5     0.00000     0.00000     1.25520  0.0
    400    402    403    422   5     5.25092    -2.58990     2.28446  0.0
    404    402    403    416   5     0.00000     0.00000     1.25520  0.0
    404    402    403    417   5     0.00000     0.00000     1.25520  0.0
    404    402    403    422   5     5.25092    -2.58990     2.28446  0.0
    415    402    403    416   5     0.00000     0.00000     1.25520  0.0
    415    402    403    417   5     0.00000     0.00000     1.25520  0.0
    415    402    403    422   5     0.00000     0.00000     1.95811  0.0
    400    402    404    405   5     4.74884    -0.63178     1.67360  0.0
    400    402    404    418   5     0.00000     0.00000     1.25520  0.0
    400    402    404    419   5     0.00000     0.00000     1.25520  0.0
    403    402    404    405   5     4.74884    -0.63178     1.67360  0.0
    403    402    404    418   5     0.00000     0.00000     1.25520  0.0
    403    402    404    419   5     0.00000     0.00000     1.25520  0.0
    415    402    404    405   5     0.00000     0.00000     1.25520  0.0
    415    402    404    418   5     0.00000     0.00000     1.25520  0.0
    415    402    404    419   5     0.00000     0.00000     1.25520  0.0
    402    403    422    423   5     0.52300    -0.09205     2.34722  0.0
    416    403    422    423   5     0.00000     0.00000     3.10034  0.0
    417    403    422    423   5     0.00000     0.00000     3.10034  0.0
    402    404    405    398   5     4.74884    -0.63178     1.67360  0.0
    402    404    405    420   5     0.00000     0.00000     1.25520  0.0
    402    404    405    421   5     0.00000     0.00000     1.25520  0.0
    418    404    405    398   5     0.00000     0.00000     1.25520  0.0
    418    404    405    420   5     0.00000     0.00000     1.25520  0.0
    418    404    405    421   5     0.00000     0.00000     1.25520  0.0
    419    404    405    398   5     0.00000     0.00000     1.25520  0.0
    419    404    405    420   5     0.00000     0.00000     1.25520  0.0
    419    404    405    421   5     0.00000     0.00000     1.25520  0.0
    403    422    423    424   5     0.52300    -0.09205     2.34722  0.0
    403    422    423    434   5     0.00000     0.00000     3.10034  0.0
    403    422    423    435   5     0.00000     0.00000     3.10034  0.0
    422    423    424    425   5    30.90721   -15.30926     0.00000  0.0
    422    423    424    426   5     5.25092    -2.58990     2.28446  0.0
    422    423    424    436   5     0.00000     0.00000     1.95811  0.0
    434    423    424    425   5     0.00000     0.00000     1.95811  0.0
    434    423    424    426   5     0.00000     0.00000     1.25520  0.0
    434    423    424    436   5     0.00000     0.00000     1.25520  0.0
    435    423    424    425   5     0.00000     0.00000     1.95811  0.0
    435    423    424    426   5     0.00000     0.00000     1.25520  0.0
    435    423    424    436   5     0.00000     0.00000     1.25520  0.0
    423    424    425    437   5    -0.97069    -0.79078     1.77820  0.0
    426    424    425    437   5    -0.97069    -0.79078     1.77820  0.0
    436    424    425    437   5     0.00000     0.00000     1.62758  0.0
    423    424    426    427   5     4.74884    -0.63178     1.67360  0.0
    423    424    426    433   5     4.74884    -0.63178     1.67360  0.0
    423    424    426    438   5     0.00000     0.00000     1.25520  0.0
    425    424    426    427   5     7.23832    -1.46440     1.74054  0.0
    425    424    426    433   5     7.23832    -1.46440     1.74054  0.0
    425    424    426    438   5     0.00000     0.00000     1.95811  0.0
    436    424    426    427   5     0.00000     0.00000     1.25520  0.0
    436    424    426    433   5     0.00000     0.00000     1.25520  0.0
    436    424    426    438   5     0.00000     0.00000     1.25520  0.0
    424    426    427    428   5     4.74884    -0.63178     1.67360  0.0
    424    426    427    439   5     0.00000     0.00000     1.25520  0.0
    424    426    427    440   5     0.00000     0.00000     1.25520  0.0
    433    426    427    428   5     4.74884    -0.63178     1.67360  0.0
    433    426    427    439   5     0.00000     0.00000     1.25520  0.0
    433    426    427    440   5     0.00000     0.00000     1.25520  0.0
    438    426    427    428   5     0.00000     0.00000     1.25520  0.0
    438    426    427    439   5     0.00000     0.00000     1.25520  0.0
    438    426    427    440   5     0.00000     0.00000     1.25520  0.0
    424    426    433    432   5     4.74884    -0.63178     1.67360  0.0
    424    426    433    448   5     0.00000     0.00000     1.25520  0.0
    424    426    433    449   5     0.00000     0.00000     1.25520  0.0
    427    426    433    432   5     4.74884    -0.63178     1.67360  0.0
    427    426    433    448   5     0.00000     0.00000     1.25520  0.0
    427    426    433    449   5     0.00000     0.00000     1.25520  0.0
    438    426    433    432   5     0.00000     0.00000     1.25520  0.0
    438    426    433    448   5     0.00000     0.00000     1.25520  0.0
    438    426    433    449   5     0.00000     0.00000     1.25520  0.0
    426    427    428    429   5     7.23832    -1.46440     1.74054  0.0
    426    427    428    430   5     4.74884    -0.63178     1.67360  0.0
    426    427    428    441   5     0.00000     0.00000     1.25520  0.0
    439    427    428    429   5     0.00000     0.00000     1.95811  0.0
    439    427    428    430   5     0.00000     0.00000     1.25520  0.0
    439    427    428    441   5     0.00000     0.00000     1.25520  0.0
    440    427    428    429   5     0.00000     0.00000     1.95811  0.0
    440    427    428    430   5     0.00000     0.00000     1.25520  0.0
    440    427    428    441   5     0.00000     0.00000     1.25520  0.0
    427    428    429    442   5    -0.97069    -0.79078     1.77820  0.0
    430    428    429    442   5    -0.97069    -0.79078     1.77820  0.0
    441    428    429    442   5     0.00000     0.00000     1.62758  0.0
    427    428    430    431   5     4.74884    -0.63178     1.67360  0.0
    427    428    430    432   5     4.74884    -0.63178     1.67360  0.0
    427    428    430    443   5     0.00000     0.00000     1.25520  0.0
    429    428    430    431   5     7.23832    -1.46440     1.74054  0.0
    429    428    430    432   5     7.23832    -1.46440     1.74054  0.0
    429    428    430    443   5     0.00000     0.00000     1.95811  0.0
    441    428    430    431   5     0.00000     0.00000     1.25520  0.0
    441    428    430    432   5     0.00000     0.00000     1.25520  0.0
    441    428    430    443   5     0.00000     0.00000     1.25520  0.0
    428    430    431    444   5     0.00000     0.00000     1.25520  0.0
    428    430    431    445   5     0.00000     0.00000     1.25520  0.0
    428    430    431    450   5     5.25092    -2.58990     2.28446  0.0
    432    430    431    444   5     0.00000     0.00000     1.25520  0.0
    432    430    431    445   5     0.00000     0.00000     1.25520  0.0
    432    430    431    450   5     5.25092    -2.58990     2.28446  0.0
    443    430    431    444   5     0.00000     0.00000     1.25520  0.0
    443    430    431    445   5     0.00000     0.00000     1.25520  0.0
    443    430    431    450   5     0.00000     0.00000     1.95811  0.0
    428    430    432    433   5     4.74884    -0.63178     1.67360  0.0
    428    430    432    446   5     0.00000     0.00000     1.25520  0.0
    428    430    432    447   5     0.00000     0.00000     1.25520  0.0
    431    430    432    433   5     4.74884    -0.63178     1.67360  0.0
    431    430    432    446   5     0.00000     0.00000     1.25520  0.0
    431    430    432    447   5     0.00000     0.00000     1.25520  0.0
    443    430    432    433   5     0.00000     0.00000     1.25520  0.0
    443    430    432    446   5     0.00000     0.00000     1.25520  0.0
    443    430    432    447   5     0.00000     0.00000     1.25520  0.0
    430    431    450    451   5     0.52300    -0.09205     2.34722  0.0
    444    431    450    451   5     0.00000     0.00000     3.10034  0.0
    445    431    450    451   5     0.00000     0.00000     3.10034  0.0
    430    432    433    426   5     4.74884    -0.63178     1.67360  0.0
    430    432    433    448   5     0.00000     0.00000     1.25520  0.0
    430    432    433    449   5     0.00000     0.00000     1.25520  0.0
    446    432    433    426   5     0.00000     0.00000     1.25520  0.0
    446    432    433    448   5     0.00000     0.00000     1.25520  0.0
    446    432    433    449   5     0.00000     0.00000     1.25520  0.0
    447    432    433    426   5     0.00000     0.00000     1.25520  0.0
    447    432    433    448   5     0.00000     0.00000     1.25520  0.0
    447    432    433    449   5     0.00000     0.00000     1.25520  0.0
    431    450    451    452   5     0.52300    -0.09205     2.34722  0.0
    431    450    451    462   5     0.00000     0.00000     3.10034  0.0
    431    450    451    463   5     0.00000     0.00000     3.10034  0.0
    450    451    452    453   5    30.90721   -15.30926     0.00000  0.0
    450    451    452    454   5     5.25092    -2.58990     2.28446  0.0
    450    451    452    464   5     0.00000     0.00000     1.95811  0.0
    462    451    452    453   5     0.00000     0.00000     1.95811  0.0
    462    451    452    454   5     0.00000     0.00000     1.25520  0.0
    462    451    452    464   5     0.00000     0.00000     1.25520  0.0
    463    451    452    453   5     0.00000     0.00000     1.95811  0.0
    463    451    452    454   5     0.00000     0.00000     1.25520  0.0
    463    451    452    464   5     0.00000     0.00000     1.25520  0.0
    451    452    453    465   5    -0.97069    -0.79078     1.77820  0.0
    454    452    453    465   5    -0.97069    -0.79078     1.77820  0.0
    464    452    453    465   5     0.00000     0.00000     1.62758  0.0
    451    452    454    455   5     4.74884    -0.63178     1.67360  0.0
    451    452    454    461   5     4.74884    -0.63178     1.67360  0.0
    451    452    454    466   5     0.00000     0.00000     1.25520  0.0
    453    452    454    455   5     7.23832    -1.46440     1.74054  0.0
    453    452    454    461   5     7.23832    -1.46440     1.74054  0.0
    453    452    454    466   5     0.00000     0.00000     1.95811  0.0
    464    452    454    455   5     0.00000     0.00000     1.25520  0.0
    464    452    454    461   5     0.00000     0.00000     1.25520  0.0
    464    452    454    466   5     0.00000     0.00000     1.25520  0.0
    452    454    455    456   5     4.74884    -0.63178     1.67360  0.0
    452    454    455    467   5     0.00000     0.00000     1.25520  0.0
    452    454    455    468   5     0.00000     0.00000     1.25520  0.0
    461    454    455    456   5     4.74884    -0.63178     1.67360  0.0
    461    454    455    467   5     0.00000     0.00000     1.25520  0.0
    461    454    455    468   5     0.00000     0.00000     1.25520  0.0
    466    454    455    456   5     0.00000     0.00000     1.25520  0.0
    466    454    455    467   5     0.00000     0.00000     1.25520  0.0
    466    454    455    468   5     0.00000     0.00000     1.25520  0.0
    452    454    461    460   5     4.74884    -0.63178     1.67360  0.0
    452    454    461    476   5     0.00000     0.00000     1.25520  0.0
    452    454    461    477   5     0.00000     0.00000     1.25520  0.0
    455    454    461    460   5     4.74884    -0.63178     1.67360  0.0
    455    454    461    476   5     0.00000     0.00000     1.25520  0.0
    455    454    461    477   5     0.00000     0.00000     1.25520  0.0
    466    454    461    460   5     0.00000     0.00000     1.25520  0.0
    466    454    461    476   5     0.00000     0.00000     1.25520  0.0
    466    454    461    477   5     0.00000     0.00000     1.25520  0.0
    454    455    456    457   5     7.23832    -1.46440     1.74054  0.0
    454    455    456    458   5     4.74884    -0.63178     1.67360  0.0
    454    455    456    469   5     0.00000     0.00000     1.25520  0.0
    467    455    456    457   5     0.00000     0.00000     1.95811  0.0
    467    455    456    458   5     0.00000     0.00000     1.25520  0.0
    467    455    456    469   5     0.00000     0.00000     1.25520  0.0
    468    455    456    457   5     0.00000     0.00000     1.95811  0.0
    468    455    456    458   5     0.00000     0.00000     1.25520  0.0
    468    455    456    469   5     0.00000     0.00000     1.25520  0.0
    455    456    457    470   5    -0.97069    -0.79078     1.77820  0.0
    458    456    457    470   5    -0.97069    -0.79078     1.77820  0.0
    469    456    457    470   5     0.00000     0.00000     1.62758  0.0
    455    456    458    459   5     4.74884    -0.63178     1.67360  0.0
    455    456    458    460   5     4.74884    -0.63178     1.67360  0.0
    455    456    458    471   5     0.00000     0.00000     1.25520  0.0
    457    456    458    459   5     7.23832    -1.46440     1.74054  0.0
    457    456    458    460   5     7.23832    -1.46440     1.74054  0.0
    457    456    458    471   5     0.00000     0.00000     1.95811  0.0
    469    456    458    459   5     0.00000     0.00000     1.25520  0.0
    469    456    458    460   5     0.00000     0.00000     1.25520  0.0
    469    456    458    471   5     0.00000     0.00000     1.25520  0.0
    456    458    459    472   5     0.00000     0.00000     1.25520  0.0
    456    458    459    473   5     0.00000     0.00000     1.25520  0.0
    456    458    459    478   5     5.25092    -2.58990     2.28446  0.0
    460    458    459    472   5     0.00000     0.00000     1.25520  0.0
    460    458    459    473   5     0.00000     0.00000     1.25520  0.0
    460    458    459    478   5     5.25092    -2.58990     2.28446  0.0
    471    458    459    472   5     0.00000     0.00000     1.25520  0.0
    471    458    459    473   5     0.00000     0.00000     1.25520  0.0
    471    458    459    478   5     0.00000     0.00000     1.95811  0.0
    456    458    460    461   5     4.74884    -0.63178     1.67360  0.0
    456    458    460    474   5     0.00000     0.00000     1.25520  0.0
    456    458    460    475   5     0.00000     0.00000     1.25520  0.0
    459    458    460    461   5     4.74884    -0.63178     1.67360  0.0
    459    458    460    474   5     0.00000     0.00000     1.25520  0.0
    459    458    460    475   5     0.00000     0.00000     1.25520  0.0
    471    458    460    461   5     0.00000     0.00000     1.25520  0.0
    471    458    460    474   5     0.00000     0.00000     1.25520  0.0
    471    458    460    475   5     0.00000     0.00000     1.25520  0.0
    458    459    478    479   5     0.52300    -0.09205     2.34722  0.0
    472    459    478    479   5     0.00000     0.00000     3.10034  0.0
    473    459    478    479   5     0.00000     0.00000     3.10034  0.0
    458    460    461    454   5     4.74884    -0.63178     1.67360  0.0
    458    460    461    476   5     0.00000     0.00000     1.25520  0.0
    458    460    461    477   5     0.00000     0.00000     1.25520  0.0
    474    460    461    454   5     0.00000     0.00000     1.25520  0.0
    474    460    461    476   5     0.00000     0.00000     1.25520  0.0
    474    460    461    477   5     0.00000     0.00000     1.25520  0.0
    475    460    461    454   5     0.00000     0.00000     1.25520  0.0
    475    460    461    476   5     0.00000     0.00000     1.25520  0.0
    475    460    461    477   5     0.00000     0.00000     1.25520  0.0
    459    478    479    480   5     0.52300    -0.09205     2.34722  0.0
    459    478    479    490   5     0.00000     0.00000     3.10034  0.0
    459    478    479    491   5     0.00000     0.00000     3.10034  0.0
    478    479    480    481   5    30.90721   -15.30926     0.00000  0.0
    478    479    480    482   5     5.25092    -2.58990     2.28446  0.0
    478    479    480    492   5     0.00000     0.00000     1.95811  0.0
    490    479    480    481   5     0.00000     0.00000     1.95811  0.0
    490    479    480    482   5     0.00000     0.00000     1.25520  0.0
    490    479    480    492   5     0.00000     0.00000     1.25520  0.0
    491    479    480    481   5     0.00000     0.00000     1.95811  0.0
    491    479    480    482   5     0.00000     0.00000     1.25520  0.0
    491    479    480    492   5     0.00000     0.00000     1.25520  0.0
    479    480    481    493   5    -0.97069    -0.79078     1.77820  0.0
    482    480    481    493   5    -0.97069    -0.79078     1.77820  0.0
    492    480    481    493   5     0.00000     0.00000     1.62758  0.0
    479    480    482    483   5     4.74884    -0.63178     1.67360  0.0
    479    480    482    489   5     4.74884    -0.63178     1.67360  0.0
    479    480    482    494   5     0.00000     0.00000     1.25520  0.0
    481    480    482    483   5     7.23832    -1.46440     1.74054  0.0
    481    480    482    489   5     7.23832    -1.46440     1.74054  0.0
    481    480    482    494   5     0.00000     0.00000     1.95811  0.0
    492    480    482    483   5     0.00000     0.00000     1.25520  0.0
    492    480    482    489   5     0.00000     0.00000     1.25520  0.0
    492    480    482    494   5     0.00000     0.00000     1.25520  0.0
    480    482    483    484   5     4.74884    -0.63178     1.67360  0.0
    480    482    483    495   5     0.00000     0.00000     1.25520  0.0
    480    482    483    496   5     0.00000     0.00000     1.25520  0.0
    489    482    483    484   5     4.74884    -0.63178     1.67360  0.0
    489    482    483    495   5     0.00000     0.00000     1.25520  0.0
    489    482    483    496   5     0.00000     0.00000     1.25520  0.0
    494    482    483    484   5     0.00000     0.00000     1.25520  0.0
    494    482    483    495   5     0.00000     0.00000     1.25520  0.0
    494    482    483    496   5     0.00000     0.00000     1.25520  0.0
    480    482    489    488   5     4.74884    -0.63178     1.67360  0.0
    480    482    489    504   5     0.00000     0.00000     1.25520  0.0
    480    482    489    505   5     0.00000     0.00000     1.25520  0.0
    483    482    489    488   5     4.74884    -0.63178     1.67360  0.0
    483    482    489    504   5     0.00000     0.00000     1.25520  0.0
    483    482    489    505   5     0.00000     0.00000     1.25520  0.0
    494    482    489    488   5     0.00000     0.00000     1.25520  0.0
    494    482    489    504   5     0.00000     0.00000     1.25520  0.0
    494    482    489    505   5     0.00000     0.00000     1.25520  0.0
    482    483    484    485   5     7.23832    -1.46440     1.74054  0.0
    482    483    484    486   5     4.74884    -0.63178     1.67360  0.0
    482    483    484    497   5     0.00000     0.00000     1.25520  0.0
    495    483    484    485   5     0.00000     0.00000     1.95811  0.0
    495    483    484    486   5     0.00000     0.00000     1.25520  0.0
    495    483    484    497   5     0.00000     0.00000     1.25520  0.0
    496    483    484    485   5     0.00000     0.00000     1.95811  0.0
    496    483    484    486   5     0.00000     0.00000     1.25520  0.0
    496    483    484    497   5     0.00000     0.00000     1.25520  0.0
    483    484    485    498   5    -0.97069    -0.79078     1.77820  0.0
    486    484    485    498   5    -0.97069    -0.79078     1.77820  0.0
    497    484    485    498   5     0.00000     0.00000     1.62758  0.0
    483    484    486    487   5     4.74884    -0.63178     1.67360  0.0
    483    484    486    488   5     4.74884    -0.63178     1.67360  0.0
    483    484    486    499   5     0.00000     0.00000     1.25520  0.0
    485    484    486    487   5     7.23832    -1.46440     1.74054  0.0
    485    484    486    488   5     7.23832    -1.46440     1.74054  0.0
    485    484    486    499   5     0.00000     0.00000     1.95811  0.0
    497    484    486    487   5     0.00000     0.00000     1.25520  0.0
    497    484    486    488   5     0.00000     0.00000     1.25520  0.0
    497    484    486    499   5     0.00000     0.00000     1.25520  0.0
    484    486    487    500   5     0.00000     0.00000     1.25520  0.0
    484    486    487    501   5     0.00000     0.00000     1.25520  0.0
    484    486    487    506   5     5.25092    -2.58990     2.28446  0.0
    488    486    487    500   5     0.00000     0.00000     1.25520  0.0
    488    486    487    501   5     0.00000     0.00000     1.25520  0.0
    488    486    487    506   5     5.25092    -2.58990     2.28446  0.0
    499    486    487    500   5     0.00000     0.00000     1.25520  0.0
    499    486    487    501   5     0.00000     0.00000     1.25520  0.0
    499    486    487    506   5     0.00000     0.00000     1.95811  0.0
    484    486    488    489   5     4.74884    -0.63178     1.67360  0.0
    484    486    488    502   5     0.00000     0.00000     1.25520  0.0
    484    486    488    503   5     0.00000     0.00000     1.25520  0.0
    487    486    488    489   5     4.74884    -0.63178     1.67360  0.0
    487    486    488    502   5     0.00000     0.00000     1.25520  0.0
    487    486    488    503   5     0.00000     0.00000     1.25520  0.0
    499    486    488    489   5     0.00000     0.00000     1.25520  0.0
    499    486    488    502   5     0.00000     0.00000     1.25520  0.0
    499    486    488    503   5     0.00000     0.00000     1.25520  0.0
    486    487    506    507   5     0.52300    -0.09205     2.34722  0.0
    500    487    506    507   5     0.00000     0.00000     3.10034  0.0
    501    487    506    507   5     0.00000     0.00000     3.10034  0.0
    486    488    489    482   5     4.74884    -0.63178     1.67360  0.0
    486    488    489    504   5     0.00000     0.00000     1.25520  0.0
    486    488    489    505   5     0.00000     0.00000     1.25520  0.0
    502    488    489    482   5     0.00000     0.00000     1.25520  0.0
    502    488    489    504   5     0.00000     0.00000     1.25520  0.0
    502    488    489    505   5     0.00000     0.00000     1.25520  0.0
    503    488    489    482   5     0.00000     0.00000     1.25520  0.0
    503    488    489    504   5     0.00000     0.00000     1.25520  0.0
    503    488    489    505   5     0.00000     0.00000     1.25520  0.0
    487    506    507    508   5     0.52300    -0.09205     2.34722  0.0
    487    506    507    518   5     0.00000     0.00000     3.10034  0.0
    487    506    507    519   5     0.00000     0.00000     3.10034  0.0
    506    507    508    509   5    30.90721   -15.30926     0.00000  0.0
    506    507    508    510   5     5.25092    -2.58990     2.28446  0.0
    506    507    508    520   5     0.00000     0.00000     1.95811  0.0
    518    507    508    509   5     0.00000     0.00000     1.95811  0.0
    518    507    508    510   5     0.00000     0.00000     1.25520  0.0
    518    507    508    520   5     0.00000     0.00000     1.25520  0.0
    519    507    508    509   5     0.00000     0.00000     1.95811  0.0
    519    507    508    510   5     0.00000     0.00000     1.25520  0.0
    519    507    508    520   5     0.00000     0.00000     1.25520  0.0
    507    508    509    521   5    -0.97069    -0.79078     1.77820  0.0
    510    508    509    521   5    -0.97069    -0.79078     1.77820  0.0
    520    508    509    521   5     0.00000     0.00000     1.62758  0.0
    507    508    510    511   5     4.74884    -0.63178     1.67360  0.0
    507    508    510    517   5     4.74884    -0.63178     1.67360  0.0
    507    508    510    522   5     0.00000     0.00000     1.25520  0.0
    509    508    510    511   5     7.23832    -1.46440     1.74054  0.0
    509    508    510    517   5     7.23832    -1.46440     1.74054  0.0
    509    508    510    522   5     0.00000     0.00000     1.95811  0.0
    520    508    510    511   5     0.00000     0.00000     1.25520  0.0
    520    508    510    517   5     0.00000     0.00000     1.25520  0.0
    520    508    510    522   5     0.00000     0.00000     1.25520  0.0
    508    510    511    512   5     4.74884    -0.63178     1.67360  0.0
    508    510    511    523   5     0.00000     0.00000     1.25520  0.0
    508    510    511    524   5     0.00000     0.00000     1.25520  0.0
    517    510    511    512   5     4.74884    -0.63178     1.67360  0.0
    517    510    511    523   5     0.00000     0.00000     1.25520  0.0
    517    510    511    524   5     0.00000     0.00000     1.25520  0.0
    522    510    511    512   5     0.00000     0.00000     1.25520  0.0
    522    510    511    523   5     0.00000     0.00000     1.25520  0.0
    522    510    511    524   5     0.00000     0.00000     1.25520  0.0
    508    510    517    516   5     4.74884    -0.63178     1.67360  0.0
    508    510    517    532   5     0.00000     0.00000     1.25520  0.0
    508    510    517    533   5     0.00000     0.00000     1.25520  0.0
    511    510    517    516   5     4.74884    -0.63178     1.67360  0.0
    511    510    517    532   5     0.00000     0.00000     1.25520  0.0
    511    510    517    533   5     0.00000     0.00000     1.25520  0.0
    522    510    517    516   5     0.00000     0.00000     1.25520  0.0
    522    510    517    532   5     0.00000     0.00000     1.25520  0.0
    522    510    517    533   5     0.00000     0.00000     1.25520  0.0
    510    511    512    513   5     7.23832    -1.46440     1.74054  0.0
    510    511    512    514   5     4.74884    -0.63178     1.67360  0.0
    510    511    512    525   5     0.00000     0.00000     1.25520  0.0
    523    511    512    513   5     0.00000     0.00000     1.95811  0.0
    523    511    512    514   5     0.00000     0.00000     1.25520  0.0
    523    511    512    525   5     0.00000     0.00000     1.25520  0.0
    524    511    512    513   5     0.00000     0.00000     1.95811  0.0
    524    511    512    514   5     0.00000     0.00000     1.25520  0.0
    524    511    512    525   5     0.00000     0.00000     1.25520  0.0
    511    512    513    526   5    -0.97069    -0.79078     1.77820  0.0
    514    512    513    526   5    -0.97069    -0.79078     1.77820  0.0
    525    512    513    526   5     0.00000     0.00000     1.62758  0.0
    511    512    514    515   5     4.74884    -0.63178     1.67360  0.0
    511    512    514    516   5     4.74884    -0.63178     1.67360  0.0
    511    512    514    527   5     0.00000     0.00000     1.25520  0.0
    513    512    514    515   5     7.23832    -1.46440     1.74054  0.0
    513    512    514    516   5     7.23832    -1.46440     1.74054  0.0
    513    512    514    527   5     0.00000     0.00000     1.95811  0.0
    525    512    514    515   5     0.00000     0.00000     1.25520  0.0
    525    512    514    516   5     0.00000     0.00000     1.25520  0.0
    525    512    514    527   5     0.00000     0.00000     1.25520  0.0
    512    514    515    528   5     0.00000     0.00000     1.25520  0.0
    512    514    515    529   5     0.00000     0.00000     1.25520  0.0
    512    514    515    534   5     5.25092    -2.58990     2.28446  0.0
    516    514    515    528   5     0.00000     0.00000     1.25520  0.0
    516    514    515    529   5     0.00000     0.00000     1.25520  0.0
    516    514    515    534   5     5.25092    -2.58990     2.28446  0.0
    527    514    515    528   5     0.00000     0.00000     1.25520  0.0
    527    514    515    529   5     0.00000     0.00000     1.25520  0.0
    527    514    515    534   5     0.00000     0.00000     1.95811  0.0
    512    514    516    517   5     4.74884    -0.63178     1.67360  0.0
    512    514    516    530   5     0.00000     0.00000     1.25520  0.0
    512    514    516    531   5     0.00000     0.00000     1.25520  0.0
    515    514    516    517   5     4.74884    -0.63178     1.67360  0.0
    515    514    516    530   5     0.00000     0.00000     1.25520  0.0
    515    514    516    531   5     0.00000     0.00000     1.25520  0.0
    527    514    516    517   5     0.00000     0.00000     1.25520  0.0
    527    514    516    530   5     0.00000     0.00000     1.25520  0.0
    527    514    516    531   5     0.00000     0.00000     1.25520  0.0
    514    515    534    535   5     0.52300    -0.09205     2.34722  0.0
    528    515    534    535   5     0.00000     0.00000     3.10034  0.0
    529    515    534    535   5     0.00000     0.00000     3.10034  0.0
    514    516    517    510   5     4.74884    -0.63178     1.67360  0.0
    514    516    517    532   5     0.00000     0.00000     1.25520  0.0
    514    516    517    533   5     0.00000     0.00000     1.25520  0.0
    530    516    517    510   5     0.00000     0.00000     1.25520  0.0
    530    516    517    532   5     0.00000     0.00000     1.25520  0.0
    530    516    517    533   5     0.00000     0.00000     1.25520  0.0
    531    516    517    510   5     0.00000     0.00000     1.25520  0.0
    531    516    517    532   5     0.00000     0.00000     1.25520  0.0
    531    516    517    533   5     0.00000     0.00000     1.25520  0.0
    515    534    535    536   5     0.52300    -0.09205     2.34722  0.0
    515    534    535    546   5     0.00000     0.00000     3.10034  0.0
    515    534    535    547   5     0.00000     0.00000     3.10034  0.0
    534    535    536    537   5    30.90721   -15.30926     0.00000  0.0
    534    535    536    538   5     5.25092    -2.58990     2.28446  0.0
    534    535    536    548   5     0.00000     0.00000     1.95811  0.0
    546    535    536    537   5     0.00000     0.00000     1.95811  0.0
    546    535    536    538   5     0.00000     0.00000     1.25520  0.0
    546    535    536    548   5     0.00000     0.00000     1.25520  0.0
    547    535    536    537   5     0.00000     0.00000     1.95811  0.0
    547    535    536    538   5     0.00000     0.00000     1.25520  0.0
    547    535    536    548   5     0.00000     0.00000     1.25520  0.0
    535    536    537    549   5    -0.97069    -0.79078     1.77820  0.0
    538    536    537    549   5    -0.97069    -0.79078     1.77820  0.0
    548    536    537    549   5     0.00000     0.00000     1.62758  0.0
    535    536    538    539   5     4.74884    -0.63178     1.67360  0.0
    535    536    538    545   5     4.74884    -0.63178     1.67360  0.0
    535    536    538    550   5     0.00000     0.00000     1.25520  0.0
    537    536    538    539   5     7.23832    -1.46440     1.74054  0.0
    537    536    538    545   5     7.23832    -1.46440     1.74054  0.0
    537    536    538    550   5     0.00000     0.00000     1.95811  0.0
    548    536    538    539   5     0.00000     0.00000     1.25520  0.0
    548    536    538    545   5     0.00000     0.00000     1.25520  0.0
    548    536    538    550   5     0.00000     0.00000     1.25520  0.0
    536    538    539    540   5     4.74884    -0.63178     1.67360  0.0
    536    538    539    551   5     0.00000     0.00000     1.25520  0.0
    536    538    539    552   5     0.00000     0.00000     1.25520  0.0
    545    538    539    540   5     4.74884    -0.63178     1.67360  0.0
    545    538    539    551   5     0.00000     0.00000     1.25520  0.0
    545    538    539    552   5     0.00000     0.00000     1.25520  0.0
    550    538    539    540   5     0.00000     0.00000     1.25520  0.0
    550    538    539    551   5     0.00000     0.00000     1.25520  0.0
    550    538    539    552   5     0.00000     0.00000     1.25520  0.0
    536    538    545    544   5     4.74884    -0.63178     1.67360  0.0
    536    538    545    560   5     0.00000     0.00000     1.25520  0.0
    536    538    545    561   5     0.00000     0.00000     1.25520  0.0
    539    538    545    544   5     4.74884    -0.63178     1.67360  0.0
    539    538    545    560   5     0.00000     0.00000     1.25520  0.0
    539    538    545    561   5     0.00000     0.00000     1.25520  0.0
    550    538    545    544   5     0.00000     0.00000     1.25520  0.0
    550    538    545    560   5     0.00000     0.00000     1.25520  0.0
    550    538    545    561   5     0.00000     0.00000     1.25520  0.0
    538    539    540    541   5     7.23832    -1.46440     1.74054  0.0
    538    539    540    542   5     4.74884    -0.63178     1.67360  0.0
    538    539    540    553   5     0.00000     0.00000     1.25520  0.0
    551    539    540    541   5     0.00000     0.00000     1.95811  0.0
    551    539    540    542   5     0.00000     0.00000     1.25520  0.0
    551    539    540    553   5     0.00000     0.00000     1.25520  0.0
    552    539    540    541   5     0.00000     0.00000     1.95811  0.0
    552    539    540    542   5     0.00000     0.00000     1.25520  0.0
    552    539    540    553   5     0.00000     0.00000     1.25520  0.0
    539    540    541    554   5    -0.97069    -0.79078     1.77820  0.0
    542    540    541    554   5    -0.97069    -0.79078     1.77820  0.0
    553    540    541    554   5     0.00000     0.00000     1.62758  0.0
    539    540    542    543   5     4.74884    -0.63178     1.67360  0.0
    539    540    542    544   5     4.74884    -0.63178     1.67360  0.0
    539    540    542    555   5     0.00000     0.00000     1.25520  0.0
    541    540    542    543   5     7.23832    -1.46440     1.74054  0.0
    541    540    542    544   5     7.23832    -1.46440     1.74054  0.0
    541    540    542    555   5     0.00000     0.00000     1.95811  0.0
    553    540    542    543   5     0.00000     0.00000     1.25520  0.0
    553    540    542    544   5     0.00000     0.00000     1.25520  0.0
    553    540    542    555   5     0.00000     0.00000     1.25520  0.0
    540    542    543    556   5     0.00000     0.00000     1.25520  0.0
    540    542    543    557   5     0.00000     0.00000     1.25520  0.0
    540    542    543    562   5     0.00000     0.00000     1.25520  0.0
    544    542    543    556   5     0.00000     0.00000     1.25520  0.0
    544    542    543    557   5     0.00000     0.00000     1.25520  0.0
    544    542    543    562   5     0.00000     0.00000     1.25520  0.0
    555    542    543    556   5     0.00000     0.00000     1.25520  0.0
    555    542    543    557   5     0.00000     0.00000     1.25520  0.0
    555    542    543    562   5     0.00000     0.00000     1.25520  0.0
    540    542    544    545   5     4.74884    -0.63178     1.67360  0.0
    540    542    544    558   5     0.00000     0.00000     1.25520  0.0
    540    542    544    559   5     0.00000     0.00000     1.25520  0.0
    543    542    544    545   5     4.74884    -0.63178     1.67360  0.0
    543    542    544    558   5     0.00000     0.00000     1.25520  0.0
    543    542    544    559   5     0.00000     0.00000     1.25520  0.0
    555    542    544    545   5     0.00000     0.00000     1.25520  0.0
    555    542    544    558   5     0.00000     0.00000     1.25520  0.0
    555    542    544    559   5     0.00000     0.00000     1.25520  0.0
    542    544    545    538   5     4.74884    -0.63178     1.67360  0.0
    542    544    545    560   5     0.00000     0.00000     1.25520  0.0
    542    544    545    561   5     0.00000     0.00000     1.25520  0.0
    558    544    545    538   5     0.00000     0.00000     1.25520  0.0
    558    544    545    560   5     0.00000     0.00000     1.25520  0.0
    558    544    545    561   5     0.00000     0.00000     1.25520  0.0
    559    544    545    538   5     0.00000     0.00000     1.25520  0.0
    559    544    545    560   5     0.00000     0.00000     1.25520  0.0
    559    544    545    561   5     0.00000     0.00000     1.25520  0.0
