;
; Gromacs include topology (itp) file.
; For Molecular Group XYZ
; Force field scheme: opls2005
; Produced from DL_FIELD v4.11
;


[ moleculetype ]
; name    nrexcl
XYZ    3

[ atoms ]
; nr   type   resnr   residu    atom    cgnr    charge    mass
    1        CT    1  MOL      C1     1  -0.1800000   12.0115
    2        CT    1  MOL      C2     2  -0.1200000   12.0115
    3        CT    1  MOL      C3     3  -0.1200000   12.0115
    4        CT    1  MOL      C4     4  -0.1200000   12.0115
    5        CT    1  MOL      C5     5  -0.1200000   12.0115
    6        CT    1  MOL      C6     6  -0.1200000   12.0115
    7        CT    1  MOL      C7     7  -0.1200000   12.0115
    8        CT    1  MOL      C8     8   0.1900000   12.0115
    9       OES    1  MOL      O9     9  -0.3300000   15.9994
   10       CO4    1  MOL     C10    10   0.5100000   12.0115
   11         O    1  MOL     O11    11  -0.4300000   15.9994
   12        CT    1  MOL     C12    12  -0.0600000   12.0115
   13        CT    1  MOL     C13    13  -0.1800000   12.0115
   14        CT    1  MOL     C14    14  -0.1200000   12.0115
   15        HC    1  MOL     H15    15   0.0600000    1.0080
   16        HC    1  MOL     H16    16   0.0600000    1.0080
   17        HC    1  MOL     H17    17   0.0600000    1.0080
   18        HC    1  MOL     H18    18   0.0600000    1.0080
   19        HC    1  MOL     H19    19   0.0600000    1.0080
   20        HC    1  MOL     H20    20   0.0600000    1.0080
   21        HC    1  MOL     H21    21   0.0600000    1.0080
   22        HC    1  MOL     H22    22   0.0600000    1.0080
   23        HC    1  MOL     H23    23   0.0600000    1.0080
   24        HC    1  MOL     H24    24   0.0600000    1.0080
   25        HC    1  MOL     H25    25   0.0600000    1.0080
   26        HC    1  MOL     H26    26   0.0600000    1.0080
   27        HC    1  MOL     H27    27   0.0600000    1.0080
   28        HC    1  MOL     H28    28   0.0600000    1.0080
   29        HC    1  MOL     H29    29   0.0600000    1.0080
   30       HAE    1  MOL     H30    30   0.0300000    1.0080
   31       HAE    1  MOL     H31    31   0.0300000    1.0080
   32        HC    1  MOL     H32    32   0.0600000    1.0080
   33        HC    1  MOL     H33    33   0.0600000    1.0080
   34        HC    1  MOL     H34    34   0.0600000    1.0080
   35        HC    1  MOL     H35    35   0.0600000    1.0080
   36        HC    1  MOL     H36    36   0.0600000    1.0080
   37       HAE    1  MOL     H37    37   0.0600000    1.0080
   38        CT    1  MOL     C38    38  -0.1800000   12.0115
   39        CT    1  MOL     C39    39  -0.1200000   12.0115
   40        CT    1  MOL     C40    40  -0.1200000   12.0115
   41        CT    1  MOL     C41    41  -0.1200000   12.0115
   42        CT    1  MOL     C42    42  -0.1200000   12.0115
   43        CT    1  MOL     C43    43  -0.1200000   12.0115
   44        CT    1  MOL     C44    44  -0.1200000   12.0115
   45        CT    1  MOL     C45    45   0.1900000   12.0115
   46       OES    1  MOL     O46    46  -0.3300000   15.9994
   47       CO4    1  MOL     C47    47   0.5100000   12.0115
   48         O    1  MOL     O48    48  -0.4300000   15.9994
   49        CT    1  MOL     C49    49   0.0000000   12.0115
   50        CT    1  MOL     C50    50  -0.1800000   12.0115
   51        CT    1  MOL     C51    51  -0.1200000   12.0115
   52        HC    1  MOL     H52    52   0.0600000    1.0080
   53        HC    1  MOL     H53    53   0.0600000    1.0080
   54        HC    1  MOL     H54    54   0.0600000    1.0080
   55        HC    1  MOL     H55    55   0.0600000    1.0080
   56        HC    1  MOL     H56    56   0.0600000    1.0080
   57        HC    1  MOL     H57    57   0.0600000    1.0080
   58        HC    1  MOL     H58    58   0.0600000    1.0080
   59        HC    1  MOL     H59    59   0.0600000    1.0080
   60        HC    1  MOL     H60    60   0.0600000    1.0080
   61        HC    1  MOL     H61    61   0.0600000    1.0080
   62        HC    1  MOL     H62    62   0.0600000    1.0080
   63        HC    1  MOL     H63    63   0.0600000    1.0080
   64        HC    1  MOL     H64    64   0.0600000    1.0080
   65        HC    1  MOL     H65    65   0.0600000    1.0080
   66        HC    1  MOL     H66    66   0.0600000    1.0080
   67       HAE    1  MOL     H67    67   0.0300000    1.0080
   68       HAE    1  MOL     H68    68   0.0300000    1.0080
   69        HC    1  MOL     H69    69   0.0600000    1.0080
   70        HC    1  MOL     H70    70   0.0600000    1.0080
   71        HC    1  MOL     H71    71   0.0600000    1.0080
   72        HC    1  MOL     H72    72   0.0600000    1.0080
   73        HC    1  MOL     H73    73   0.0600000    1.0080
   74        CT    1  MOL     C74    74  -0.1800000   12.0115
   75        CT    1  MOL     C75    75  -0.1200000   12.0115
   76        CT    1  MOL     C76    76  -0.1200000   12.0115
   77        CT    1  MOL     C77    77  -0.1200000   12.0115
   78        CT    1  MOL     C78    78  -0.1200000   12.0115
   79        CT    1  MOL     C79    79  -0.1200000   12.0115
   80        CT    1  MOL     C80    80  -0.1200000   12.0115
   81        CT    1  MOL     C81    81   0.1900000   12.0115
   82       OES    1  MOL     O82    82  -0.3300000   15.9994
   83       CO4    1  MOL     C83    83   0.5100000   12.0115
   84         O    1  MOL     O84    84  -0.4300000   15.9994
   85        CT    1  MOL     C85    85   0.0000000   12.0115
   86        CT    1  MOL     C86    86  -0.1800000   12.0115
   87        CT    1  MOL     C87    87  -0.1200000   12.0115
   88        HC    1  MOL     H88    88   0.0600000    1.0080
   89        HC    1  MOL     H89    89   0.0600000    1.0080
   90        HC    1  MOL     H90    90   0.0600000    1.0080
   91        HC    1  MOL     H91    91   0.0600000    1.0080
   92        HC    1  MOL     H92    92   0.0600000    1.0080
   93        HC    1  MOL     H93    93   0.0600000    1.0080
   94        HC    1  MOL     H94    94   0.0600000    1.0080
   95        HC    1  MOL     H95    95   0.0600000    1.0080
   96        HC    1  MOL     H96    96   0.0600000    1.0080
   97        HC    1  MOL     H97    97   0.0600000    1.0080
   98        HC    1  MOL     H98    98   0.0600000    1.0080
   99        HC    1  MOL     H99    99   0.0600000    1.0080
  100        HC    1  MOL    H100   100   0.0600000    1.0080
  101        HC    1  MOL    H101   101   0.0600000    1.0080
  102        HC    1  MOL    H102   102   0.0600000    1.0080
  103       HAE    1  MOL    H103   103   0.0300000    1.0080
  104       HAE    1  MOL    H104   104   0.0300000    1.0080
  105        HC    1  MOL    H105   105   0.0600000    1.0080
  106        HC    1  MOL    H106   106   0.0600000    1.0080
  107        HC    1  MOL    H107   107   0.0600000    1.0080
  108        HC    1  MOL    H108   108   0.0600000    1.0080
  109        HC    1  MOL    H109   109   0.0600000    1.0080
  110        CT    1  MOL    C110   110  -0.1800000   12.0115
  111        CT    1  MOL    C111   111  -0.1200000   12.0115
  112        CT    1  MOL    C112   112  -0.1200000   12.0115
  113        CT    1  MOL    C113   113  -0.1200000   12.0115
  114        CT    1  MOL    C114   114  -0.1200000   12.0115
  115        CT    1  MOL    C115   115  -0.1200000   12.0115
  116        CT    1  MOL    C116   116  -0.1200000   12.0115
  117        CT    1  MOL    C117   117   0.1900000   12.0115
  118       OES    1  MOL    O118   118  -0.3300000   15.9994
  119       CO4    1  MOL    C119   119   0.5100000   12.0115
  120         O    1  MOL    O120   120  -0.4300000   15.9994
  121        CT    1  MOL    C121   121   0.0000000   12.0115
  122        CT    1  MOL    C122   122  -0.1800000   12.0115
  123        CT    1  MOL    C123   123  -0.1200000   12.0115
  124        HC    1  MOL    H124   124   0.0600000    1.0080
  125        HC    1  MOL    H125   125   0.0600000    1.0080
  126        HC    1  MOL    H126   126   0.0600000    1.0080
  127        HC    1  MOL    H127   127   0.0600000    1.0080
  128        HC    1  MOL    H128   128   0.0600000    1.0080
  129        HC    1  MOL    H129   129   0.0600000    1.0080
  130        HC    1  MOL    H130   130   0.0600000    1.0080
  131        HC    1  MOL    H131   131   0.0600000    1.0080
  132        HC    1  MOL    H132   132   0.0600000    1.0080
  133        HC    1  MOL    H133   133   0.0600000    1.0080
  134        HC    1  MOL    H134   134   0.0600000    1.0080
  135        HC    1  MOL    H135   135   0.0600000    1.0080
  136        HC    1  MOL    H136   136   0.0600000    1.0080
  137        HC    1  MOL    H137   137   0.0600000    1.0080
  138        HC    1  MOL    H138   138   0.0600000    1.0080
  139       HAE    1  MOL    H139   139   0.0300000    1.0080
  140       HAE    1  MOL    H140   140   0.0300000    1.0080
  141        HC    1  MOL    H141   141   0.0600000    1.0080
  142        HC    1  MOL    H142   142   0.0600000    1.0080
  143        HC    1  MOL    H143   143   0.0600000    1.0080
  144        HC    1  MOL    H144   144   0.0600000    1.0080
  145        HC    1  MOL    H145   145   0.0600000    1.0080
  146        CT    1  MOL    C146   146  -0.1800000   12.0115
  147        CT    1  MOL    C147   147  -0.1200000   12.0115
  148        CT    1  MOL    C148   148  -0.1200000   12.0115
  149        CT    1  MOL    C149   149  -0.1200000   12.0115
  150        CT    1  MOL    C150   150  -0.1200000   12.0115
  151        CT    1  MOL    C151   151  -0.1200000   12.0115
  152        CT    1  MOL    C152   152  -0.1200000   12.0115
  153        CT    1  MOL    C153   153   0.1900000   12.0115
  154       OES    1  MOL    O154   154  -0.3300000   15.9994
  155       CO4    1  MOL    C155   155   0.5100000   12.0115
  156         O    1  MOL    O156   156  -0.4300000   15.9994
  157        CT    1  MOL    C157   157   0.0000000   12.0115
  158        CT    1  MOL    C158   158  -0.1800000   12.0115
  159        CT    1  MOL    C159   159  -0.1200000   12.0115
  160        HC    1  MOL    H160   160   0.0600000    1.0080
  161        HC    1  MOL    H161   161   0.0600000    1.0080
  162        HC    1  MOL    H162   162   0.0600000    1.0080
  163        HC    1  MOL    H163   163   0.0600000    1.0080
  164        HC    1  MOL    H164   164   0.0600000    1.0080
  165        HC    1  MOL    H165   165   0.0600000    1.0080
  166        HC    1  MOL    H166   166   0.0600000    1.0080
  167        HC    1  MOL    H167   167   0.0600000    1.0080
  168        HC    1  MOL    H168   168   0.0600000    1.0080
  169        HC    1  MOL    H169   169   0.0600000    1.0080
  170        HC    1  MOL    H170   170   0.0600000    1.0080
  171        HC    1  MOL    H171   171   0.0600000    1.0080
  172        HC    1  MOL    H172   172   0.0600000    1.0080
  173        HC    1  MOL    H173   173   0.0600000    1.0080
  174        HC    1  MOL    H174   174   0.0600000    1.0080
  175       HAE    1  MOL    H175   175   0.0300000    1.0080
  176       HAE    1  MOL    H176   176   0.0300000    1.0080
  177        HC    1  MOL    H177   177   0.0600000    1.0080
  178        HC    1  MOL    H178   178   0.0600000    1.0080
  179        HC    1  MOL    H179   179   0.0600000    1.0080
  180        HC    1  MOL    H180   180   0.0600000    1.0080
  181        HC    1  MOL    H181   181   0.0600000    1.0080
  182        CT    1  MOL    C182   182  -0.1800000   12.0115
  183        CT    1  MOL    C183   183  -0.1200000   12.0115
  184        CT    1  MOL    C184   184  -0.1200000   12.0115
  185        CT    1  MOL    C185   185  -0.1200000   12.0115
  186        CT    1  MOL    C186   186  -0.1200000   12.0115
  187        CT    1  MOL    C187   187  -0.1200000   12.0115
  188        CT    1  MOL    C188   188  -0.1200000   12.0115
  189        CT    1  MOL    C189   189   0.1900000   12.0115
  190       OES    1  MOL    O190   190  -0.3300000   15.9994
  191       CO4    1  MOL    C191   191   0.5100000   12.0115
  192         O    1  MOL    O192   192  -0.4300000   15.9994
  193        CT    1  MOL    C193   193   0.0000000   12.0115
  194        CT    1  MOL    C194   194  -0.1800000   12.0115
  195        CT    1  MOL    C195   195  -0.1200000   12.0115
  196        HC    1  MOL    H196   196   0.0600000    1.0080
  197        HC    1  MOL    H197   197   0.0600000    1.0080
  198        HC    1  MOL    H198   198   0.0600000    1.0080
  199        HC    1  MOL    H199   199   0.0600000    1.0080
  200        HC    1  MOL    H200   200   0.0600000    1.0080
  201        HC    1  MOL    H201   201   0.0600000    1.0080
  202        HC    1  MOL    H202   202   0.0600000    1.0080
  203        HC    1  MOL    H203   203   0.0600000    1.0080
  204        HC    1  MOL    H204   204   0.0600000    1.0080
  205        HC    1  MOL    H205   205   0.0600000    1.0080
  206        HC    1  MOL    H206   206   0.0600000    1.0080
  207        HC    1  MOL    H207   207   0.0600000    1.0080
  208        HC    1  MOL    H208   208   0.0600000    1.0080
  209        HC    1  MOL    H209   209   0.0600000    1.0080
  210        HC    1  MOL    H210   210   0.0600000    1.0080
  211       HAE    1  MOL    H211   211   0.0300000    1.0080
  212       HAE    1  MOL    H212   212   0.0300000    1.0080
  213        HC    1  MOL    H213   213   0.0600000    1.0080
  214        HC    1  MOL    H214   214   0.0600000    1.0080
  215        HC    1  MOL    H215   215   0.0600000    1.0080
  216        HC    1  MOL    H216   216   0.0600000    1.0080
  217        HC    1  MOL    H217   217   0.0600000    1.0080
  218        CT    1  MOL    C218   218  -0.1800000   12.0115
  219        CT    1  MOL    C219   219  -0.1200000   12.0115
  220        CT    1  MOL    C220   220  -0.1200000   12.0115
  221        CT    1  MOL    C221   221  -0.1200000   12.0115
  222        CT    1  MOL    C222   222  -0.1200000   12.0115
  223        CT    1  MOL    C223   223  -0.1200000   12.0115
  224        CT    1  MOL    C224   224  -0.1200000   12.0115
  225        CT    1  MOL    C225   225   0.1900000   12.0115
  226       OES    1  MOL    O226   226  -0.3300000   15.9994
  227       CO4    1  MOL    C227   227   0.5100000   12.0115
  228         O    1  MOL    O228   228  -0.4300000   15.9994
  229        CT    1  MOL    C229   229   0.0000000   12.0115
  230        CT    1  MOL    C230   230  -0.1800000   12.0115
  231        CT    1  MOL    C231   231  -0.1200000   12.0115
  232        HC    1  MOL    H232   232   0.0600000    1.0080
  233        HC    1  MOL    H233   233   0.0600000    1.0080
  234        HC    1  MOL    H234   234   0.0600000    1.0080
  235        HC    1  MOL    H235   235   0.0600000    1.0080
  236        HC    1  MOL    H236   236   0.0600000    1.0080
  237        HC    1  MOL    H237   237   0.0600000    1.0080
  238        HC    1  MOL    H238   238   0.0600000    1.0080
  239        HC    1  MOL    H239   239   0.0600000    1.0080
  240        HC    1  MOL    H240   240   0.0600000    1.0080
  241        HC    1  MOL    H241   241   0.0600000    1.0080
  242        HC    1  MOL    H242   242   0.0600000    1.0080
  243        HC    1  MOL    H243   243   0.0600000    1.0080
  244        HC    1  MOL    H244   244   0.0600000    1.0080
  245        HC    1  MOL    H245   245   0.0600000    1.0080
  246        HC    1  MOL    H246   246   0.0600000    1.0080
  247       HAE    1  MOL    H247   247   0.0300000    1.0080
  248       HAE    1  MOL    H248   248   0.0300000    1.0080
  249        HC    1  MOL    H249   249   0.0600000    1.0080
  250        HC    1  MOL    H250   250   0.0600000    1.0080
  251        HC    1  MOL    H251   251   0.0600000    1.0080
  252        HC    1  MOL    H252   252   0.0600000    1.0080
  253        HC    1  MOL    H253   253   0.0600000    1.0080
  254        CT    1  MOL    C254   254  -0.1800000   12.0115
  255        CT    1  MOL    C255   255  -0.1200000   12.0115
  256        CT    1  MOL    C256   256  -0.1200000   12.0115
  257        CT    1  MOL    C257   257  -0.1200000   12.0115
  258        CT    1  MOL    C258   258  -0.1200000   12.0115
  259        CT    1  MOL    C259   259  -0.1200000   12.0115
  260        CT    1  MOL    C260   260  -0.1200000   12.0115
  261        CT    1  MOL    C261   261   0.1900000   12.0115
  262       OES    1  MOL    O262   262  -0.3300000   15.9994
  263       CO4    1  MOL    C263   263   0.5100000   12.0115
  264         O    1  MOL    O264   264  -0.4300000   15.9994
  265        CT    1  MOL    C265   265   0.0000000   12.0115
  266        CT    1  MOL    C266   266  -0.1800000   12.0115
  267        CT    1  MOL    C267   267  -0.1200000   12.0115
  268        HC    1  MOL    H268   268   0.0600000    1.0080
  269        HC    1  MOL    H269   269   0.0600000    1.0080
  270        HC    1  MOL    H270   270   0.0600000    1.0080
  271        HC    1  MOL    H271   271   0.0600000    1.0080
  272        HC    1  MOL    H272   272   0.0600000    1.0080
  273        HC    1  MOL    H273   273   0.0600000    1.0080
  274        HC    1  MOL    H274   274   0.0600000    1.0080
  275        HC    1  MOL    H275   275   0.0600000    1.0080
  276        HC    1  MOL    H276   276   0.0600000    1.0080
  277        HC    1  MOL    H277   277   0.0600000    1.0080
  278        HC    1  MOL    H278   278   0.0600000    1.0080
  279        HC    1  MOL    H279   279   0.0600000    1.0080
  280        HC    1  MOL    H280   280   0.0600000    1.0080
  281        HC    1  MOL    H281   281   0.0600000    1.0080
  282        HC    1  MOL    H282   282   0.0600000    1.0080
  283       HAE    1  MOL    H283   283   0.0300000    1.0080
  284       HAE    1  MOL    H284   284   0.0300000    1.0080
  285        HC    1  MOL    H285   285   0.0600000    1.0080
  286        HC    1  MOL    H286   286   0.0600000    1.0080
  287        HC    1  MOL    H287   287   0.0600000    1.0080
  288        HC    1  MOL    H288   288   0.0600000    1.0080
  289        HC    1  MOL    H289   289   0.0600000    1.0080
  290        CT    1  MOL    C290   290  -0.1800000   12.0115
  291        CT    1  MOL    C291   291  -0.1200000   12.0115
  292        CT    1  MOL    C292   292  -0.1200000   12.0115
  293        CT    1  MOL    C293   293  -0.1200000   12.0115
  294        CT    1  MOL    C294   294  -0.1200000   12.0115
  295        CT    1  MOL    C295   295  -0.1200000   12.0115
  296        CT    1  MOL    C296   296  -0.1200000   12.0115
  297        CT    1  MOL    C297   297   0.1900000   12.0115
  298       OES    1  MOL    O298   298  -0.3300000   15.9994
  299       CO4    1  MOL    C299   299   0.5100000   12.0115
  300         O    1  MOL    O300   300  -0.4300000   15.9994
  301        CT    1  MOL    C301   301   0.0000000   12.0115
  302        CT    1  MOL    C302   302  -0.1800000   12.0115
  303        CT    1  MOL    C303   303  -0.1200000   12.0115
  304        HC    1  MOL    H304   304   0.0600000    1.0080
  305        HC    1  MOL    H305   305   0.0600000    1.0080
  306        HC    1  MOL    H306   306   0.0600000    1.0080
  307        HC    1  MOL    H307   307   0.0600000    1.0080
  308        HC    1  MOL    H308   308   0.0600000    1.0080
  309        HC    1  MOL    H309   309   0.0600000    1.0080
  310        HC    1  MOL    H310   310   0.0600000    1.0080
  311        HC    1  MOL    H311   311   0.0600000    1.0080
  312        HC    1  MOL    H312   312   0.0600000    1.0080
  313        HC    1  MOL    H313   313   0.0600000    1.0080
  314        HC    1  MOL    H314   314   0.0600000    1.0080
  315        HC    1  MOL    H315   315   0.0600000    1.0080
  316        HC    1  MOL    H316   316   0.0600000    1.0080
  317        HC    1  MOL    H317   317   0.0600000    1.0080
  318        HC    1  MOL    H318   318   0.0600000    1.0080
  319       HAE    1  MOL    H319   319   0.0300000    1.0080
  320       HAE    1  MOL    H320   320   0.0300000    1.0080
  321        HC    1  MOL    H321   321   0.0600000    1.0080
  322        HC    1  MOL    H322   322   0.0600000    1.0080
  323        HC    1  MOL    H323   323   0.0600000    1.0080
  324        HC    1  MOL    H324   324   0.0600000    1.0080
  325        HC    1  MOL    H325   325   0.0600000    1.0080
  326        CT    1  MOL    C326   326  -0.1800000   12.0115
  327        CT    1  MOL    C327   327  -0.1200000   12.0115
  328        CT    1  MOL    C328   328  -0.1200000   12.0115
  329        CT    1  MOL    C329   329  -0.1200000   12.0115
  330        CT    1  MOL    C330   330  -0.1200000   12.0115
  331        CT    1  MOL    C331   331  -0.1200000   12.0115
  332        CT    1  MOL    C332   332  -0.1200000   12.0115
  333        CT    1  MOL    C333   333   0.1900000   12.0115
  334       OES    1  MOL    O334   334  -0.3300000   15.9994
  335       CO4    1  MOL    C335   335   0.5100000   12.0115
  336         O    1  MOL    O336   336  -0.4300000   15.9994
  337        CT    1  MOL    C337   337   0.0000000   12.0115
  338        CT    1  MOL    C338   338  -0.1800000   12.0115
  339        CT    1  MOL    C339   339  -0.1200000   12.0115
  340        HC    1  MOL    H340   340   0.0600000    1.0080
  341        HC    1  MOL    H341   341   0.0600000    1.0080
  342        HC    1  MOL    H342   342   0.0600000    1.0080
  343        HC    1  MOL    H343   343   0.0600000    1.0080
  344        HC    1  MOL    H344   344   0.0600000    1.0080
  345        HC    1  MOL    H345   345   0.0600000    1.0080
  346        HC    1  MOL    H346   346   0.0600000    1.0080
  347        HC    1  MOL    H347   347   0.0600000    1.0080
  348        HC    1  MOL    H348   348   0.0600000    1.0080
  349        HC    1  MOL    H349   349   0.0600000    1.0080
  350        HC    1  MOL    H350   350   0.0600000    1.0080
  351        HC    1  MOL    H351   351   0.0600000    1.0080
  352        HC    1  MOL    H352   352   0.0600000    1.0080
  353        HC    1  MOL    H353   353   0.0600000    1.0080
  354        HC    1  MOL    H354   354   0.0600000    1.0080
  355       HAE    1  MOL    H355   355   0.0300000    1.0080
  356       HAE    1  MOL    H356   356   0.0300000    1.0080
  357        HC    1  MOL    H357   357   0.0600000    1.0080
  358        HC    1  MOL    H358   358   0.0600000    1.0080
  359        HC    1  MOL    H359   359   0.0600000    1.0080
  360        HC    1  MOL    H360   360   0.0600000    1.0080
  361        HC    1  MOL    H361   361   0.0600000    1.0080
  362        CT    1  MOL    C362   362  -0.1800000   12.0115
  363        CT    1  MOL    C363   363  -0.1200000   12.0115
  364        CT    1  MOL    C364   364  -0.1200000   12.0115
  365        CT    1  MOL    C365   365  -0.1200000   12.0115
  366        CT    1  MOL    C366   366  -0.1200000   12.0115
  367        CT    1  MOL    C367   367  -0.1200000   12.0115
  368        CT    1  MOL    C368   368  -0.1200000   12.0115
  369        CT    1  MOL    C369   369   0.1900000   12.0115
  370       OES    1  MOL    O370   370  -0.3300000   15.9994
  371       CO4    1  MOL    C371   371   0.5100000   12.0115
  372         O    1  MOL    O372   372  -0.4300000   15.9994
  373        CT    1  MOL    C373   373   0.0000000   12.0115
  374        CT    1  MOL    C374   374  -0.1800000   12.0115
  375        CT    1  MOL    C375   375  -0.1200000   12.0115
  376        HC    1  MOL    H376   376   0.0600000    1.0080
  377        HC    1  MOL    H377   377   0.0600000    1.0080
  378        HC    1  MOL    H378   378   0.0600000    1.0080
  379        HC    1  MOL    H379   379   0.0600000    1.0080
  380        HC    1  MOL    H380   380   0.0600000    1.0080
  381        HC    1  MOL    H381   381   0.0600000    1.0080
  382        HC    1  MOL    H382   382   0.0600000    1.0080
  383        HC    1  MOL    H383   383   0.0600000    1.0080
  384        HC    1  MOL    H384   384   0.0600000    1.0080
  385        HC    1  MOL    H385   385   0.0600000    1.0080
  386        HC    1  MOL    H386   386   0.0600000    1.0080
  387        HC    1  MOL    H387   387   0.0600000    1.0080
  388        HC    1  MOL    H388   388   0.0600000    1.0080
  389        HC    1  MOL    H389   389   0.0600000    1.0080
  390        HC    1  MOL    H390   390   0.0600000    1.0080
  391       HAE    1  MOL    H391   391   0.0300000    1.0080
  392       HAE    1  MOL    H392   392   0.0300000    1.0080
  393        HC    1  MOL    H393   393   0.0600000    1.0080
  394        HC    1  MOL    H394   394   0.0600000    1.0080
  395        HC    1  MOL    H395   395   0.0600000    1.0080
  396        HC    1  MOL    H396   396   0.0600000    1.0080
  397        HC    1  MOL    H397   397   0.0600000    1.0080
  398        CT    1  MOL    C398   398  -0.1800000   12.0115
  399        CT    1  MOL    C399   399  -0.1200000   12.0115
  400        CT    1  MOL    C400   400  -0.1200000   12.0115
  401        CT    1  MOL    C401   401  -0.1200000   12.0115
  402        CT    1  MOL    C402   402  -0.1200000   12.0115
  403        CT    1  MOL    C403   403  -0.1200000   12.0115
  404        CT    1  MOL    C404   404  -0.1200000   12.0115
  405        CT    1  MOL    C405   405   0.1900000   12.0115
  406       OES    1  MOL    O406   406  -0.3300000   15.9994
  407       CO4    1  MOL    C407   407   0.5100000   12.0115
  408         O    1  MOL    O408   408  -0.4300000   15.9994
  409        CT    1  MOL    C409   409   0.0000000   12.0115
  410        CT    1  MOL    C410   410  -0.1800000   12.0115
  411        CT    1  MOL    C411   411  -0.1200000   12.0115
  412        HC    1  MOL    H412   412   0.0600000    1.0080
  413        HC    1  MOL    H413   413   0.0600000    1.0080
  414        HC    1  MOL    H414   414   0.0600000    1.0080
  415        HC    1  MOL    H415   415   0.0600000    1.0080
  416        HC    1  MOL    H416   416   0.0600000    1.0080
  417        HC    1  MOL    H417   417   0.0600000    1.0080
  418        HC    1  MOL    H418   418   0.0600000    1.0080
  419        HC    1  MOL    H419   419   0.0600000    1.0080
  420        HC    1  MOL    H420   420   0.0600000    1.0080
  421        HC    1  MOL    H421   421   0.0600000    1.0080
  422        HC    1  MOL    H422   422   0.0600000    1.0080
  423        HC    1  MOL    H423   423   0.0600000    1.0080
  424        HC    1  MOL    H424   424   0.0600000    1.0080
  425        HC    1  MOL    H425   425   0.0600000    1.0080
  426        HC    1  MOL    H426   426   0.0600000    1.0080
  427       HAE    1  MOL    H427   427   0.0300000    1.0080
  428       HAE    1  MOL    H428   428   0.0300000    1.0080
  429        HC    1  MOL    H429   429   0.0600000    1.0080
  430        HC    1  MOL    H430   430   0.0600000    1.0080
  431        HC    1  MOL    H431   431   0.0600000    1.0080
  432        HC    1  MOL    H432   432   0.0600000    1.0080
  433        HC    1  MOL    H433   433   0.0600000    1.0080
  434        CT    1  MOL    C434   434  -0.1800000   12.0115
  435        CT    1  MOL    C435   435  -0.1200000   12.0115
  436        CT    1  MOL    C436   436  -0.1200000   12.0115
  437        CT    1  MOL    C437   437  -0.1200000   12.0115
  438        CT    1  MOL    C438   438  -0.1200000   12.0115
  439        CT    1  MOL    C439   439  -0.1200000   12.0115
  440        CT    1  MOL    C440   440  -0.1200000   12.0115
  441        CT    1  MOL    C441   441   0.1900000   12.0115
  442       OES    1  MOL    O442   442  -0.3300000   15.9994
  443       CO4    1  MOL    C443   443   0.5100000   12.0115
  444         O    1  MOL    O444   444  -0.4300000   15.9994
  445        CT    1  MOL    C445   445   0.0000000   12.0115
  446        CT    1  MOL    C446   446  -0.1800000   12.0115
  447        CT    1  MOL    C447   447  -0.1200000   12.0115
  448        HC    1  MOL    H448   448   0.0600000    1.0080
  449        HC    1  MOL    H449   449   0.0600000    1.0080
  450        HC    1  MOL    H450   450   0.0600000    1.0080
  451        HC    1  MOL    H451   451   0.0600000    1.0080
  452        HC    1  MOL    H452   452   0.0600000    1.0080
  453        HC    1  MOL    H453   453   0.0600000    1.0080
  454        HC    1  MOL    H454   454   0.0600000    1.0080
  455        HC    1  MOL    H455   455   0.0600000    1.0080
  456        HC    1  MOL    H456   456   0.0600000    1.0080
  457        HC    1  MOL    H457   457   0.0600000    1.0080
  458        HC    1  MOL    H458   458   0.0600000    1.0080
  459        HC    1  MOL    H459   459   0.0600000    1.0080
  460        HC    1  MOL    H460   460   0.0600000    1.0080
  461        HC    1  MOL    H461   461   0.0600000    1.0080
  462        HC    1  MOL    H462   462   0.0600000    1.0080
  463       HAE    1  MOL    H463   463   0.0300000    1.0080
  464       HAE    1  MOL    H464   464   0.0300000    1.0080
  465        HC    1  MOL    H465   465   0.0600000    1.0080
  466        HC    1  MOL    H466   466   0.0600000    1.0080
  467        HC    1  MOL    H467   467   0.0600000    1.0080
  468        HC    1  MOL    H468   468   0.0600000    1.0080
  469        HC    1  MOL    H469   469   0.0600000    1.0080
  470        CT    1  MOL    C470   470  -0.1800000   12.0115
  471        CT    1  MOL    C471   471  -0.1200000   12.0115
  472        CT    1  MOL    C472   472  -0.1200000   12.0115
  473        CT    1  MOL    C473   473  -0.1200000   12.0115
  474        CT    1  MOL    C474   474  -0.1200000   12.0115
  475        CT    1  MOL    C475   475  -0.1200000   12.0115
  476        CT    1  MOL    C476   476  -0.1200000   12.0115
  477        CT    1  MOL    C477   477   0.1900000   12.0115
  478       OES    1  MOL    O478   478  -0.3300000   15.9994
  479       CO4    1  MOL    C479   479   0.5100000   12.0115
  480         O    1  MOL    O480   480  -0.4300000   15.9994
  481        CT    1  MOL    C481   481   0.0000000   12.0115
  482        CT    1  MOL    C482   482  -0.1800000   12.0115
  483        CT    1  MOL    C483   483  -0.1200000   12.0115
  484        HC    1  MOL    H484   484   0.0600000    1.0080
  485        HC    1  MOL    H485   485   0.0600000    1.0080
  486        HC    1  MOL    H486   486   0.0600000    1.0080
  487        HC    1  MOL    H487   487   0.0600000    1.0080
  488        HC    1  MOL    H488   488   0.0600000    1.0080
  489        HC    1  MOL    H489   489   0.0600000    1.0080
  490        HC    1  MOL    H490   490   0.0600000    1.0080
  491        HC    1  MOL    H491   491   0.0600000    1.0080
  492        HC    1  MOL    H492   492   0.0600000    1.0080
  493        HC    1  MOL    H493   493   0.0600000    1.0080
  494        HC    1  MOL    H494   494   0.0600000    1.0080
  495        HC    1  MOL    H495   495   0.0600000    1.0080
  496        HC    1  MOL    H496   496   0.0600000    1.0080
  497        HC    1  MOL    H497   497   0.0600000    1.0080
  498        HC    1  MOL    H498   498   0.0600000    1.0080
  499       HAE    1  MOL    H499   499   0.0300000    1.0080
  500       HAE    1  MOL    H500   500   0.0300000    1.0080
  501        HC    1  MOL    H501   501   0.0600000    1.0080
  502        HC    1  MOL    H502   502   0.0600000    1.0080
  503        HC    1  MOL    H503   503   0.0600000    1.0080
  504        HC    1  MOL    H504   504   0.0600000    1.0080
  505        HC    1  MOL    H505   505   0.0600000    1.0080
  506        CT    1  MOL    C506   506  -0.1800000   12.0115
  507        CT    1  MOL    C507   507  -0.1200000   12.0115
  508        CT    1  MOL    C508   508  -0.1200000   12.0115
  509        CT    1  MOL    C509   509  -0.1200000   12.0115
  510        CT    1  MOL    C510   510  -0.1200000   12.0115
  511        CT    1  MOL    C511   511  -0.1200000   12.0115
  512        CT    1  MOL    C512   512  -0.1200000   12.0115
  513        CT    1  MOL    C513   513   0.1900000   12.0115
  514       OES    1  MOL    O514   514  -0.3300000   15.9994
  515       CO4    1  MOL    C515   515   0.5100000   12.0115
  516         O    1  MOL    O516   516  -0.4300000   15.9994
  517        CT    1  MOL    C517   517   0.0000000   12.0115
  518        CT    1  MOL    C518   518  -0.1800000   12.0115
  519        CT    1  MOL    C519   519  -0.1200000   12.0115
  520        HC    1  MOL    H520   520   0.0600000    1.0080
  521        HC    1  MOL    H521   521   0.0600000    1.0080
  522        HC    1  MOL    H522   522   0.0600000    1.0080
  523        HC    1  MOL    H523   523   0.0600000    1.0080
  524        HC    1  MOL    H524   524   0.0600000    1.0080
  525        HC    1  MOL    H525   525   0.0600000    1.0080
  526        HC    1  MOL    H526   526   0.0600000    1.0080
  527        HC    1  MOL    H527   527   0.0600000    1.0080
  528        HC    1  MOL    H528   528   0.0600000    1.0080
  529        HC    1  MOL    H529   529   0.0600000    1.0080
  530        HC    1  MOL    H530   530   0.0600000    1.0080
  531        HC    1  MOL    H531   531   0.0600000    1.0080
  532        HC    1  MOL    H532   532   0.0600000    1.0080
  533        HC    1  MOL    H533   533   0.0600000    1.0080
  534        HC    1  MOL    H534   534   0.0600000    1.0080
  535       HAE    1  MOL    H535   535   0.0300000    1.0080
  536       HAE    1  MOL    H536   536   0.0300000    1.0080
  537        HC    1  MOL    H537   537   0.0600000    1.0080
  538        HC    1  MOL    H538   538   0.0600000    1.0080
  539        HC    1  MOL    H539   539   0.0600000    1.0080
  540        HC    1  MOL    H540   540   0.0600000    1.0080
  541        HC    1  MOL    H541   541   0.0600000    1.0080
  542        CT    1  MOL    C542   542  -0.1800000   12.0115
  543        CT    1  MOL    C543   543  -0.1200000   12.0115
  544        CT    1  MOL    C544   544  -0.1200000   12.0115
  545        CT    1  MOL    C545   545  -0.1200000   12.0115
  546        CT    1  MOL    C546   546  -0.1200000   12.0115
  547        CT    1  MOL    C547   547  -0.1200000   12.0115
  548        CT    1  MOL    C548   548  -0.1200000   12.0115
  549        CT    1  MOL    C549   549   0.1900000   12.0115
  550       OES    1  MOL    O550   550  -0.3300000   15.9994
  551       CO4    1  MOL    C551   551   0.5100000   12.0115
  552         O    1  MOL    O552   552  -0.4300000   15.9994
  553        CT    1  MOL    C553   553   0.0000000   12.0115
  554        CT    1  MOL    C554   554  -0.1800000   12.0115
  555        CT    1  MOL    C555   555  -0.1200000   12.0115
  556        HC    1  MOL    H556   556   0.0600000    1.0080
  557        HC    1  MOL    H557   557   0.0600000    1.0080
  558        HC    1  MOL    H558   558   0.0600000    1.0080
  559        HC    1  MOL    H559   559   0.0600000    1.0080
  560        HC    1  MOL    H560   560   0.0600000    1.0080
  561        HC    1  MOL    H561   561   0.0600000    1.0080
  562        HC    1  MOL    H562   562   0.0600000    1.0080
  563        HC    1  MOL    H563   563   0.0600000    1.0080
  564        HC    1  MOL    H564   564   0.0600000    1.0080
  565        HC    1  MOL    H565   565   0.0600000    1.0080
  566        HC    1  MOL    H566   566   0.0600000    1.0080
  567        HC    1  MOL    H567   567   0.0600000    1.0080
  568        HC    1  MOL    H568   568   0.0600000    1.0080
  569        HC    1  MOL    H569   569   0.0600000    1.0080
  570        HC    1  MOL    H570   570   0.0600000    1.0080
  571       HAE    1  MOL    H571   571   0.0300000    1.0080
  572       HAE    1  MOL    H572   572   0.0300000    1.0080
  573        HC    1  MOL    H573   573   0.0600000    1.0080
  574        HC    1  MOL    H574   574   0.0600000    1.0080
  575        HC    1  MOL    H575   575   0.0600000    1.0080
  576        HC    1  MOL    H576   576   0.0600000    1.0080
  577        HC    1  MOL    H577   577   0.0600000    1.0080
  578        CT    1  MOL    C578   578  -0.1800000   12.0115
  579        CT    1  MOL    C579   579  -0.1200000   12.0115
  580        CT    1  MOL    C580   580  -0.1200000   12.0115
  581        CT    1  MOL    C581   581  -0.1200000   12.0115
  582        CT    1  MOL    C582   582  -0.1200000   12.0115
  583        CT    1  MOL    C583   583  -0.1200000   12.0115
  584        CT    1  MOL    C584   584  -0.1200000   12.0115
  585        CT    1  MOL    C585   585   0.1900000   12.0115
  586       OES    1  MOL    O586   586  -0.3300000   15.9994
  587       CO4    1  MOL    C587   587   0.5100000   12.0115
  588         O    1  MOL    O588   588  -0.4300000   15.9994
  589        CT    1  MOL    C589   589   0.0000000   12.0115
  590        CT    1  MOL    C590   590  -0.1800000   12.0115
  591        CT    1  MOL    C591   591  -0.1200000   12.0115
  592        HC    1  MOL    H592   592   0.0600000    1.0080
  593        HC    1  MOL    H593   593   0.0600000    1.0080
  594        HC    1  MOL    H594   594   0.0600000    1.0080
  595        HC    1  MOL    H595   595   0.0600000    1.0080
  596        HC    1  MOL    H596   596   0.0600000    1.0080
  597        HC    1  MOL    H597   597   0.0600000    1.0080
  598        HC    1  MOL    H598   598   0.0600000    1.0080
  599        HC    1  MOL    H599   599   0.0600000    1.0080
  600        HC    1  MOL    H600   600   0.0600000    1.0080
  601        HC    1  MOL    H601   601   0.0600000    1.0080
  602        HC    1  MOL    H602   602   0.0600000    1.0080
  603        HC    1  MOL    H603   603   0.0600000    1.0080
  604        HC    1  MOL    H604   604   0.0600000    1.0080
  605        HC    1  MOL    H605   605   0.0600000    1.0080
  606        HC    1  MOL    H606   606   0.0600000    1.0080
  607       HAE    1  MOL    H607   607   0.0300000    1.0080
  608       HAE    1  MOL    H608   608   0.0300000    1.0080
  609        HC    1  MOL    H609   609   0.0600000    1.0080
  610        HC    1  MOL    H610   610   0.0600000    1.0080
  611        HC    1  MOL    H611   611   0.0600000    1.0080
  612        HC    1  MOL    H612   612   0.0600000    1.0080
  613        HC    1  MOL    H613   613   0.0600000    1.0080
  614        CT    1  MOL    C614   614  -0.1800000   12.0115
  615        CT    1  MOL    C615   615  -0.1200000   12.0115
  616        CT    1  MOL    C616   616  -0.1200000   12.0115
  617        CT    1  MOL    C617   617  -0.1200000   12.0115
  618        CT    1  MOL    C618   618  -0.1200000   12.0115
  619        CT    1  MOL    C619   619  -0.1200000   12.0115
  620        CT    1  MOL    C620   620  -0.1200000   12.0115
  621        CT    1  MOL    C621   621   0.1900000   12.0115
  622       OES    1  MOL    O622   622  -0.3300000   15.9994
  623       CO4    1  MOL    C623   623   0.5100000   12.0115
  624         O    1  MOL    O624   624  -0.4300000   15.9994
  625        CT    1  MOL    C625   625   0.0000000   12.0115
  626        CT    1  MOL    C626   626  -0.1800000   12.0115
  627        CT    1  MOL    C627   627  -0.1200000   12.0115
  628        HC    1  MOL    H628   628   0.0600000    1.0080
  629        HC    1  MOL    H629   629   0.0600000    1.0080
  630        HC    1  MOL    H630   630   0.0600000    1.0080
  631        HC    1  MOL    H631   631   0.0600000    1.0080
  632        HC    1  MOL    H632   632   0.0600000    1.0080
  633        HC    1  MOL    H633   633   0.0600000    1.0080
  634        HC    1  MOL    H634   634   0.0600000    1.0080
  635        HC    1  MOL    H635   635   0.0600000    1.0080
  636        HC    1  MOL    H636   636   0.0600000    1.0080
  637        HC    1  MOL    H637   637   0.0600000    1.0080
  638        HC    1  MOL    H638   638   0.0600000    1.0080
  639        HC    1  MOL    H639   639   0.0600000    1.0080
  640        HC    1  MOL    H640   640   0.0600000    1.0080
  641        HC    1  MOL    H641   641   0.0600000    1.0080
  642        HC    1  MOL    H642   642   0.0600000    1.0080
  643       HAE    1  MOL    H643   643   0.0300000    1.0080
  644       HAE    1  MOL    H644   644   0.0300000    1.0080
  645        HC    1  MOL    H645   645   0.0600000    1.0080
  646        HC    1  MOL    H646   646   0.0600000    1.0080
  647        HC    1  MOL    H647   647   0.0600000    1.0080
  648        HC    1  MOL    H648   648   0.0600000    1.0080
  649        HC    1  MOL    H649   649   0.0600000    1.0080
  650        CT    1  MOL    C650   650  -0.1800000   12.0115
  651        CT    1  MOL    C651   651  -0.1200000   12.0115
  652        CT    1  MOL    C652   652  -0.1200000   12.0115
  653        CT    1  MOL    C653   653  -0.1200000   12.0115
  654        CT    1  MOL    C654   654  -0.1200000   12.0115
  655        CT    1  MOL    C655   655  -0.1200000   12.0115
  656        CT    1  MOL    C656   656  -0.1200000   12.0115
  657        CT    1  MOL    C657   657   0.1900000   12.0115
  658       OES    1  MOL    O658   658  -0.3300000   15.9994
  659       CO4    1  MOL    C659   659   0.5100000   12.0115
  660         O    1  MOL    O660   660  -0.4300000   15.9994
  661        CT    1  MOL    C661   661   0.0000000   12.0115
  662        CT    1  MOL    C662   662  -0.1800000   12.0115
  663        CT    1  MOL    C663   663  -0.1200000   12.0115
  664        HC    1  MOL    H664   664   0.0600000    1.0080
  665        HC    1  MOL    H665   665   0.0600000    1.0080
  666        HC    1  MOL    H666   666   0.0600000    1.0080
  667        HC    1  MOL    H667   667   0.0600000    1.0080
  668        HC    1  MOL    H668   668   0.0600000    1.0080
  669        HC    1  MOL    H669   669   0.0600000    1.0080
  670        HC    1  MOL    H670   670   0.0600000    1.0080
  671        HC    1  MOL    H671   671   0.0600000    1.0080
  672        HC    1  MOL    H672   672   0.0600000    1.0080
  673        HC    1  MOL    H673   673   0.0600000    1.0080
  674        HC    1  MOL    H674   674   0.0600000    1.0080
  675        HC    1  MOL    H675   675   0.0600000    1.0080
  676        HC    1  MOL    H676   676   0.0600000    1.0080
  677        HC    1  MOL    H677   677   0.0600000    1.0080
  678        HC    1  MOL    H678   678   0.0600000    1.0080
  679       HAE    1  MOL    H679   679   0.0300000    1.0080
  680       HAE    1  MOL    H680   680   0.0300000    1.0080
  681        HC    1  MOL    H681   681   0.0600000    1.0080
  682        HC    1  MOL    H682   682   0.0600000    1.0080
  683        HC    1  MOL    H683   683   0.0600000    1.0080
  684        HC    1  MOL    H684   684   0.0600000    1.0080
  685        HC    1  MOL    H685   685   0.0600000    1.0080
  686        CT    1  MOL    C686   686  -0.1800000   12.0115
  687        CT    1  MOL    C687   687  -0.1200000   12.0115
  688        CT    1  MOL    C688   688  -0.1200000   12.0115
  689        CT    1  MOL    C689   689  -0.1200000   12.0115
  690        CT    1  MOL    C690   690  -0.1200000   12.0115
  691        CT    1  MOL    C691   691  -0.1200000   12.0115
  692        CT    1  MOL    C692   692  -0.1200000   12.0115
  693        CT    1  MOL    C693   693   0.1900000   12.0115
  694       OES    1  MOL    O694   694  -0.3300000   15.9994
  695       CO4    1  MOL    C695   695   0.5100000   12.0115
  696         O    1  MOL    O696   696  -0.4300000   15.9994
  697        CT    1  MOL    C697   697   0.0000000   12.0115
  698        CT    1  MOL    C698   698  -0.1800000   12.0115
  699        CT    1  MOL    C699   699  -0.1800000   12.0115
  700        HC    1  MOL    H700   700   0.0600000    1.0080
  701        HC    1  MOL    H701   701   0.0600000    1.0080
  702        HC    1  MOL    H702   702   0.0600000    1.0080
  703        HC    1  MOL    H703   703   0.0600000    1.0080
  704        HC    1  MOL    H704   704   0.0600000    1.0080
  705        HC    1  MOL    H705   705   0.0600000    1.0080
  706        HC    1  MOL    H706   706   0.0600000    1.0080
  707        HC    1  MOL    H707   707   0.0600000    1.0080
  708        HC    1  MOL    H708   708   0.0600000    1.0080
  709        HC    1  MOL    H709   709   0.0600000    1.0080
  710        HC    1  MOL    H710   710   0.0600000    1.0080
  711        HC    1  MOL    H711   711   0.0600000    1.0080
  712        HC    1  MOL    H712   712   0.0600000    1.0080
  713        HC    1  MOL    H713   713   0.0600000    1.0080
  714        HC    1  MOL    H714   714   0.0600000    1.0080
  715       HAE    1  MOL    H715   715   0.0300000    1.0080
  716       HAE    1  MOL    H716   716   0.0300000    1.0080
  717        HC    1  MOL    H717   717   0.0600000    1.0080
  718        HC    1  MOL    H718   718   0.0600000    1.0080
  719        HC    1  MOL    H719   719   0.0600000    1.0080
  720        HC    1  MOL    H720   720   0.0600000    1.0080
  721        HC    1  MOL    H721   721   0.0600000    1.0080
  722        HC    1  MOL    H722   722   0.0600000    1.0080

[ bonds ]
      1      2   1      0.1529 224262.4000
      1     15   1      0.1090 284512.0000
      1     16   1      0.1090 284512.0000
      1     17   1      0.1090 284512.0000
      2      3   1      0.1529 224262.4000
      2     18   1      0.1090 284512.0000
      2     19   1      0.1090 284512.0000
      3      4   1      0.1529 224262.4000
      3     20   1      0.1090 284512.0000
      3     21   1      0.1090 284512.0000
      4      5   1      0.1529 224262.4000
      4     22   1      0.1090 284512.0000
      4     23   1      0.1090 284512.0000
      5      6   1      0.1529 224262.4000
      5     24   1      0.1090 284512.0000
      5     25   1      0.1090 284512.0000
      6      7   1      0.1529 224262.4000
      6     26   1      0.1090 284512.0000
      6     27   1      0.1090 284512.0000
      7      8   1      0.1529 224262.4000
      7     28   1      0.1090 284512.0000
      7     29   1      0.1090 284512.0000
      8      9   1      0.1410 267776.0000
      8     30   1      0.1090 284512.0000
      8     31   1      0.1090 284512.0000
      9     10   1      0.1327 179075.2000
     10     11   1      0.1229 476976.0000
     10     12   1      0.1522 265265.6000
     12     13   1      0.1529 224262.4000
     12     14   1      0.1529 224262.4000
     12     37   1      0.1090 284512.0000
     13     32   1      0.1090 284512.0000
     13     33   1      0.1090 284512.0000
     13     34   1      0.1090 284512.0000
     14     35   1      0.1090 284512.0000
     14     36   1      0.1090 284512.0000
     14     49   1      0.1529 224262.4000
     38     39   1      0.1529 224262.4000
     38     52   1      0.1090 284512.0000
     38     53   1      0.1090 284512.0000
     38     54   1      0.1090 284512.0000
     39     40   1      0.1529 224262.4000
     39     55   1      0.1090 284512.0000
     39     56   1      0.1090 284512.0000
     40     41   1      0.1529 224262.4000
     40     57   1      0.1090 284512.0000
     40     58   1      0.1090 284512.0000
     41     42   1      0.1529 224262.4000
     41     59   1      0.1090 284512.0000
     41     60   1      0.1090 284512.0000
     42     43   1      0.1529 224262.4000
     42     61   1      0.1090 284512.0000
     42     62   1      0.1090 284512.0000
     43     44   1      0.1529 224262.4000
     43     63   1      0.1090 284512.0000
     43     64   1      0.1090 284512.0000
     44     45   1      0.1529 224262.4000
     44     65   1      0.1090 284512.0000
     44     66   1      0.1090 284512.0000
     45     46   1      0.1410 267776.0000
     45     67   1      0.1090 284512.0000
     45     68   1      0.1090 284512.0000
     46     47   1      0.1327 179075.2000
     47     48   1      0.1229 476976.0000
     47     49   1      0.1522 265265.6000
     49     50   1      0.1529 224262.4000
     49     51   1      0.1529 224262.4000
     50     69   1      0.1090 284512.0000
     50     70   1      0.1090 284512.0000
     50     71   1      0.1090 284512.0000
     51     72   1      0.1090 284512.0000
     51     73   1      0.1090 284512.0000
     51     85   1      0.1529 224262.4000
     74     75   1      0.1529 224262.4000
     74     88   1      0.1090 284512.0000
     74     89   1      0.1090 284512.0000
     74     90   1      0.1090 284512.0000
     75     76   1      0.1529 224262.4000
     75     91   1      0.1090 284512.0000
     75     92   1      0.1090 284512.0000
     76     77   1      0.1529 224262.4000
     76     93   1      0.1090 284512.0000
     76     94   1      0.1090 284512.0000
     77     78   1      0.1529 224262.4000
     77     95   1      0.1090 284512.0000
     77     96   1      0.1090 284512.0000
     78     79   1      0.1529 224262.4000
     78     97   1      0.1090 284512.0000
     78     98   1      0.1090 284512.0000
     79     80   1      0.1529 224262.4000
     79     99   1      0.1090 284512.0000
     79    100   1      0.1090 284512.0000
     80     81   1      0.1529 224262.4000
     80    101   1      0.1090 284512.0000
     80    102   1      0.1090 284512.0000
     81     82   1      0.1410 267776.0000
     81    103   1      0.1090 284512.0000
     81    104   1      0.1090 284512.0000
     82     83   1      0.1327 179075.2000
     83     84   1      0.1229 476976.0000
     83     85   1      0.1522 265265.6000
     85     86   1      0.1529 224262.4000
     85     87   1      0.1529 224262.4000
     86    105   1      0.1090 284512.0000
     86    106   1      0.1090 284512.0000
     86    107   1      0.1090 284512.0000
     87    108   1      0.1090 284512.0000
     87    109   1      0.1090 284512.0000
     87    121   1      0.1529 224262.4000
    110    111   1      0.1529 224262.4000
    110    124   1      0.1090 284512.0000
    110    125   1      0.1090 284512.0000
    110    126   1      0.1090 284512.0000
    111    112   1      0.1529 224262.4000
    111    127   1      0.1090 284512.0000
    111    128   1      0.1090 284512.0000
    112    113   1      0.1529 224262.4000
    112    129   1      0.1090 284512.0000
    112    130   1      0.1090 284512.0000
    113    114   1      0.1529 224262.4000
    113    131   1      0.1090 284512.0000
    113    132   1      0.1090 284512.0000
    114    115   1      0.1529 224262.4000
    114    133   1      0.1090 284512.0000
    114    134   1      0.1090 284512.0000
    115    116   1      0.1529 224262.4000
    115    135   1      0.1090 284512.0000
    115    136   1      0.1090 284512.0000
    116    117   1      0.1529 224262.4000
    116    137   1      0.1090 284512.0000
    116    138   1      0.1090 284512.0000
    117    118   1      0.1410 267776.0000
    117    139   1      0.1090 284512.0000
    117    140   1      0.1090 284512.0000
    118    119   1      0.1327 179075.2000
    119    120   1      0.1229 476976.0000
    119    121   1      0.1522 265265.6000
    121    122   1      0.1529 224262.4000
    121    123   1      0.1529 224262.4000
    122    141   1      0.1090 284512.0000
    122    142   1      0.1090 284512.0000
    122    143   1      0.1090 284512.0000
    123    144   1      0.1090 284512.0000
    123    145   1      0.1090 284512.0000
    123    157   1      0.1529 224262.4000
    146    147   1      0.1529 224262.4000
    146    160   1      0.1090 284512.0000
    146    161   1      0.1090 284512.0000
    146    162   1      0.1090 284512.0000
    147    148   1      0.1529 224262.4000
    147    163   1      0.1090 284512.0000
    147    164   1      0.1090 284512.0000
    148    149   1      0.1529 224262.4000
    148    165   1      0.1090 284512.0000
    148    166   1      0.1090 284512.0000
    149    150   1      0.1529 224262.4000
    149    167   1      0.1090 284512.0000
    149    168   1      0.1090 284512.0000
    150    151   1      0.1529 224262.4000
    150    169   1      0.1090 284512.0000
    150    170   1      0.1090 284512.0000
    151    152   1      0.1529 224262.4000
    151    171   1      0.1090 284512.0000
    151    172   1      0.1090 284512.0000
    152    153   1      0.1529 224262.4000
    152    173   1      0.1090 284512.0000
    152    174   1      0.1090 284512.0000
    153    154   1      0.1410 267776.0000
    153    175   1      0.1090 284512.0000
    153    176   1      0.1090 284512.0000
    154    155   1      0.1327 179075.2000
    155    156   1      0.1229 476976.0000
    155    157   1      0.1522 265265.6000
    157    158   1      0.1529 224262.4000
    157    159   1      0.1529 224262.4000
    158    177   1      0.1090 284512.0000
    158    178   1      0.1090 284512.0000
    158    179   1      0.1090 284512.0000
    159    180   1      0.1090 284512.0000
    159    181   1      0.1090 284512.0000
    159    193   1      0.1529 224262.4000
    182    183   1      0.1529 224262.4000
    182    196   1      0.1090 284512.0000
    182    197   1      0.1090 284512.0000
    182    198   1      0.1090 284512.0000
    183    184   1      0.1529 224262.4000
    183    199   1      0.1090 284512.0000
    183    200   1      0.1090 284512.0000
    184    185   1      0.1529 224262.4000
    184    201   1      0.1090 284512.0000
    184    202   1      0.1090 284512.0000
    185    186   1      0.1529 224262.4000
    185    203   1      0.1090 284512.0000
    185    204   1      0.1090 284512.0000
    186    187   1      0.1529 224262.4000
    186    205   1      0.1090 284512.0000
    186    206   1      0.1090 284512.0000
    187    188   1      0.1529 224262.4000
    187    207   1      0.1090 284512.0000
    187    208   1      0.1090 284512.0000
    188    189   1      0.1529 224262.4000
    188    209   1      0.1090 284512.0000
    188    210   1      0.1090 284512.0000
    189    190   1      0.1410 267776.0000
    189    211   1      0.1090 284512.0000
    189    212   1      0.1090 284512.0000
    190    191   1      0.1327 179075.2000
    191    192   1      0.1229 476976.0000
    191    193   1      0.1522 265265.6000
    193    194   1      0.1529 224262.4000
    193    195   1      0.1529 224262.4000
    194    213   1      0.1090 284512.0000
    194    214   1      0.1090 284512.0000
    194    215   1      0.1090 284512.0000
    195    216   1      0.1090 284512.0000
    195    217   1      0.1090 284512.0000
    195    229   1      0.1529 224262.4000
    218    219   1      0.1529 224262.4000
    218    232   1      0.1090 284512.0000
    218    233   1      0.1090 284512.0000
    218    234   1      0.1090 284512.0000
    219    220   1      0.1529 224262.4000
    219    235   1      0.1090 284512.0000
    219    236   1      0.1090 284512.0000
    220    221   1      0.1529 224262.4000
    220    237   1      0.1090 284512.0000
    220    238   1      0.1090 284512.0000
    221    222   1      0.1529 224262.4000
    221    239   1      0.1090 284512.0000
    221    240   1      0.1090 284512.0000
    222    223   1      0.1529 224262.4000
    222    241   1      0.1090 284512.0000
    222    242   1      0.1090 284512.0000
    223    224   1      0.1529 224262.4000
    223    243   1      0.1090 284512.0000
    223    244   1      0.1090 284512.0000
    224    225   1      0.1529 224262.4000
    224    245   1      0.1090 284512.0000
    224    246   1      0.1090 284512.0000
    225    226   1      0.1410 267776.0000
    225    247   1      0.1090 284512.0000
    225    248   1      0.1090 284512.0000
    226    227   1      0.1327 179075.2000
    227    228   1      0.1229 476976.0000
    227    229   1      0.1522 265265.6000
    229    230   1      0.1529 224262.4000
    229    231   1      0.1529 224262.4000
    230    249   1      0.1090 284512.0000
    230    250   1      0.1090 284512.0000
    230    251   1      0.1090 284512.0000
    231    252   1      0.1090 284512.0000
    231    253   1      0.1090 284512.0000
    231    265   1      0.1529 224262.4000
    254    255   1      0.1529 224262.4000
    254    268   1      0.1090 284512.0000
    254    269   1      0.1090 284512.0000
    254    270   1      0.1090 284512.0000
    255    256   1      0.1529 224262.4000
    255    271   1      0.1090 284512.0000
    255    272   1      0.1090 284512.0000
    256    257   1      0.1529 224262.4000
    256    273   1      0.1090 284512.0000
    256    274   1      0.1090 284512.0000
    257    258   1      0.1529 224262.4000
    257    275   1      0.1090 284512.0000
    257    276   1      0.1090 284512.0000
    258    259   1      0.1529 224262.4000
    258    277   1      0.1090 284512.0000
    258    278   1      0.1090 284512.0000
    259    260   1      0.1529 224262.4000
    259    279   1      0.1090 284512.0000
    259    280   1      0.1090 284512.0000
    260    261   1      0.1529 224262.4000
    260    281   1      0.1090 284512.0000
    260    282   1      0.1090 284512.0000
    261    262   1      0.1410 267776.0000
    261    283   1      0.1090 284512.0000
    261    284   1      0.1090 284512.0000
    262    263   1      0.1327 179075.2000
    263    264   1      0.1229 476976.0000
    263    265   1      0.1522 265265.6000
    265    266   1      0.1529 224262.4000
    265    267   1      0.1529 224262.4000
    266    285   1      0.1090 284512.0000
    266    286   1      0.1090 284512.0000
    266    287   1      0.1090 284512.0000
    267    288   1      0.1090 284512.0000
    267    289   1      0.1090 284512.0000
    267    301   1      0.1529 224262.4000
    290    291   1      0.1529 224262.4000
    290    304   1      0.1090 284512.0000
    290    305   1      0.1090 284512.0000
    290    306   1      0.1090 284512.0000
    291    292   1      0.1529 224262.4000
    291    307   1      0.1090 284512.0000
    291    308   1      0.1090 284512.0000
    292    293   1      0.1529 224262.4000
    292    309   1      0.1090 284512.0000
    292    310   1      0.1090 284512.0000
    293    294   1      0.1529 224262.4000
    293    311   1      0.1090 284512.0000
    293    312   1      0.1090 284512.0000
    294    295   1      0.1529 224262.4000
    294    313   1      0.1090 284512.0000
    294    314   1      0.1090 284512.0000
    295    296   1      0.1529 224262.4000
    295    315   1      0.1090 284512.0000
    295    316   1      0.1090 284512.0000
    296    297   1      0.1529 224262.4000
    296    317   1      0.1090 284512.0000
    296    318   1      0.1090 284512.0000
    297    298   1      0.1410 267776.0000
    297    319   1      0.1090 284512.0000
    297    320   1      0.1090 284512.0000
    298    299   1      0.1327 179075.2000
    299    300   1      0.1229 476976.0000
    299    301   1      0.1522 265265.6000
    301    302   1      0.1529 224262.4000
    301    303   1      0.1529 224262.4000
    302    321   1      0.1090 284512.0000
    302    322   1      0.1090 284512.0000
    302    323   1      0.1090 284512.0000
    303    324   1      0.1090 284512.0000
    303    325   1      0.1090 284512.0000
    303    337   1      0.1529 224262.4000
    326    327   1      0.1529 224262.4000
    326    340   1      0.1090 284512.0000
    326    341   1      0.1090 284512.0000
    326    342   1      0.1090 284512.0000
    327    328   1      0.1529 224262.4000
    327    343   1      0.1090 284512.0000
    327    344   1      0.1090 284512.0000
    328    329   1      0.1529 224262.4000
    328    345   1      0.1090 284512.0000
    328    346   1      0.1090 284512.0000
    329    330   1      0.1529 224262.4000
    329    347   1      0.1090 284512.0000
    329    348   1      0.1090 284512.0000
    330    331   1      0.1529 224262.4000
    330    349   1      0.1090 284512.0000
    330    350   1      0.1090 284512.0000
    331    332   1      0.1529 224262.4000
    331    351   1      0.1090 284512.0000
    331    352   1      0.1090 284512.0000
    332    333   1      0.1529 224262.4000
    332    353   1      0.1090 284512.0000
    332    354   1      0.1090 284512.0000
    333    334   1      0.1410 267776.0000
    333    355   1      0.1090 284512.0000
    333    356   1      0.1090 284512.0000
    334    335   1      0.1327 179075.2000
    335    336   1      0.1229 476976.0000
    335    337   1      0.1522 265265.6000
    337    338   1      0.1529 224262.4000
    337    339   1      0.1529 224262.4000
    338    357   1      0.1090 284512.0000
    338    358   1      0.1090 284512.0000
    338    359   1      0.1090 284512.0000
    339    360   1      0.1090 284512.0000
    339    361   1      0.1090 284512.0000
    339    373   1      0.1529 224262.4000
    362    363   1      0.1529 224262.4000
    362    376   1      0.1090 284512.0000
    362    377   1      0.1090 284512.0000
    362    378   1      0.1090 284512.0000
    363    364   1      0.1529 224262.4000
    363    379   1      0.1090 284512.0000
    363    380   1      0.1090 284512.0000
    364    365   1      0.1529 224262.4000
    364    381   1      0.1090 284512.0000
    364    382   1      0.1090 284512.0000
    365    366   1      0.1529 224262.4000
    365    383   1      0.1090 284512.0000
    365    384   1      0.1090 284512.0000
    366    367   1      0.1529 224262.4000
    366    385   1      0.1090 284512.0000
    366    386   1      0.1090 284512.0000
    367    368   1      0.1529 224262.4000
    367    387   1      0.1090 284512.0000
    367    388   1      0.1090 284512.0000
    368    369   1      0.1529 224262.4000
    368    389   1      0.1090 284512.0000
    368    390   1      0.1090 284512.0000
    369    370   1      0.1410 267776.0000
    369    391   1      0.1090 284512.0000
    369    392   1      0.1090 284512.0000
    370    371   1      0.1327 179075.2000
    371    372   1      0.1229 476976.0000
    371    373   1      0.1522 265265.6000
    373    374   1      0.1529 224262.4000
    373    375   1      0.1529 224262.4000
    374    393   1      0.1090 284512.0000
    374    394   1      0.1090 284512.0000
    374    395   1      0.1090 284512.0000
    375    396   1      0.1090 284512.0000
    375    397   1      0.1090 284512.0000
    375    409   1      0.1529 224262.4000
    398    399   1      0.1529 224262.4000
    398    412   1      0.1090 284512.0000
    398    413   1      0.1090 284512.0000
    398    414   1      0.1090 284512.0000
    399    400   1      0.1529 224262.4000
    399    415   1      0.1090 284512.0000
    399    416   1      0.1090 284512.0000
    400    401   1      0.1529 224262.4000
    400    417   1      0.1090 284512.0000
    400    418   1      0.1090 284512.0000
    401    402   1      0.1529 224262.4000
    401    419   1      0.1090 284512.0000
    401    420   1      0.1090 284512.0000
    402    403   1      0.1529 224262.4000
    402    421   1      0.1090 284512.0000
    402    422   1      0.1090 284512.0000
    403    404   1      0.1529 224262.4000
    403    423   1      0.1090 284512.0000
    403    424   1      0.1090 284512.0000
    404    405   1      0.1529 224262.4000
    404    425   1      0.1090 284512.0000
    404    426   1      0.1090 284512.0000
    405    406   1      0.1410 267776.0000
    405    427   1      0.1090 284512.0000
    405    428   1      0.1090 284512.0000
    406    407   1      0.1327 179075.2000
    407    408   1      0.1229 476976.0000
    407    409   1      0.1522 265265.6000
    409    410   1      0.1529 224262.4000
    409    411   1      0.1529 224262.4000
    410    429   1      0.1090 284512.0000
    410    430   1      0.1090 284512.0000
    410    431   1      0.1090 284512.0000
    411    432   1      0.1090 284512.0000
    411    433   1      0.1090 284512.0000
    411    445   1      0.1529 224262.4000
    434    435   1      0.1529 224262.4000
    434    448   1      0.1090 284512.0000
    434    449   1      0.1090 284512.0000
    434    450   1      0.1090 284512.0000
    435    436   1      0.1529 224262.4000
    435    451   1      0.1090 284512.0000
    435    452   1      0.1090 284512.0000
    436    437   1      0.1529 224262.4000
    436    453   1      0.1090 284512.0000
    436    454   1      0.1090 284512.0000
    437    438   1      0.1529 224262.4000
    437    455   1      0.1090 284512.0000
    437    456   1      0.1090 284512.0000
    438    439   1      0.1529 224262.4000
    438    457   1      0.1090 284512.0000
    438    458   1      0.1090 284512.0000
    439    440   1      0.1529 224262.4000
    439    459   1      0.1090 284512.0000
    439    460   1      0.1090 284512.0000
    440    441   1      0.1529 224262.4000
    440    461   1      0.1090 284512.0000
    440    462   1      0.1090 284512.0000
    441    442   1      0.1410 267776.0000
    441    463   1      0.1090 284512.0000
    441    464   1      0.1090 284512.0000
    442    443   1      0.1327 179075.2000
    443    444   1      0.1229 476976.0000
    443    445   1      0.1522 265265.6000
    445    446   1      0.1529 224262.4000
    445    447   1      0.1529 224262.4000
    446    465   1      0.1090 284512.0000
    446    466   1      0.1090 284512.0000
    446    467   1      0.1090 284512.0000
    447    468   1      0.1090 284512.0000
    447    469   1      0.1090 284512.0000
    447    481   1      0.1529 224262.4000
    470    471   1      0.1529 224262.4000
    470    484   1      0.1090 284512.0000
    470    485   1      0.1090 284512.0000
    470    486   1      0.1090 284512.0000
    471    472   1      0.1529 224262.4000
    471    487   1      0.1090 284512.0000
    471    488   1      0.1090 284512.0000
    472    473   1      0.1529 224262.4000
    472    489   1      0.1090 284512.0000
    472    490   1      0.1090 284512.0000
    473    474   1      0.1529 224262.4000
    473    491   1      0.1090 284512.0000
    473    492   1      0.1090 284512.0000
    474    475   1      0.1529 224262.4000
    474    493   1      0.1090 284512.0000
    474    494   1      0.1090 284512.0000
    475    476   1      0.1529 224262.4000
    475    495   1      0.1090 284512.0000
    475    496   1      0.1090 284512.0000
    476    477   1      0.1529 224262.4000
    476    497   1      0.1090 284512.0000
    476    498   1      0.1090 284512.0000
    477    478   1      0.1410 267776.0000
    477    499   1      0.1090 284512.0000
    477    500   1      0.1090 284512.0000
    478    479   1      0.1327 179075.2000
    479    480   1      0.1229 476976.0000
    479    481   1      0.1522 265265.6000
    481    482   1      0.1529 224262.4000
    481    483   1      0.1529 224262.4000
    482    501   1      0.1090 284512.0000
    482    502   1      0.1090 284512.0000
    482    503   1      0.1090 284512.0000
    483    504   1      0.1090 284512.0000
    483    505   1      0.1090 284512.0000
    483    517   1      0.1529 224262.4000
    506    507   1      0.1529 224262.4000
    506    520   1      0.1090 284512.0000
    506    521   1      0.1090 284512.0000
    506    522   1      0.1090 284512.0000
    507    508   1      0.1529 224262.4000
    507    523   1      0.1090 284512.0000
    507    524   1      0.1090 284512.0000
    508    509   1      0.1529 224262.4000
    508    525   1      0.1090 284512.0000
    508    526   1      0.1090 284512.0000
    509    510   1      0.1529 224262.4000
    509    527   1      0.1090 284512.0000
    509    528   1      0.1090 284512.0000
    510    511   1      0.1529 224262.4000
    510    529   1      0.1090 284512.0000
    510    530   1      0.1090 284512.0000
    511    512   1      0.1529 224262.4000
    511    531   1      0.1090 284512.0000
    511    532   1      0.1090 284512.0000
    512    513   1      0.1529 224262.4000
    512    533   1      0.1090 284512.0000
    512    534   1      0.1090 284512.0000
    513    514   1      0.1410 267776.0000
    513    535   1      0.1090 284512.0000
    513    536   1      0.1090 284512.0000
    514    515   1      0.1327 179075.2000
    515    516   1      0.1229 476976.0000
    515    517   1      0.1522 265265.6000
    517    518   1      0.1529 224262.4000
    517    519   1      0.1529 224262.4000
    518    537   1      0.1090 284512.0000
    518    538   1      0.1090 284512.0000
    518    539   1      0.1090 284512.0000
    519    540   1      0.1090 284512.0000
    519    541   1      0.1090 284512.0000
    519    553   1      0.1529 224262.4000
    542    543   1      0.1529 224262.4000
    542    556   1      0.1090 284512.0000
    542    557   1      0.1090 284512.0000
    542    558   1      0.1090 284512.0000
    543    544   1      0.1529 224262.4000
    543    559   1      0.1090 284512.0000
    543    560   1      0.1090 284512.0000
    544    545   1      0.1529 224262.4000
    544    561   1      0.1090 284512.0000
    544    562   1      0.1090 284512.0000
    545    546   1      0.1529 224262.4000
    545    563   1      0.1090 284512.0000
    545    564   1      0.1090 284512.0000
    546    547   1      0.1529 224262.4000
    546    565   1      0.1090 284512.0000
    546    566   1      0.1090 284512.0000
    547    548   1      0.1529 224262.4000
    547    567   1      0.1090 284512.0000
    547    568   1      0.1090 284512.0000
    548    549   1      0.1529 224262.4000
    548    569   1      0.1090 284512.0000
    548    570   1      0.1090 284512.0000
    549    550   1      0.1410 267776.0000
    549    571   1      0.1090 284512.0000
    549    572   1      0.1090 284512.0000
    550    551   1      0.1327 179075.2000
    551    552   1      0.1229 476976.0000
    551    553   1      0.1522 265265.6000
    553    554   1      0.1529 224262.4000
    553    555   1      0.1529 224262.4000
    554    573   1      0.1090 284512.0000
    554    574   1      0.1090 284512.0000
    554    575   1      0.1090 284512.0000
    555    576   1      0.1090 284512.0000
    555    577   1      0.1090 284512.0000
    555    589   1      0.1529 224262.4000
    578    579   1      0.1529 224262.4000
    578    592   1      0.1090 284512.0000
    578    593   1      0.1090 284512.0000
    578    594   1      0.1090 284512.0000
    579    580   1      0.1529 224262.4000
    579    595   1      0.1090 284512.0000
    579    596   1      0.1090 284512.0000
    580    581   1      0.1529 224262.4000
    580    597   1      0.1090 284512.0000
    580    598   1      0.1090 284512.0000
    581    582   1      0.1529 224262.4000
    581    599   1      0.1090 284512.0000
    581    600   1      0.1090 284512.0000
    582    583   1      0.1529 224262.4000
    582    601   1      0.1090 284512.0000
    582    602   1      0.1090 284512.0000
    583    584   1      0.1529 224262.4000
    583    603   1      0.1090 284512.0000
    583    604   1      0.1090 284512.0000
    584    585   1      0.1529 224262.4000
    584    605   1      0.1090 284512.0000
    584    606   1      0.1090 284512.0000
    585    586   1      0.1410 267776.0000
    585    607   1      0.1090 284512.0000
    585    608   1      0.1090 284512.0000
    586    587   1      0.1327 179075.2000
    587    588   1      0.1229 476976.0000
    587    589   1      0.1522 265265.6000
    589    590   1      0.1529 224262.4000
    589    591   1      0.1529 224262.4000
    590    609   1      0.1090 284512.0000
    590    610   1      0.1090 284512.0000
    590    611   1      0.1090 284512.0000
    591    612   1      0.1090 284512.0000
    591    613   1      0.1090 284512.0000
    591    625   1      0.1529 224262.4000
    614    615   1      0.1529 224262.4000
    614    628   1      0.1090 284512.0000
    614    629   1      0.1090 284512.0000
    614    630   1      0.1090 284512.0000
    615    616   1      0.1529 224262.4000
    615    631   1      0.1090 284512.0000
    615    632   1      0.1090 284512.0000
    616    617   1      0.1529 224262.4000
    616    633   1      0.1090 284512.0000
    616    634   1      0.1090 284512.0000
    617    618   1      0.1529 224262.4000
    617    635   1      0.1090 284512.0000
    617    636   1      0.1090 284512.0000
    618    619   1      0.1529 224262.4000
    618    637   1      0.1090 284512.0000
    618    638   1      0.1090 284512.0000
    619    620   1      0.1529 224262.4000
    619    639   1      0.1090 284512.0000
    619    640   1      0.1090 284512.0000
    620    621   1      0.1529 224262.4000
    620    641   1      0.1090 284512.0000
    620    642   1      0.1090 284512.0000
    621    622   1      0.1410 267776.0000
    621    643   1      0.1090 284512.0000
    621    644   1      0.1090 284512.0000
    622    623   1      0.1327 179075.2000
    623    624   1      0.1229 476976.0000
    623    625   1      0.1522 265265.6000
    625    626   1      0.1529 224262.4000
    625    627   1      0.1529 224262.4000
    626    645   1      0.1090 284512.0000
    626    646   1      0.1090 284512.0000
    626    647   1      0.1090 284512.0000
    627    648   1      0.1090 284512.0000
    627    649   1      0.1090 284512.0000
    627    661   1      0.1529 224262.4000
    650    651   1      0.1529 224262.4000
    650    664   1      0.1090 284512.0000
    650    665   1      0.1090 284512.0000
    650    666   1      0.1090 284512.0000
    651    652   1      0.1529 224262.4000
    651    667   1      0.1090 284512.0000
    651    668   1      0.1090 284512.0000
    652    653   1      0.1529 224262.4000
    652    669   1      0.1090 284512.0000
    652    670   1      0.1090 284512.0000
    653    654   1      0.1529 224262.4000
    653    671   1      0.1090 284512.0000
    653    672   1      0.1090 284512.0000
    654    655   1      0.1529 224262.4000
    654    673   1      0.1090 284512.0000
    654    674   1      0.1090 284512.0000
    655    656   1      0.1529 224262.4000
    655    675   1      0.1090 284512.0000
    655    676   1      0.1090 284512.0000
    656    657   1      0.1529 224262.4000
    656    677   1      0.1090 284512.0000
    656    678   1      0.1090 284512.0000
    657    658   1      0.1410 267776.0000
    657    679   1      0.1090 284512.0000
    657    680   1      0.1090 284512.0000
    658    659   1      0.1327 179075.2000
    659    660   1      0.1229 476976.0000
    659    661   1      0.1522 265265.6000
    661    662   1      0.1529 224262.4000
    661    663   1      0.1529 224262.4000
    662    681   1      0.1090 284512.0000
    662    682   1      0.1090 284512.0000
    662    683   1      0.1090 284512.0000
    663    684   1      0.1090 284512.0000
    663    685   1      0.1090 284512.0000
    663    697   1      0.1529 224262.4000
    686    687   1      0.1529 224262.4000
    686    700   1      0.1090 284512.0000
    686    701   1      0.1090 284512.0000
    686    702   1      0.1090 284512.0000
    687    688   1      0.1529 224262.4000
    687    703   1      0.1090 284512.0000
    687    704   1      0.1090 284512.0000
    688    689   1      0.1529 224262.4000
    688    705   1      0.1090 284512.0000
    688    706   1      0.1090 284512.0000
    689    690   1      0.1529 224262.4000
    689    707   1      0.1090 284512.0000
    689    708   1      0.1090 284512.0000
    690    691   1      0.1529 224262.4000
    690    709   1      0.1090 284512.0000
    690    710   1      0.1090 284512.0000
    691    692   1      0.1529 224262.4000
    691    711   1      0.1090 284512.0000
    691    712   1      0.1090 284512.0000
    692    693   1      0.1529 224262.4000
    692    713   1      0.1090 284512.0000
    692    714   1      0.1090 284512.0000
    693    694   1      0.1410 267776.0000
    693    715   1      0.1090 284512.0000
    693    716   1      0.1090 284512.0000
    694    695   1      0.1327 179075.2000
    695    696   1      0.1229 476976.0000
    695    697   1      0.1522 265265.6000
    697    698   1      0.1529 224262.4000
    697    699   1      0.1529 224262.4000
    698    717   1      0.1090 284512.0000
    698    718   1      0.1090 284512.0000
    698    719   1      0.1090 284512.0000
    699    720   1      0.1090 284512.0000
    699    721   1      0.1090 284512.0000
    699    722   1      0.1090 284512.0000

[ pairs ]
; ai   aj   funct   fudge_QQ  charge_i   charge_j   c6    c12
     15      3   2   0.50000     0.0600000   -0.1200000   2.494471e-04  1.671101e-07
     15     18   2   0.50000     0.0600000    0.0600000   6.128906e-05  1.496315e-08
     15     19   2   0.50000     0.0600000    0.0600000   6.128906e-05  1.496315e-08
     16      3   2   0.50000     0.0600000   -0.1200000   2.494471e-04  1.671101e-07
     16     18   2   0.50000     0.0600000    0.0600000   6.128906e-05  1.496315e-08
     16     19   2   0.50000     0.0600000    0.0600000   6.128906e-05  1.496315e-08
     17      3   2   0.50000     0.0600000   -0.1200000   2.494471e-04  1.671101e-07
     17     18   2   0.50000     0.0600000    0.0600000   6.128906e-05  1.496315e-08
     17     19   2   0.50000     0.0600000    0.0600000   6.128906e-05  1.496315e-08
      1      4   2   0.50000    -0.1800000   -0.1200000   1.015252e-03  1.866303e-06
      1     20   2   0.50000    -0.1800000    0.0600000   2.494471e-04  1.671101e-07
      1     21   2   0.50000    -0.1800000    0.0600000   2.494471e-04  1.671101e-07
     18      4   2   0.50000     0.0600000   -0.1200000   2.494471e-04  1.671101e-07
     18     20   2   0.50000     0.0600000    0.0600000   6.128906e-05  1.496315e-08
     18     21   2   0.50000     0.0600000    0.0600000   6.128906e-05  1.496315e-08
     19      4   2   0.50000     0.0600000   -0.1200000   2.494471e-04  1.671101e-07
     19     20   2   0.50000     0.0600000    0.0600000   6.128906e-05  1.496315e-08
     19     21   2   0.50000     0.0600000    0.0600000   6.128906e-05  1.496315e-08
      2      5   2   0.50000    -0.1200000   -0.1200000   1.015252e-03  1.866303e-06
      2     22   2   0.50000    -0.1200000    0.0600000   2.494471e-04  1.671101e-07
      2     23   2   0.50000    -0.1200000    0.0600000   2.494471e-04  1.671101e-07
     20      5   2   0.50000     0.0600000   -0.1200000   2.494471e-04  1.671101e-07
     20     22   2   0.50000     0.0600000    0.0600000   6.128906e-05  1.496315e-08
     20     23   2   0.50000     0.0600000    0.0600000   6.128906e-05  1.496315e-08
     21      5   2   0.50000     0.0600000   -0.1200000   2.494471e-04  1.671101e-07
     21     22   2   0.50000     0.0600000    0.0600000   6.128906e-05  1.496315e-08
     21     23   2   0.50000     0.0600000    0.0600000   6.128906e-05  1.496315e-08
      3      6   2   0.50000    -0.1200000   -0.1200000   1.015252e-03  1.866303e-06
      3     24   2   0.50000    -0.1200000    0.0600000   2.494471e-04  1.671101e-07
      3     25   2   0.50000    -0.1200000    0.0600000   2.494471e-04  1.671101e-07
     22      6   2   0.50000     0.0600000   -0.1200000   2.494471e-04  1.671101e-07
     22     24   2   0.50000     0.0600000    0.0600000   6.128906e-05  1.496315e-08
     22     25   2   0.50000     0.0600000    0.0600000   6.128906e-05  1.496315e-08
     23      6   2   0.50000     0.0600000   -0.1200000   2.494471e-04  1.671101e-07
     23     24   2   0.50000     0.0600000    0.0600000   6.128906e-05  1.496315e-08
     23     25   2   0.50000     0.0600000    0.0600000   6.128906e-05  1.496315e-08
      4      7   2   0.50000    -0.1200000   -0.1200000   1.015252e-03  1.866303e-06
      4     26   2   0.50000    -0.1200000    0.0600000   2.494471e-04  1.671101e-07
      4     27   2   0.50000    -0.1200000    0.0600000   2.494471e-04  1.671101e-07
     24      7   2   0.50000     0.0600000   -0.1200000   2.494471e-04  1.671101e-07
     24     26   2   0.50000     0.0600000    0.0600000   6.128906e-05  1.496315e-08
     24     27   2   0.50000     0.0600000    0.0600000   6.128906e-05  1.496315e-08
     25      7   2   0.50000     0.0600000   -0.1200000   2.494471e-04  1.671101e-07
     25     26   2   0.50000     0.0600000    0.0600000   6.128906e-05  1.496315e-08
     25     27   2   0.50000     0.0600000    0.0600000   6.128906e-05  1.496315e-08
      5      8   2   0.50000    -0.1200000    0.1900000   1.015252e-03  1.866303e-06
      5     28   2   0.50000    -0.1200000    0.0600000   2.494471e-04  1.671101e-07
      5     29   2   0.50000    -0.1200000    0.0600000   2.494471e-04  1.671101e-07
     26      8   2   0.50000     0.0600000    0.1900000   2.494471e-04  1.671101e-07
     26     28   2   0.50000     0.0600000    0.0600000   6.128906e-05  1.496315e-08
     26     29   2   0.50000     0.0600000    0.0600000   6.128906e-05  1.496315e-08
     27      8   2   0.50000     0.0600000    0.1900000   2.494471e-04  1.671101e-07
     27     28   2   0.50000     0.0600000    0.0600000   6.128906e-05  1.496315e-08
     27     29   2   0.50000     0.0600000    0.0600000   6.128906e-05  1.496315e-08
      6      9   2   0.50000    -0.1200000   -0.3300000   1.026091e-03  1.187829e-06
      6     30   2   0.50000    -0.1200000    0.0300000   1.599888e-04  9.721644e-08
      6     31   2   0.50000    -0.1200000    0.0300000   1.599888e-04  9.721644e-08
     28      9   2   0.50000     0.0600000   -0.3300000   2.521103e-04  1.063590e-07
     28     30   2   0.50000     0.0600000    0.0300000   3.930919e-05  8.704828e-09
     28     31   2   0.50000     0.0600000    0.0300000   3.930919e-05  8.704828e-09
     29      9   2   0.50000     0.0600000   -0.3300000   2.521103e-04  1.063590e-07
     29     30   2   0.50000     0.0600000    0.0300000   3.930919e-05  8.704828e-09
     29     31   2   0.50000     0.0600000    0.0300000   3.930919e-05  8.704828e-09
      7     10   2   0.50000    -0.1200000    0.5100000   1.575021e-03  3.561100e-06
     30     10   2   0.50000     0.0300000    0.5100000   2.482000e-04  1.854991e-07
     31     10   2   0.50000     0.0300000    0.5100000   2.482000e-04  1.854991e-07
      8     11   2   0.50000     0.1900000   -0.4300000   1.095425e-03  1.218041e-06
      8     12   2   0.50000     0.1900000   -0.0600000   1.015252e-03  1.866303e-06
      9     13   2   0.50000    -0.3300000   -0.1800000   1.026091e-03  1.187829e-06
      9     14   2   0.50000    -0.3300000   -0.1200000   1.026091e-03  1.187829e-06
      9     37   2   0.50000    -0.3300000    0.0600000   1.616969e-04  6.187447e-08
     11     13   2   0.50000    -0.4300000   -0.1800000   1.095425e-03  1.218041e-06
     11     14   2   0.50000    -0.4300000   -0.1200000   1.095425e-03  1.218041e-06
     11     37   2   0.50000    -0.4300000    0.0600000   1.726228e-04  6.344822e-08
     10     32   2   0.50000     0.5100000    0.0600000   3.869820e-04  3.188634e-07
     10     33   2   0.50000     0.5100000    0.0600000   3.869820e-04  3.188634e-07
     10     34   2   0.50000     0.5100000    0.0600000   3.869820e-04  3.188634e-07
     14     32   2   0.50000    -0.1200000    0.0600000   2.494471e-04  1.671101e-07
     14     33   2   0.50000    -0.1200000    0.0600000   2.494471e-04  1.671101e-07
     14     34   2   0.50000    -0.1200000    0.0600000   2.494471e-04  1.671101e-07
     37     32   2   0.50000     0.0600000    0.0600000   3.930919e-05  8.704828e-09
     37     33   2   0.50000     0.0600000    0.0600000   3.930919e-05  8.704828e-09
     37     34   2   0.50000     0.0600000    0.0600000   3.930919e-05  8.704828e-09
     10     35   2   0.50000     0.5100000    0.0600000   3.869820e-04  3.188634e-07
     10     36   2   0.50000     0.5100000    0.0600000   3.869820e-04  3.188634e-07
     10     49   2   0.50000     0.5100000    0.0000000   1.575021e-03  3.561100e-06
     13     35   2   0.50000    -0.1800000    0.0600000   2.494471e-04  1.671101e-07
     13     36   2   0.50000    -0.1800000    0.0600000   2.494471e-04  1.671101e-07
     13     49   2   0.50000    -0.1800000    0.0000000   1.015252e-03  1.866303e-06
     37     35   2   0.50000     0.0600000    0.0600000   3.930919e-05  8.704828e-09
     37     36   2   0.50000     0.0600000    0.0600000   3.930919e-05  8.704828e-09
     37     49   2   0.50000     0.0600000    0.0000000   1.599888e-04  9.721644e-08
     12     47   2   0.50000    -0.0600000    0.5100000   1.575021e-03  3.561100e-06
     12     50   2   0.50000    -0.0600000   -0.1800000   1.015252e-03  1.866303e-06
     12     51   2   0.50000    -0.0600000   -0.1200000   1.015252e-03  1.866303e-06
     35     47   2   0.50000     0.0600000    0.5100000   3.869820e-04  3.188634e-07
     35     50   2   0.50000     0.0600000   -0.1800000   2.494471e-04  1.671101e-07
     35     51   2   0.50000     0.0600000   -0.1200000   2.494471e-04  1.671101e-07
     36     47   2   0.50000     0.0600000    0.5100000   3.869820e-04  3.188634e-07
     36     50   2   0.50000     0.0600000   -0.1800000   2.494471e-04  1.671101e-07
     36     51   2   0.50000     0.0600000   -0.1200000   2.494471e-04  1.671101e-07
     52     40   2   0.50000     0.0600000   -0.1200000   2.494471e-04  1.671101e-07
     52     55   2   0.50000     0.0600000    0.0600000   6.128906e-05  1.496315e-08
     52     56   2   0.50000     0.0600000    0.0600000   6.128906e-05  1.496315e-08
     53     40   2   0.50000     0.0600000   -0.1200000   2.494471e-04  1.671101e-07
     53     55   2   0.50000     0.0600000    0.0600000   6.128906e-05  1.496315e-08
     53     56   2   0.50000     0.0600000    0.0600000   6.128906e-05  1.496315e-08
     54     40   2   0.50000     0.0600000   -0.1200000   2.494471e-04  1.671101e-07
     54     55   2   0.50000     0.0600000    0.0600000   6.128906e-05  1.496315e-08
     54     56   2   0.50000     0.0600000    0.0600000   6.128906e-05  1.496315e-08
     38     41   2   0.50000    -0.1800000   -0.1200000   1.015252e-03  1.866303e-06
     38     57   2   0.50000    -0.1800000    0.0600000   2.494471e-04  1.671101e-07
     38     58   2   0.50000    -0.1800000    0.0600000   2.494471e-04  1.671101e-07
     55     41   2   0.50000     0.0600000   -0.1200000   2.494471e-04  1.671101e-07
     55     57   2   0.50000     0.0600000    0.0600000   6.128906e-05  1.496315e-08
     55     58   2   0.50000     0.0600000    0.0600000   6.128906e-05  1.496315e-08
     56     41   2   0.50000     0.0600000   -0.1200000   2.494471e-04  1.671101e-07
     56     57   2   0.50000     0.0600000    0.0600000   6.128906e-05  1.496315e-08
     56     58   2   0.50000     0.0600000    0.0600000   6.128906e-05  1.496315e-08
     39     42   2   0.50000    -0.1200000   -0.1200000   1.015252e-03  1.866303e-06
     39     59   2   0.50000    -0.1200000    0.0600000   2.494471e-04  1.671101e-07
     39     60   2   0.50000    -0.1200000    0.0600000   2.494471e-04  1.671101e-07
     57     42   2   0.50000     0.0600000   -0.1200000   2.494471e-04  1.671101e-07
     57     59   2   0.50000     0.0600000    0.0600000   6.128906e-05  1.496315e-08
     57     60   2   0.50000     0.0600000    0.0600000   6.128906e-05  1.496315e-08
     58     42   2   0.50000     0.0600000   -0.1200000   2.494471e-04  1.671101e-07
     58     59   2   0.50000     0.0600000    0.0600000   6.128906e-05  1.496315e-08
     58     60   2   0.50000     0.0600000    0.0600000   6.128906e-05  1.496315e-08
     40     43   2   0.50000    -0.1200000   -0.1200000   1.015252e-03  1.866303e-06
     40     61   2   0.50000    -0.1200000    0.0600000   2.494471e-04  1.671101e-07
     40     62   2   0.50000    -0.1200000    0.0600000   2.494471e-04  1.671101e-07
     59     43   2   0.50000     0.0600000   -0.1200000   2.494471e-04  1.671101e-07
     59     61   2   0.50000     0.0600000    0.0600000   6.128906e-05  1.496315e-08
     59     62   2   0.50000     0.0600000    0.0600000   6.128906e-05  1.496315e-08
     60     43   2   0.50000     0.0600000   -0.1200000   2.494471e-04  1.671101e-07
     60     61   2   0.50000     0.0600000    0.0600000   6.128906e-05  1.496315e-08
     60     62   2   0.50000     0.0600000    0.0600000   6.128906e-05  1.496315e-08
     41     44   2   0.50000    -0.1200000   -0.1200000   1.015252e-03  1.866303e-06
     41     63   2   0.50000    -0.1200000    0.0600000   2.494471e-04  1.671101e-07
     41     64   2   0.50000    -0.1200000    0.0600000   2.494471e-04  1.671101e-07
     61     44   2   0.50000     0.0600000   -0.1200000   2.494471e-04  1.671101e-07
     61     63   2   0.50000     0.0600000    0.0600000   6.128906e-05  1.496315e-08
     61     64   2   0.50000     0.0600000    0.0600000   6.128906e-05  1.496315e-08
     62     44   2   0.50000     0.0600000   -0.1200000   2.494471e-04  1.671101e-07
     62     63   2   0.50000     0.0600000    0.0600000   6.128906e-05  1.496315e-08
     62     64   2   0.50000     0.0600000    0.0600000   6.128906e-05  1.496315e-08
     42     45   2   0.50000    -0.1200000    0.1900000   1.015252e-03  1.866303e-06
     42     65   2   0.50000    -0.1200000    0.0600000   2.494471e-04  1.671101e-07
     42     66   2   0.50000    -0.1200000    0.0600000   2.494471e-04  1.671101e-07
     63     45   2   0.50000     0.0600000    0.1900000   2.494471e-04  1.671101e-07
     63     65   2   0.50000     0.0600000    0.0600000   6.128906e-05  1.496315e-08
     63     66   2   0.50000     0.0600000    0.0600000   6.128906e-05  1.496315e-08
     64     45   2   0.50000     0.0600000    0.1900000   2.494471e-04  1.671101e-07
     64     65   2   0.50000     0.0600000    0.0600000   6.128906e-05  1.496315e-08
     64     66   2   0.50000     0.0600000    0.0600000   6.128906e-05  1.496315e-08
     43     46   2   0.50000    -0.1200000   -0.3300000   1.026091e-03  1.187829e-06
     43     67   2   0.50000    -0.1200000    0.0300000   1.599888e-04  9.721644e-08
     43     68   2   0.50000    -0.1200000    0.0300000   1.599888e-04  9.721644e-08
     65     46   2   0.50000     0.0600000   -0.3300000   2.521103e-04  1.063590e-07
     65     67   2   0.50000     0.0600000    0.0300000   3.930919e-05  8.704828e-09
     65     68   2   0.50000     0.0600000    0.0300000   3.930919e-05  8.704828e-09
     66     46   2   0.50000     0.0600000   -0.3300000   2.521103e-04  1.063590e-07
     66     67   2   0.50000     0.0600000    0.0300000   3.930919e-05  8.704828e-09
     66     68   2   0.50000     0.0600000    0.0300000   3.930919e-05  8.704828e-09
     44     47   2   0.50000    -0.1200000    0.5100000   1.575021e-03  3.561100e-06
     67     47   2   0.50000     0.0300000    0.5100000   2.482000e-04  1.854991e-07
     68     47   2   0.50000     0.0300000    0.5100000   2.482000e-04  1.854991e-07
     45     48   2   0.50000     0.1900000   -0.4300000   1.095425e-03  1.218041e-06
     45     49   2   0.50000     0.1900000    0.0000000   1.015252e-03  1.866303e-06
     46     14   2   0.50000    -0.3300000   -0.1200000   1.026091e-03  1.187829e-06
     46     50   2   0.50000    -0.3300000   -0.1800000   1.026091e-03  1.187829e-06
     46     51   2   0.50000    -0.3300000   -0.1200000   1.026091e-03  1.187829e-06
     48     14   2   0.50000    -0.4300000   -0.1200000   1.095425e-03  1.218041e-06
     48     50   2   0.50000    -0.4300000   -0.1800000   1.095425e-03  1.218041e-06
     48     51   2   0.50000    -0.4300000   -0.1200000   1.095425e-03  1.218041e-06
     14     69   2   0.50000    -0.1200000    0.0600000   2.494471e-04  1.671101e-07
     14     70   2   0.50000    -0.1200000    0.0600000   2.494471e-04  1.671101e-07
     14     71   2   0.50000    -0.1200000    0.0600000   2.494471e-04  1.671101e-07
     47     69   2   0.50000     0.5100000    0.0600000   3.869820e-04  3.188634e-07
     47     70   2   0.50000     0.5100000    0.0600000   3.869820e-04  3.188634e-07
     47     71   2   0.50000     0.5100000    0.0600000   3.869820e-04  3.188634e-07
     51     69   2   0.50000    -0.1200000    0.0600000   2.494471e-04  1.671101e-07
     51     70   2   0.50000    -0.1200000    0.0600000   2.494471e-04  1.671101e-07
     51     71   2   0.50000    -0.1200000    0.0600000   2.494471e-04  1.671101e-07
     14     72   2   0.50000    -0.1200000    0.0600000   2.494471e-04  1.671101e-07
     14     73   2   0.50000    -0.1200000    0.0600000   2.494471e-04  1.671101e-07
     14     85   2   0.50000    -0.1200000    0.0000000   1.015252e-03  1.866303e-06
     47     72   2   0.50000     0.5100000    0.0600000   3.869820e-04  3.188634e-07
     47     73   2   0.50000     0.5100000    0.0600000   3.869820e-04  3.188634e-07
     47     85   2   0.50000     0.5100000    0.0000000   1.575021e-03  3.561100e-06
     50     72   2   0.50000    -0.1800000    0.0600000   2.494471e-04  1.671101e-07
     50     73   2   0.50000    -0.1800000    0.0600000   2.494471e-04  1.671101e-07
     50     85   2   0.50000    -0.1800000    0.0000000   1.015252e-03  1.866303e-06
     49     83   2   0.50000     0.0000000    0.5100000   1.575021e-03  3.561100e-06
     49     86   2   0.50000     0.0000000   -0.1800000   1.015252e-03  1.866303e-06
     49     87   2   0.50000     0.0000000   -0.1200000   1.015252e-03  1.866303e-06
     72     83   2   0.50000     0.0600000    0.5100000   3.869820e-04  3.188634e-07
     72     86   2   0.50000     0.0600000   -0.1800000   2.494471e-04  1.671101e-07
     72     87   2   0.50000     0.0600000   -0.1200000   2.494471e-04  1.671101e-07
     73     83   2   0.50000     0.0600000    0.5100000   3.869820e-04  3.188634e-07
     73     86   2   0.50000     0.0600000   -0.1800000   2.494471e-04  1.671101e-07
     73     87   2   0.50000     0.0600000   -0.1200000   2.494471e-04  1.671101e-07
     88     76   2   0.50000     0.0600000   -0.1200000   2.494471e-04  1.671101e-07
     88     91   2   0.50000     0.0600000    0.0600000   6.128906e-05  1.496315e-08
     88     92   2   0.50000     0.0600000    0.0600000   6.128906e-05  1.496315e-08
     89     76   2   0.50000     0.0600000   -0.1200000   2.494471e-04  1.671101e-07
     89     91   2   0.50000     0.0600000    0.0600000   6.128906e-05  1.496315e-08
     89     92   2   0.50000     0.0600000    0.0600000   6.128906e-05  1.496315e-08
     90     76   2   0.50000     0.0600000   -0.1200000   2.494471e-04  1.671101e-07
     90     91   2   0.50000     0.0600000    0.0600000   6.128906e-05  1.496315e-08
     90     92   2   0.50000     0.0600000    0.0600000   6.128906e-05  1.496315e-08
     74     77   2   0.50000    -0.1800000   -0.1200000   1.015252e-03  1.866303e-06
     74     93   2   0.50000    -0.1800000    0.0600000   2.494471e-04  1.671101e-07
     74     94   2   0.50000    -0.1800000    0.0600000   2.494471e-04  1.671101e-07
     91     77   2   0.50000     0.0600000   -0.1200000   2.494471e-04  1.671101e-07
     91     93   2   0.50000     0.0600000    0.0600000   6.128906e-05  1.496315e-08
     91     94   2   0.50000     0.0600000    0.0600000   6.128906e-05  1.496315e-08
     92     77   2   0.50000     0.0600000   -0.1200000   2.494471e-04  1.671101e-07
     92     93   2   0.50000     0.0600000    0.0600000   6.128906e-05  1.496315e-08
     92     94   2   0.50000     0.0600000    0.0600000   6.128906e-05  1.496315e-08
     75     78   2   0.50000    -0.1200000   -0.1200000   1.015252e-03  1.866303e-06
     75     95   2   0.50000    -0.1200000    0.0600000   2.494471e-04  1.671101e-07
     75     96   2   0.50000    -0.1200000    0.0600000   2.494471e-04  1.671101e-07
     93     78   2   0.50000     0.0600000   -0.1200000   2.494471e-04  1.671101e-07
     93     95   2   0.50000     0.0600000    0.0600000   6.128906e-05  1.496315e-08
     93     96   2   0.50000     0.0600000    0.0600000   6.128906e-05  1.496315e-08
     94     78   2   0.50000     0.0600000   -0.1200000   2.494471e-04  1.671101e-07
     94     95   2   0.50000     0.0600000    0.0600000   6.128906e-05  1.496315e-08
     94     96   2   0.50000     0.0600000    0.0600000   6.128906e-05  1.496315e-08
     76     79   2   0.50000    -0.1200000   -0.1200000   1.015252e-03  1.866303e-06
     76     97   2   0.50000    -0.1200000    0.0600000   2.494471e-04  1.671101e-07
     76     98   2   0.50000    -0.1200000    0.0600000   2.494471e-04  1.671101e-07
     95     79   2   0.50000     0.0600000   -0.1200000   2.494471e-04  1.671101e-07
     95     97   2   0.50000     0.0600000    0.0600000   6.128906e-05  1.496315e-08
     95     98   2   0.50000     0.0600000    0.0600000   6.128906e-05  1.496315e-08
     96     79   2   0.50000     0.0600000   -0.1200000   2.494471e-04  1.671101e-07
     96     97   2   0.50000     0.0600000    0.0600000   6.128906e-05  1.496315e-08
     96     98   2   0.50000     0.0600000    0.0600000   6.128906e-05  1.496315e-08
     77     80   2   0.50000    -0.1200000   -0.1200000   1.015252e-03  1.866303e-06
     77     99   2   0.50000    -0.1200000    0.0600000   2.494471e-04  1.671101e-07
     77    100   2   0.50000    -0.1200000    0.0600000   2.494471e-04  1.671101e-07
     97     80   2   0.50000     0.0600000   -0.1200000   2.494471e-04  1.671101e-07
     97     99   2   0.50000     0.0600000    0.0600000   6.128906e-05  1.496315e-08
     97    100   2   0.50000     0.0600000    0.0600000   6.128906e-05  1.496315e-08
     98     80   2   0.50000     0.0600000   -0.1200000   2.494471e-04  1.671101e-07
     98     99   2   0.50000     0.0600000    0.0600000   6.128906e-05  1.496315e-08
     98    100   2   0.50000     0.0600000    0.0600000   6.128906e-05  1.496315e-08
     78     81   2   0.50000    -0.1200000    0.1900000   1.015252e-03  1.866303e-06
     78    101   2   0.50000    -0.1200000    0.0600000   2.494471e-04  1.671101e-07
     78    102   2   0.50000    -0.1200000    0.0600000   2.494471e-04  1.671101e-07
     99     81   2   0.50000     0.0600000    0.1900000   2.494471e-04  1.671101e-07
     99    101   2   0.50000     0.0600000    0.0600000   6.128906e-05  1.496315e-08
     99    102   2   0.50000     0.0600000    0.0600000   6.128906e-05  1.496315e-08
    100     81   2   0.50000     0.0600000    0.1900000   2.494471e-04  1.671101e-07
    100    101   2   0.50000     0.0600000    0.0600000   6.128906e-05  1.496315e-08
    100    102   2   0.50000     0.0600000    0.0600000   6.128906e-05  1.496315e-08
     79     82   2   0.50000    -0.1200000   -0.3300000   1.026091e-03  1.187829e-06
     79    103   2   0.50000    -0.1200000    0.0300000   1.599888e-04  9.721644e-08
     79    104   2   0.50000    -0.1200000    0.0300000   1.599888e-04  9.721644e-08
    101     82   2   0.50000     0.0600000   -0.3300000   2.521103e-04  1.063590e-07
    101    103   2   0.50000     0.0600000    0.0300000   3.930919e-05  8.704828e-09
    101    104   2   0.50000     0.0600000    0.0300000   3.930919e-05  8.704828e-09
    102     82   2   0.50000     0.0600000   -0.3300000   2.521103e-04  1.063590e-07
    102    103   2   0.50000     0.0600000    0.0300000   3.930919e-05  8.704828e-09
    102    104   2   0.50000     0.0600000    0.0300000   3.930919e-05  8.704828e-09
     80     83   2   0.50000    -0.1200000    0.5100000   1.575021e-03  3.561100e-06
    103     83   2   0.50000     0.0300000    0.5100000   2.482000e-04  1.854991e-07
    104     83   2   0.50000     0.0300000    0.5100000   2.482000e-04  1.854991e-07
     81     84   2   0.50000     0.1900000   -0.4300000   1.095425e-03  1.218041e-06
     81     85   2   0.50000     0.1900000    0.0000000   1.015252e-03  1.866303e-06
     82     51   2   0.50000    -0.3300000   -0.1200000   1.026091e-03  1.187829e-06
     82     86   2   0.50000    -0.3300000   -0.1800000   1.026091e-03  1.187829e-06
     82     87   2   0.50000    -0.3300000   -0.1200000   1.026091e-03  1.187829e-06
     84     51   2   0.50000    -0.4300000   -0.1200000   1.095425e-03  1.218041e-06
     84     86   2   0.50000    -0.4300000   -0.1800000   1.095425e-03  1.218041e-06
     84     87   2   0.50000    -0.4300000   -0.1200000   1.095425e-03  1.218041e-06
     51    105   2   0.50000    -0.1200000    0.0600000   2.494471e-04  1.671101e-07
     51    106   2   0.50000    -0.1200000    0.0600000   2.494471e-04  1.671101e-07
     51    107   2   0.50000    -0.1200000    0.0600000   2.494471e-04  1.671101e-07
     83    105   2   0.50000     0.5100000    0.0600000   3.869820e-04  3.188634e-07
     83    106   2   0.50000     0.5100000    0.0600000   3.869820e-04  3.188634e-07
     83    107   2   0.50000     0.5100000    0.0600000   3.869820e-04  3.188634e-07
     87    105   2   0.50000    -0.1200000    0.0600000   2.494471e-04  1.671101e-07
     87    106   2   0.50000    -0.1200000    0.0600000   2.494471e-04  1.671101e-07
     87    107   2   0.50000    -0.1200000    0.0600000   2.494471e-04  1.671101e-07
     51    108   2   0.50000    -0.1200000    0.0600000   2.494471e-04  1.671101e-07
     51    109   2   0.50000    -0.1200000    0.0600000   2.494471e-04  1.671101e-07
     51    121   2   0.50000    -0.1200000    0.0000000   1.015252e-03  1.866303e-06
     83    108   2   0.50000     0.5100000    0.0600000   3.869820e-04  3.188634e-07
     83    109   2   0.50000     0.5100000    0.0600000   3.869820e-04  3.188634e-07
     83    121   2   0.50000     0.5100000    0.0000000   1.575021e-03  3.561100e-06
     86    108   2   0.50000    -0.1800000    0.0600000   2.494471e-04  1.671101e-07
     86    109   2   0.50000    -0.1800000    0.0600000   2.494471e-04  1.671101e-07
     86    121   2   0.50000    -0.1800000    0.0000000   1.015252e-03  1.866303e-06
     85    119   2   0.50000     0.0000000    0.5100000   1.575021e-03  3.561100e-06
     85    122   2   0.50000     0.0000000   -0.1800000   1.015252e-03  1.866303e-06
     85    123   2   0.50000     0.0000000   -0.1200000   1.015252e-03  1.866303e-06
    108    119   2   0.50000     0.0600000    0.5100000   3.869820e-04  3.188634e-07
    108    122   2   0.50000     0.0600000   -0.1800000   2.494471e-04  1.671101e-07
    108    123   2   0.50000     0.0600000   -0.1200000   2.494471e-04  1.671101e-07
    109    119   2   0.50000     0.0600000    0.5100000   3.869820e-04  3.188634e-07
    109    122   2   0.50000     0.0600000   -0.1800000   2.494471e-04  1.671101e-07
    109    123   2   0.50000     0.0600000   -0.1200000   2.494471e-04  1.671101e-07
    124    112   2   0.50000     0.0600000   -0.1200000   2.494471e-04  1.671101e-07
    124    127   2   0.50000     0.0600000    0.0600000   6.128906e-05  1.496315e-08
    124    128   2   0.50000     0.0600000    0.0600000   6.128906e-05  1.496315e-08
    125    112   2   0.50000     0.0600000   -0.1200000   2.494471e-04  1.671101e-07
    125    127   2   0.50000     0.0600000    0.0600000   6.128906e-05  1.496315e-08
    125    128   2   0.50000     0.0600000    0.0600000   6.128906e-05  1.496315e-08
    126    112   2   0.50000     0.0600000   -0.1200000   2.494471e-04  1.671101e-07
    126    127   2   0.50000     0.0600000    0.0600000   6.128906e-05  1.496315e-08
    126    128   2   0.50000     0.0600000    0.0600000   6.128906e-05  1.496315e-08
    110    113   2   0.50000    -0.1800000   -0.1200000   1.015252e-03  1.866303e-06
    110    129   2   0.50000    -0.1800000    0.0600000   2.494471e-04  1.671101e-07
    110    130   2   0.50000    -0.1800000    0.0600000   2.494471e-04  1.671101e-07
    127    113   2   0.50000     0.0600000   -0.1200000   2.494471e-04  1.671101e-07
    127    129   2   0.50000     0.0600000    0.0600000   6.128906e-05  1.496315e-08
    127    130   2   0.50000     0.0600000    0.0600000   6.128906e-05  1.496315e-08
    128    113   2   0.50000     0.0600000   -0.1200000   2.494471e-04  1.671101e-07
    128    129   2   0.50000     0.0600000    0.0600000   6.128906e-05  1.496315e-08
    128    130   2   0.50000     0.0600000    0.0600000   6.128906e-05  1.496315e-08
    111    114   2   0.50000    -0.1200000   -0.1200000   1.015252e-03  1.866303e-06
    111    131   2   0.50000    -0.1200000    0.0600000   2.494471e-04  1.671101e-07
    111    132   2   0.50000    -0.1200000    0.0600000   2.494471e-04  1.671101e-07
    129    114   2   0.50000     0.0600000   -0.1200000   2.494471e-04  1.671101e-07
    129    131   2   0.50000     0.0600000    0.0600000   6.128906e-05  1.496315e-08
    129    132   2   0.50000     0.0600000    0.0600000   6.128906e-05  1.496315e-08
    130    114   2   0.50000     0.0600000   -0.1200000   2.494471e-04  1.671101e-07
    130    131   2   0.50000     0.0600000    0.0600000   6.128906e-05  1.496315e-08
    130    132   2   0.50000     0.0600000    0.0600000   6.128906e-05  1.496315e-08
    112    115   2   0.50000    -0.1200000   -0.1200000   1.015252e-03  1.866303e-06
    112    133   2   0.50000    -0.1200000    0.0600000   2.494471e-04  1.671101e-07
    112    134   2   0.50000    -0.1200000    0.0600000   2.494471e-04  1.671101e-07
    131    115   2   0.50000     0.0600000   -0.1200000   2.494471e-04  1.671101e-07
    131    133   2   0.50000     0.0600000    0.0600000   6.128906e-05  1.496315e-08
    131    134   2   0.50000     0.0600000    0.0600000   6.128906e-05  1.496315e-08
    132    115   2   0.50000     0.0600000   -0.1200000   2.494471e-04  1.671101e-07
    132    133   2   0.50000     0.0600000    0.0600000   6.128906e-05  1.496315e-08
    132    134   2   0.50000     0.0600000    0.0600000   6.128906e-05  1.496315e-08
    113    116   2   0.50000    -0.1200000   -0.1200000   1.015252e-03  1.866303e-06
    113    135   2   0.50000    -0.1200000    0.0600000   2.494471e-04  1.671101e-07
    113    136   2   0.50000    -0.1200000    0.0600000   2.494471e-04  1.671101e-07
    133    116   2   0.50000     0.0600000   -0.1200000   2.494471e-04  1.671101e-07
    133    135   2   0.50000     0.0600000    0.0600000   6.128906e-05  1.496315e-08
    133    136   2   0.50000     0.0600000    0.0600000   6.128906e-05  1.496315e-08
    134    116   2   0.50000     0.0600000   -0.1200000   2.494471e-04  1.671101e-07
    134    135   2   0.50000     0.0600000    0.0600000   6.128906e-05  1.496315e-08
    134    136   2   0.50000     0.0600000    0.0600000   6.128906e-05  1.496315e-08
    114    117   2   0.50000    -0.1200000    0.1900000   1.015252e-03  1.866303e-06
    114    137   2   0.50000    -0.1200000    0.0600000   2.494471e-04  1.671101e-07
    114    138   2   0.50000    -0.1200000    0.0600000   2.494471e-04  1.671101e-07
    135    117   2   0.50000     0.0600000    0.1900000   2.494471e-04  1.671101e-07
    135    137   2   0.50000     0.0600000    0.0600000   6.128906e-05  1.496315e-08
    135    138   2   0.50000     0.0600000    0.0600000   6.128906e-05  1.496315e-08
    136    117   2   0.50000     0.0600000    0.1900000   2.494471e-04  1.671101e-07
    136    137   2   0.50000     0.0600000    0.0600000   6.128906e-05  1.496315e-08
    136    138   2   0.50000     0.0600000    0.0600000   6.128906e-05  1.496315e-08
    115    118   2   0.50000    -0.1200000   -0.3300000   1.026091e-03  1.187829e-06
    115    139   2   0.50000    -0.1200000    0.0300000   1.599888e-04  9.721644e-08
    115    140   2   0.50000    -0.1200000    0.0300000   1.599888e-04  9.721644e-08
    137    118   2   0.50000     0.0600000   -0.3300000   2.521103e-04  1.063590e-07
    137    139   2   0.50000     0.0600000    0.0300000   3.930919e-05  8.704828e-09
    137    140   2   0.50000     0.0600000    0.0300000   3.930919e-05  8.704828e-09
    138    118   2   0.50000     0.0600000   -0.3300000   2.521103e-04  1.063590e-07
    138    139   2   0.50000     0.0600000    0.0300000   3.930919e-05  8.704828e-09
    138    140   2   0.50000     0.0600000    0.0300000   3.930919e-05  8.704828e-09
    116    119   2   0.50000    -0.1200000    0.5100000   1.575021e-03  3.561100e-06
    139    119   2   0.50000     0.0300000    0.5100000   2.482000e-04  1.854991e-07
    140    119   2   0.50000     0.0300000    0.5100000   2.482000e-04  1.854991e-07
    117    120   2   0.50000     0.1900000   -0.4300000   1.095425e-03  1.218041e-06
    117    121   2   0.50000     0.1900000    0.0000000   1.015252e-03  1.866303e-06
    118     87   2   0.50000    -0.3300000   -0.1200000   1.026091e-03  1.187829e-06
    118    122   2   0.50000    -0.3300000   -0.1800000   1.026091e-03  1.187829e-06
    118    123   2   0.50000    -0.3300000   -0.1200000   1.026091e-03  1.187829e-06
    120     87   2   0.50000    -0.4300000   -0.1200000   1.095425e-03  1.218041e-06
    120    122   2   0.50000    -0.4300000   -0.1800000   1.095425e-03  1.218041e-06
    120    123   2   0.50000    -0.4300000   -0.1200000   1.095425e-03  1.218041e-06
     87    141   2   0.50000    -0.1200000    0.0600000   2.494471e-04  1.671101e-07
     87    142   2   0.50000    -0.1200000    0.0600000   2.494471e-04  1.671101e-07
     87    143   2   0.50000    -0.1200000    0.0600000   2.494471e-04  1.671101e-07
    119    141   2   0.50000     0.5100000    0.0600000   3.869820e-04  3.188634e-07
    119    142   2   0.50000     0.5100000    0.0600000   3.869820e-04  3.188634e-07
    119    143   2   0.50000     0.5100000    0.0600000   3.869820e-04  3.188634e-07
    123    141   2   0.50000    -0.1200000    0.0600000   2.494471e-04  1.671101e-07
    123    142   2   0.50000    -0.1200000    0.0600000   2.494471e-04  1.671101e-07
    123    143   2   0.50000    -0.1200000    0.0600000   2.494471e-04  1.671101e-07
     87    144   2   0.50000    -0.1200000    0.0600000   2.494471e-04  1.671101e-07
     87    145   2   0.50000    -0.1200000    0.0600000   2.494471e-04  1.671101e-07
     87    157   2   0.50000    -0.1200000    0.0000000   1.015252e-03  1.866303e-06
    119    144   2   0.50000     0.5100000    0.0600000   3.869820e-04  3.188634e-07
    119    145   2   0.50000     0.5100000    0.0600000   3.869820e-04  3.188634e-07
    119    157   2   0.50000     0.5100000    0.0000000   1.575021e-03  3.561100e-06
    122    144   2   0.50000    -0.1800000    0.0600000   2.494471e-04  1.671101e-07
    122    145   2   0.50000    -0.1800000    0.0600000   2.494471e-04  1.671101e-07
    122    157   2   0.50000    -0.1800000    0.0000000   1.015252e-03  1.866303e-06
    121    155   2   0.50000     0.0000000    0.5100000   1.575021e-03  3.561100e-06
    121    158   2   0.50000     0.0000000   -0.1800000   1.015252e-03  1.866303e-06
    121    159   2   0.50000     0.0000000   -0.1200000   1.015252e-03  1.866303e-06
    144    155   2   0.50000     0.0600000    0.5100000   3.869820e-04  3.188634e-07
    144    158   2   0.50000     0.0600000   -0.1800000   2.494471e-04  1.671101e-07
    144    159   2   0.50000     0.0600000   -0.1200000   2.494471e-04  1.671101e-07
    145    155   2   0.50000     0.0600000    0.5100000   3.869820e-04  3.188634e-07
    145    158   2   0.50000     0.0600000   -0.1800000   2.494471e-04  1.671101e-07
    145    159   2   0.50000     0.0600000   -0.1200000   2.494471e-04  1.671101e-07
    160    148   2   0.50000     0.0600000   -0.1200000   2.494471e-04  1.671101e-07
    160    163   2   0.50000     0.0600000    0.0600000   6.128906e-05  1.496315e-08
    160    164   2   0.50000     0.0600000    0.0600000   6.128906e-05  1.496315e-08
    161    148   2   0.50000     0.0600000   -0.1200000   2.494471e-04  1.671101e-07
    161    163   2   0.50000     0.0600000    0.0600000   6.128906e-05  1.496315e-08
    161    164   2   0.50000     0.0600000    0.0600000   6.128906e-05  1.496315e-08
    162    148   2   0.50000     0.0600000   -0.1200000   2.494471e-04  1.671101e-07
    162    163   2   0.50000     0.0600000    0.0600000   6.128906e-05  1.496315e-08
    162    164   2   0.50000     0.0600000    0.0600000   6.128906e-05  1.496315e-08
    146    149   2   0.50000    -0.1800000   -0.1200000   1.015252e-03  1.866303e-06
    146    165   2   0.50000    -0.1800000    0.0600000   2.494471e-04  1.671101e-07
    146    166   2   0.50000    -0.1800000    0.0600000   2.494471e-04  1.671101e-07
    163    149   2   0.50000     0.0600000   -0.1200000   2.494471e-04  1.671101e-07
    163    165   2   0.50000     0.0600000    0.0600000   6.128906e-05  1.496315e-08
    163    166   2   0.50000     0.0600000    0.0600000   6.128906e-05  1.496315e-08
    164    149   2   0.50000     0.0600000   -0.1200000   2.494471e-04  1.671101e-07
    164    165   2   0.50000     0.0600000    0.0600000   6.128906e-05  1.496315e-08
    164    166   2   0.50000     0.0600000    0.0600000   6.128906e-05  1.496315e-08
    147    150   2   0.50000    -0.1200000   -0.1200000   1.015252e-03  1.866303e-06
    147    167   2   0.50000    -0.1200000    0.0600000   2.494471e-04  1.671101e-07
    147    168   2   0.50000    -0.1200000    0.0600000   2.494471e-04  1.671101e-07
    165    150   2   0.50000     0.0600000   -0.1200000   2.494471e-04  1.671101e-07
    165    167   2   0.50000     0.0600000    0.0600000   6.128906e-05  1.496315e-08
    165    168   2   0.50000     0.0600000    0.0600000   6.128906e-05  1.496315e-08
    166    150   2   0.50000     0.0600000   -0.1200000   2.494471e-04  1.671101e-07
    166    167   2   0.50000     0.0600000    0.0600000   6.128906e-05  1.496315e-08
    166    168   2   0.50000     0.0600000    0.0600000   6.128906e-05  1.496315e-08
    148    151   2   0.50000    -0.1200000   -0.1200000   1.015252e-03  1.866303e-06
    148    169   2   0.50000    -0.1200000    0.0600000   2.494471e-04  1.671101e-07
    148    170   2   0.50000    -0.1200000    0.0600000   2.494471e-04  1.671101e-07
    167    151   2   0.50000     0.0600000   -0.1200000   2.494471e-04  1.671101e-07
    167    169   2   0.50000     0.0600000    0.0600000   6.128906e-05  1.496315e-08
    167    170   2   0.50000     0.0600000    0.0600000   6.128906e-05  1.496315e-08
    168    151   2   0.50000     0.0600000   -0.1200000   2.494471e-04  1.671101e-07
    168    169   2   0.50000     0.0600000    0.0600000   6.128906e-05  1.496315e-08
    168    170   2   0.50000     0.0600000    0.0600000   6.128906e-05  1.496315e-08
    149    152   2   0.50000    -0.1200000   -0.1200000   1.015252e-03  1.866303e-06
    149    171   2   0.50000    -0.1200000    0.0600000   2.494471e-04  1.671101e-07
    149    172   2   0.50000    -0.1200000    0.0600000   2.494471e-04  1.671101e-07
    169    152   2   0.50000     0.0600000   -0.1200000   2.494471e-04  1.671101e-07
    169    171   2   0.50000     0.0600000    0.0600000   6.128906e-05  1.496315e-08
    169    172   2   0.50000     0.0600000    0.0600000   6.128906e-05  1.496315e-08
    170    152   2   0.50000     0.0600000   -0.1200000   2.494471e-04  1.671101e-07
    170    171   2   0.50000     0.0600000    0.0600000   6.128906e-05  1.496315e-08
    170    172   2   0.50000     0.0600000    0.0600000   6.128906e-05  1.496315e-08
    150    153   2   0.50000    -0.1200000    0.1900000   1.015252e-03  1.866303e-06
    150    173   2   0.50000    -0.1200000    0.0600000   2.494471e-04  1.671101e-07
    150    174   2   0.50000    -0.1200000    0.0600000   2.494471e-04  1.671101e-07
    171    153   2   0.50000     0.0600000    0.1900000   2.494471e-04  1.671101e-07
    171    173   2   0.50000     0.0600000    0.0600000   6.128906e-05  1.496315e-08
    171    174   2   0.50000     0.0600000    0.0600000   6.128906e-05  1.496315e-08
    172    153   2   0.50000     0.0600000    0.1900000   2.494471e-04  1.671101e-07
    172    173   2   0.50000     0.0600000    0.0600000   6.128906e-05  1.496315e-08
    172    174   2   0.50000     0.0600000    0.0600000   6.128906e-05  1.496315e-08
    151    154   2   0.50000    -0.1200000   -0.3300000   1.026091e-03  1.187829e-06
    151    175   2   0.50000    -0.1200000    0.0300000   1.599888e-04  9.721644e-08
    151    176   2   0.50000    -0.1200000    0.0300000   1.599888e-04  9.721644e-08
    173    154   2   0.50000     0.0600000   -0.3300000   2.521103e-04  1.063590e-07
    173    175   2   0.50000     0.0600000    0.0300000   3.930919e-05  8.704828e-09
    173    176   2   0.50000     0.0600000    0.0300000   3.930919e-05  8.704828e-09
    174    154   2   0.50000     0.0600000   -0.3300000   2.521103e-04  1.063590e-07
    174    175   2   0.50000     0.0600000    0.0300000   3.930919e-05  8.704828e-09
    174    176   2   0.50000     0.0600000    0.0300000   3.930919e-05  8.704828e-09
    152    155   2   0.50000    -0.1200000    0.5100000   1.575021e-03  3.561100e-06
    175    155   2   0.50000     0.0300000    0.5100000   2.482000e-04  1.854991e-07
    176    155   2   0.50000     0.0300000    0.5100000   2.482000e-04  1.854991e-07
    153    156   2   0.50000     0.1900000   -0.4300000   1.095425e-03  1.218041e-06
    153    157   2   0.50000     0.1900000    0.0000000   1.015252e-03  1.866303e-06
    154    123   2   0.50000    -0.3300000   -0.1200000   1.026091e-03  1.187829e-06
    154    158   2   0.50000    -0.3300000   -0.1800000   1.026091e-03  1.187829e-06
    154    159   2   0.50000    -0.3300000   -0.1200000   1.026091e-03  1.187829e-06
    156    123   2   0.50000    -0.4300000   -0.1200000   1.095425e-03  1.218041e-06
    156    158   2   0.50000    -0.4300000   -0.1800000   1.095425e-03  1.218041e-06
    156    159   2   0.50000    -0.4300000   -0.1200000   1.095425e-03  1.218041e-06
    123    177   2   0.50000    -0.1200000    0.0600000   2.494471e-04  1.671101e-07
    123    178   2   0.50000    -0.1200000    0.0600000   2.494471e-04  1.671101e-07
    123    179   2   0.50000    -0.1200000    0.0600000   2.494471e-04  1.671101e-07
    155    177   2   0.50000     0.5100000    0.0600000   3.869820e-04  3.188634e-07
    155    178   2   0.50000     0.5100000    0.0600000   3.869820e-04  3.188634e-07
    155    179   2   0.50000     0.5100000    0.0600000   3.869820e-04  3.188634e-07
    159    177   2   0.50000    -0.1200000    0.0600000   2.494471e-04  1.671101e-07
    159    178   2   0.50000    -0.1200000    0.0600000   2.494471e-04  1.671101e-07
    159    179   2   0.50000    -0.1200000    0.0600000   2.494471e-04  1.671101e-07
    123    180   2   0.50000    -0.1200000    0.0600000   2.494471e-04  1.671101e-07
    123    181   2   0.50000    -0.1200000    0.0600000   2.494471e-04  1.671101e-07
    123    193   2   0.50000    -0.1200000    0.0000000   1.015252e-03  1.866303e-06
    155    180   2   0.50000     0.5100000    0.0600000   3.869820e-04  3.188634e-07
    155    181   2   0.50000     0.5100000    0.0600000   3.869820e-04  3.188634e-07
    155    193   2   0.50000     0.5100000    0.0000000   1.575021e-03  3.561100e-06
    158    180   2   0.50000    -0.1800000    0.0600000   2.494471e-04  1.671101e-07
    158    181   2   0.50000    -0.1800000    0.0600000   2.494471e-04  1.671101e-07
    158    193   2   0.50000    -0.1800000    0.0000000   1.015252e-03  1.866303e-06
    157    191   2   0.50000     0.0000000    0.5100000   1.575021e-03  3.561100e-06
    157    194   2   0.50000     0.0000000   -0.1800000   1.015252e-03  1.866303e-06
    157    195   2   0.50000     0.0000000   -0.1200000   1.015252e-03  1.866303e-06
    180    191   2   0.50000     0.0600000    0.5100000   3.869820e-04  3.188634e-07
    180    194   2   0.50000     0.0600000   -0.1800000   2.494471e-04  1.671101e-07
    180    195   2   0.50000     0.0600000   -0.1200000   2.494471e-04  1.671101e-07
    181    191   2   0.50000     0.0600000    0.5100000   3.869820e-04  3.188634e-07
    181    194   2   0.50000     0.0600000   -0.1800000   2.494471e-04  1.671101e-07
    181    195   2   0.50000     0.0600000   -0.1200000   2.494471e-04  1.671101e-07
    196    184   2   0.50000     0.0600000   -0.1200000   2.494471e-04  1.671101e-07
    196    199   2   0.50000     0.0600000    0.0600000   6.128906e-05  1.496315e-08
    196    200   2   0.50000     0.0600000    0.0600000   6.128906e-05  1.496315e-08
    197    184   2   0.50000     0.0600000   -0.1200000   2.494471e-04  1.671101e-07
    197    199   2   0.50000     0.0600000    0.0600000   6.128906e-05  1.496315e-08
    197    200   2   0.50000     0.0600000    0.0600000   6.128906e-05  1.496315e-08
    198    184   2   0.50000     0.0600000   -0.1200000   2.494471e-04  1.671101e-07
    198    199   2   0.50000     0.0600000    0.0600000   6.128906e-05  1.496315e-08
    198    200   2   0.50000     0.0600000    0.0600000   6.128906e-05  1.496315e-08
    182    185   2   0.50000    -0.1800000   -0.1200000   1.015252e-03  1.866303e-06
    182    201   2   0.50000    -0.1800000    0.0600000   2.494471e-04  1.671101e-07
    182    202   2   0.50000    -0.1800000    0.0600000   2.494471e-04  1.671101e-07
    199    185   2   0.50000     0.0600000   -0.1200000   2.494471e-04  1.671101e-07
    199    201   2   0.50000     0.0600000    0.0600000   6.128906e-05  1.496315e-08
    199    202   2   0.50000     0.0600000    0.0600000   6.128906e-05  1.496315e-08
    200    185   2   0.50000     0.0600000   -0.1200000   2.494471e-04  1.671101e-07
    200    201   2   0.50000     0.0600000    0.0600000   6.128906e-05  1.496315e-08
    200    202   2   0.50000     0.0600000    0.0600000   6.128906e-05  1.496315e-08
    183    186   2   0.50000    -0.1200000   -0.1200000   1.015252e-03  1.866303e-06
    183    203   2   0.50000    -0.1200000    0.0600000   2.494471e-04  1.671101e-07
    183    204   2   0.50000    -0.1200000    0.0600000   2.494471e-04  1.671101e-07
    201    186   2   0.50000     0.0600000   -0.1200000   2.494471e-04  1.671101e-07
    201    203   2   0.50000     0.0600000    0.0600000   6.128906e-05  1.496315e-08
    201    204   2   0.50000     0.0600000    0.0600000   6.128906e-05  1.496315e-08
    202    186   2   0.50000     0.0600000   -0.1200000   2.494471e-04  1.671101e-07
    202    203   2   0.50000     0.0600000    0.0600000   6.128906e-05  1.496315e-08
    202    204   2   0.50000     0.0600000    0.0600000   6.128906e-05  1.496315e-08
    184    187   2   0.50000    -0.1200000   -0.1200000   1.015252e-03  1.866303e-06
    184    205   2   0.50000    -0.1200000    0.0600000   2.494471e-04  1.671101e-07
    184    206   2   0.50000    -0.1200000    0.0600000   2.494471e-04  1.671101e-07
    203    187   2   0.50000     0.0600000   -0.1200000   2.494471e-04  1.671101e-07
    203    205   2   0.50000     0.0600000    0.0600000   6.128906e-05  1.496315e-08
    203    206   2   0.50000     0.0600000    0.0600000   6.128906e-05  1.496315e-08
    204    187   2   0.50000     0.0600000   -0.1200000   2.494471e-04  1.671101e-07
    204    205   2   0.50000     0.0600000    0.0600000   6.128906e-05  1.496315e-08
    204    206   2   0.50000     0.0600000    0.0600000   6.128906e-05  1.496315e-08
    185    188   2   0.50000    -0.1200000   -0.1200000   1.015252e-03  1.866303e-06
    185    207   2   0.50000    -0.1200000    0.0600000   2.494471e-04  1.671101e-07
    185    208   2   0.50000    -0.1200000    0.0600000   2.494471e-04  1.671101e-07
    205    188   2   0.50000     0.0600000   -0.1200000   2.494471e-04  1.671101e-07
    205    207   2   0.50000     0.0600000    0.0600000   6.128906e-05  1.496315e-08
    205    208   2   0.50000     0.0600000    0.0600000   6.128906e-05  1.496315e-08
    206    188   2   0.50000     0.0600000   -0.1200000   2.494471e-04  1.671101e-07
    206    207   2   0.50000     0.0600000    0.0600000   6.128906e-05  1.496315e-08
    206    208   2   0.50000     0.0600000    0.0600000   6.128906e-05  1.496315e-08
    186    189   2   0.50000    -0.1200000    0.1900000   1.015252e-03  1.866303e-06
    186    209   2   0.50000    -0.1200000    0.0600000   2.494471e-04  1.671101e-07
    186    210   2   0.50000    -0.1200000    0.0600000   2.494471e-04  1.671101e-07
    207    189   2   0.50000     0.0600000    0.1900000   2.494471e-04  1.671101e-07
    207    209   2   0.50000     0.0600000    0.0600000   6.128906e-05  1.496315e-08
    207    210   2   0.50000     0.0600000    0.0600000   6.128906e-05  1.496315e-08
    208    189   2   0.50000     0.0600000    0.1900000   2.494471e-04  1.671101e-07
    208    209   2   0.50000     0.0600000    0.0600000   6.128906e-05  1.496315e-08
    208    210   2   0.50000     0.0600000    0.0600000   6.128906e-05  1.496315e-08
    187    190   2   0.50000    -0.1200000   -0.3300000   1.026091e-03  1.187829e-06
    187    211   2   0.50000    -0.1200000    0.0300000   1.599888e-04  9.721644e-08
    187    212   2   0.50000    -0.1200000    0.0300000   1.599888e-04  9.721644e-08
    209    190   2   0.50000     0.0600000   -0.3300000   2.521103e-04  1.063590e-07
    209    211   2   0.50000     0.0600000    0.0300000   3.930919e-05  8.704828e-09
    209    212   2   0.50000     0.0600000    0.0300000   3.930919e-05  8.704828e-09
    210    190   2   0.50000     0.0600000   -0.3300000   2.521103e-04  1.063590e-07
    210    211   2   0.50000     0.0600000    0.0300000   3.930919e-05  8.704828e-09
    210    212   2   0.50000     0.0600000    0.0300000   3.930919e-05  8.704828e-09
    188    191   2   0.50000    -0.1200000    0.5100000   1.575021e-03  3.561100e-06
    211    191   2   0.50000     0.0300000    0.5100000   2.482000e-04  1.854991e-07
    212    191   2   0.50000     0.0300000    0.5100000   2.482000e-04  1.854991e-07
    189    192   2   0.50000     0.1900000   -0.4300000   1.095425e-03  1.218041e-06
    189    193   2   0.50000     0.1900000    0.0000000   1.015252e-03  1.866303e-06
    190    159   2   0.50000    -0.3300000   -0.1200000   1.026091e-03  1.187829e-06
    190    194   2   0.50000    -0.3300000   -0.1800000   1.026091e-03  1.187829e-06
    190    195   2   0.50000    -0.3300000   -0.1200000   1.026091e-03  1.187829e-06
    192    159   2   0.50000    -0.4300000   -0.1200000   1.095425e-03  1.218041e-06
    192    194   2   0.50000    -0.4300000   -0.1800000   1.095425e-03  1.218041e-06
    192    195   2   0.50000    -0.4300000   -0.1200000   1.095425e-03  1.218041e-06
    159    213   2   0.50000    -0.1200000    0.0600000   2.494471e-04  1.671101e-07
    159    214   2   0.50000    -0.1200000    0.0600000   2.494471e-04  1.671101e-07
    159    215   2   0.50000    -0.1200000    0.0600000   2.494471e-04  1.671101e-07
    191    213   2   0.50000     0.5100000    0.0600000   3.869820e-04  3.188634e-07
    191    214   2   0.50000     0.5100000    0.0600000   3.869820e-04  3.188634e-07
    191    215   2   0.50000     0.5100000    0.0600000   3.869820e-04  3.188634e-07
    195    213   2   0.50000    -0.1200000    0.0600000   2.494471e-04  1.671101e-07
    195    214   2   0.50000    -0.1200000    0.0600000   2.494471e-04  1.671101e-07
    195    215   2   0.50000    -0.1200000    0.0600000   2.494471e-04  1.671101e-07
    159    216   2   0.50000    -0.1200000    0.0600000   2.494471e-04  1.671101e-07
    159    217   2   0.50000    -0.1200000    0.0600000   2.494471e-04  1.671101e-07
    159    229   2   0.50000    -0.1200000    0.0000000   1.015252e-03  1.866303e-06
    191    216   2   0.50000     0.5100000    0.0600000   3.869820e-04  3.188634e-07
    191    217   2   0.50000     0.5100000    0.0600000   3.869820e-04  3.188634e-07
    191    229   2   0.50000     0.5100000    0.0000000   1.575021e-03  3.561100e-06
    194    216   2   0.50000    -0.1800000    0.0600000   2.494471e-04  1.671101e-07
    194    217   2   0.50000    -0.1800000    0.0600000   2.494471e-04  1.671101e-07
    194    229   2   0.50000    -0.1800000    0.0000000   1.015252e-03  1.866303e-06
    193    227   2   0.50000     0.0000000    0.5100000   1.575021e-03  3.561100e-06
    193    230   2   0.50000     0.0000000   -0.1800000   1.015252e-03  1.866303e-06
    193    231   2   0.50000     0.0000000   -0.1200000   1.015252e-03  1.866303e-06
    216    227   2   0.50000     0.0600000    0.5100000   3.869820e-04  3.188634e-07
    216    230   2   0.50000     0.0600000   -0.1800000   2.494471e-04  1.671101e-07
    216    231   2   0.50000     0.0600000   -0.1200000   2.494471e-04  1.671101e-07
    217    227   2   0.50000     0.0600000    0.5100000   3.869820e-04  3.188634e-07
    217    230   2   0.50000     0.0600000   -0.1800000   2.494471e-04  1.671101e-07
    217    231   2   0.50000     0.0600000   -0.1200000   2.494471e-04  1.671101e-07
    232    220   2   0.50000     0.0600000   -0.1200000   2.494471e-04  1.671101e-07
    232    235   2   0.50000     0.0600000    0.0600000   6.128906e-05  1.496315e-08
    232    236   2   0.50000     0.0600000    0.0600000   6.128906e-05  1.496315e-08
    233    220   2   0.50000     0.0600000   -0.1200000   2.494471e-04  1.671101e-07
    233    235   2   0.50000     0.0600000    0.0600000   6.128906e-05  1.496315e-08
    233    236   2   0.50000     0.0600000    0.0600000   6.128906e-05  1.496315e-08
    234    220   2   0.50000     0.0600000   -0.1200000   2.494471e-04  1.671101e-07
    234    235   2   0.50000     0.0600000    0.0600000   6.128906e-05  1.496315e-08
    234    236   2   0.50000     0.0600000    0.0600000   6.128906e-05  1.496315e-08
    218    221   2   0.50000    -0.1800000   -0.1200000   1.015252e-03  1.866303e-06
    218    237   2   0.50000    -0.1800000    0.0600000   2.494471e-04  1.671101e-07
    218    238   2   0.50000    -0.1800000    0.0600000   2.494471e-04  1.671101e-07
    235    221   2   0.50000     0.0600000   -0.1200000   2.494471e-04  1.671101e-07
    235    237   2   0.50000     0.0600000    0.0600000   6.128906e-05  1.496315e-08
    235    238   2   0.50000     0.0600000    0.0600000   6.128906e-05  1.496315e-08
    236    221   2   0.50000     0.0600000   -0.1200000   2.494471e-04  1.671101e-07
    236    237   2   0.50000     0.0600000    0.0600000   6.128906e-05  1.496315e-08
    236    238   2   0.50000     0.0600000    0.0600000   6.128906e-05  1.496315e-08
    219    222   2   0.50000    -0.1200000   -0.1200000   1.015252e-03  1.866303e-06
    219    239   2   0.50000    -0.1200000    0.0600000   2.494471e-04  1.671101e-07
    219    240   2   0.50000    -0.1200000    0.0600000   2.494471e-04  1.671101e-07
    237    222   2   0.50000     0.0600000   -0.1200000   2.494471e-04  1.671101e-07
    237    239   2   0.50000     0.0600000    0.0600000   6.128906e-05  1.496315e-08
    237    240   2   0.50000     0.0600000    0.0600000   6.128906e-05  1.496315e-08
    238    222   2   0.50000     0.0600000   -0.1200000   2.494471e-04  1.671101e-07
    238    239   2   0.50000     0.0600000    0.0600000   6.128906e-05  1.496315e-08
    238    240   2   0.50000     0.0600000    0.0600000   6.128906e-05  1.496315e-08
    220    223   2   0.50000    -0.1200000   -0.1200000   1.015252e-03  1.866303e-06
    220    241   2   0.50000    -0.1200000    0.0600000   2.494471e-04  1.671101e-07
    220    242   2   0.50000    -0.1200000    0.0600000   2.494471e-04  1.671101e-07
    239    223   2   0.50000     0.0600000   -0.1200000   2.494471e-04  1.671101e-07
    239    241   2   0.50000     0.0600000    0.0600000   6.128906e-05  1.496315e-08
    239    242   2   0.50000     0.0600000    0.0600000   6.128906e-05  1.496315e-08
    240    223   2   0.50000     0.0600000   -0.1200000   2.494471e-04  1.671101e-07
    240    241   2   0.50000     0.0600000    0.0600000   6.128906e-05  1.496315e-08
    240    242   2   0.50000     0.0600000    0.0600000   6.128906e-05  1.496315e-08
    221    224   2   0.50000    -0.1200000   -0.1200000   1.015252e-03  1.866303e-06
    221    243   2   0.50000    -0.1200000    0.0600000   2.494471e-04  1.671101e-07
    221    244   2   0.50000    -0.1200000    0.0600000   2.494471e-04  1.671101e-07
    241    224   2   0.50000     0.0600000   -0.1200000   2.494471e-04  1.671101e-07
    241    243   2   0.50000     0.0600000    0.0600000   6.128906e-05  1.496315e-08
    241    244   2   0.50000     0.0600000    0.0600000   6.128906e-05  1.496315e-08
    242    224   2   0.50000     0.0600000   -0.1200000   2.494471e-04  1.671101e-07
    242    243   2   0.50000     0.0600000    0.0600000   6.128906e-05  1.496315e-08
    242    244   2   0.50000     0.0600000    0.0600000   6.128906e-05  1.496315e-08
    222    225   2   0.50000    -0.1200000    0.1900000   1.015252e-03  1.866303e-06
    222    245   2   0.50000    -0.1200000    0.0600000   2.494471e-04  1.671101e-07
    222    246   2   0.50000    -0.1200000    0.0600000   2.494471e-04  1.671101e-07
    243    225   2   0.50000     0.0600000    0.1900000   2.494471e-04  1.671101e-07
    243    245   2   0.50000     0.0600000    0.0600000   6.128906e-05  1.496315e-08
    243    246   2   0.50000     0.0600000    0.0600000   6.128906e-05  1.496315e-08
    244    225   2   0.50000     0.0600000    0.1900000   2.494471e-04  1.671101e-07
    244    245   2   0.50000     0.0600000    0.0600000   6.128906e-05  1.496315e-08
    244    246   2   0.50000     0.0600000    0.0600000   6.128906e-05  1.496315e-08
    223    226   2   0.50000    -0.1200000   -0.3300000   1.026091e-03  1.187829e-06
    223    247   2   0.50000    -0.1200000    0.0300000   1.599888e-04  9.721644e-08
    223    248   2   0.50000    -0.1200000    0.0300000   1.599888e-04  9.721644e-08
    245    226   2   0.50000     0.0600000   -0.3300000   2.521103e-04  1.063590e-07
    245    247   2   0.50000     0.0600000    0.0300000   3.930919e-05  8.704828e-09
    245    248   2   0.50000     0.0600000    0.0300000   3.930919e-05  8.704828e-09
    246    226   2   0.50000     0.0600000   -0.3300000   2.521103e-04  1.063590e-07
    246    247   2   0.50000     0.0600000    0.0300000   3.930919e-05  8.704828e-09
    246    248   2   0.50000     0.0600000    0.0300000   3.930919e-05  8.704828e-09
    224    227   2   0.50000    -0.1200000    0.5100000   1.575021e-03  3.561100e-06
    247    227   2   0.50000     0.0300000    0.5100000   2.482000e-04  1.854991e-07
    248    227   2   0.50000     0.0300000    0.5100000   2.482000e-04  1.854991e-07
    225    228   2   0.50000     0.1900000   -0.4300000   1.095425e-03  1.218041e-06
    225    229   2   0.50000     0.1900000    0.0000000   1.015252e-03  1.866303e-06
    226    195   2   0.50000    -0.3300000   -0.1200000   1.026091e-03  1.187829e-06
    226    230   2   0.50000    -0.3300000   -0.1800000   1.026091e-03  1.187829e-06
    226    231   2   0.50000    -0.3300000   -0.1200000   1.026091e-03  1.187829e-06
    228    195   2   0.50000    -0.4300000   -0.1200000   1.095425e-03  1.218041e-06
    228    230   2   0.50000    -0.4300000   -0.1800000   1.095425e-03  1.218041e-06
    228    231   2   0.50000    -0.4300000   -0.1200000   1.095425e-03  1.218041e-06
    195    249   2   0.50000    -0.1200000    0.0600000   2.494471e-04  1.671101e-07
    195    250   2   0.50000    -0.1200000    0.0600000   2.494471e-04  1.671101e-07
    195    251   2   0.50000    -0.1200000    0.0600000   2.494471e-04  1.671101e-07
    227    249   2   0.50000     0.5100000    0.0600000   3.869820e-04  3.188634e-07
    227    250   2   0.50000     0.5100000    0.0600000   3.869820e-04  3.188634e-07
    227    251   2   0.50000     0.5100000    0.0600000   3.869820e-04  3.188634e-07
    231    249   2   0.50000    -0.1200000    0.0600000   2.494471e-04  1.671101e-07
    231    250   2   0.50000    -0.1200000    0.0600000   2.494471e-04  1.671101e-07
    231    251   2   0.50000    -0.1200000    0.0600000   2.494471e-04  1.671101e-07
    195    252   2   0.50000    -0.1200000    0.0600000   2.494471e-04  1.671101e-07
    195    253   2   0.50000    -0.1200000    0.0600000   2.494471e-04  1.671101e-07
    195    265   2   0.50000    -0.1200000    0.0000000   1.015252e-03  1.866303e-06
    227    252   2   0.50000     0.5100000    0.0600000   3.869820e-04  3.188634e-07
    227    253   2   0.50000     0.5100000    0.0600000   3.869820e-04  3.188634e-07
    227    265   2   0.50000     0.5100000    0.0000000   1.575021e-03  3.561100e-06
    230    252   2   0.50000    -0.1800000    0.0600000   2.494471e-04  1.671101e-07
    230    253   2   0.50000    -0.1800000    0.0600000   2.494471e-04  1.671101e-07
    230    265   2   0.50000    -0.1800000    0.0000000   1.015252e-03  1.866303e-06
    229    263   2   0.50000     0.0000000    0.5100000   1.575021e-03  3.561100e-06
    229    266   2   0.50000     0.0000000   -0.1800000   1.015252e-03  1.866303e-06
    229    267   2   0.50000     0.0000000   -0.1200000   1.015252e-03  1.866303e-06
    252    263   2   0.50000     0.0600000    0.5100000   3.869820e-04  3.188634e-07
    252    266   2   0.50000     0.0600000   -0.1800000   2.494471e-04  1.671101e-07
    252    267   2   0.50000     0.0600000   -0.1200000   2.494471e-04  1.671101e-07
    253    263   2   0.50000     0.0600000    0.5100000   3.869820e-04  3.188634e-07
    253    266   2   0.50000     0.0600000   -0.1800000   2.494471e-04  1.671101e-07
    253    267   2   0.50000     0.0600000   -0.1200000   2.494471e-04  1.671101e-07
    268    256   2   0.50000     0.0600000   -0.1200000   2.494471e-04  1.671101e-07
    268    271   2   0.50000     0.0600000    0.0600000   6.128906e-05  1.496315e-08
    268    272   2   0.50000     0.0600000    0.0600000   6.128906e-05  1.496315e-08
    269    256   2   0.50000     0.0600000   -0.1200000   2.494471e-04  1.671101e-07
    269    271   2   0.50000     0.0600000    0.0600000   6.128906e-05  1.496315e-08
    269    272   2   0.50000     0.0600000    0.0600000   6.128906e-05  1.496315e-08
    270    256   2   0.50000     0.0600000   -0.1200000   2.494471e-04  1.671101e-07
    270    271   2   0.50000     0.0600000    0.0600000   6.128906e-05  1.496315e-08
    270    272   2   0.50000     0.0600000    0.0600000   6.128906e-05  1.496315e-08
    254    257   2   0.50000    -0.1800000   -0.1200000   1.015252e-03  1.866303e-06
    254    273   2   0.50000    -0.1800000    0.0600000   2.494471e-04  1.671101e-07
    254    274   2   0.50000    -0.1800000    0.0600000   2.494471e-04  1.671101e-07
    271    257   2   0.50000     0.0600000   -0.1200000   2.494471e-04  1.671101e-07
    271    273   2   0.50000     0.0600000    0.0600000   6.128906e-05  1.496315e-08
    271    274   2   0.50000     0.0600000    0.0600000   6.128906e-05  1.496315e-08
    272    257   2   0.50000     0.0600000   -0.1200000   2.494471e-04  1.671101e-07
    272    273   2   0.50000     0.0600000    0.0600000   6.128906e-05  1.496315e-08
    272    274   2   0.50000     0.0600000    0.0600000   6.128906e-05  1.496315e-08
    255    258   2   0.50000    -0.1200000   -0.1200000   1.015252e-03  1.866303e-06
    255    275   2   0.50000    -0.1200000    0.0600000   2.494471e-04  1.671101e-07
    255    276   2   0.50000    -0.1200000    0.0600000   2.494471e-04  1.671101e-07
    273    258   2   0.50000     0.0600000   -0.1200000   2.494471e-04  1.671101e-07
    273    275   2   0.50000     0.0600000    0.0600000   6.128906e-05  1.496315e-08
    273    276   2   0.50000     0.0600000    0.0600000   6.128906e-05  1.496315e-08
    274    258   2   0.50000     0.0600000   -0.1200000   2.494471e-04  1.671101e-07
    274    275   2   0.50000     0.0600000    0.0600000   6.128906e-05  1.496315e-08
    274    276   2   0.50000     0.0600000    0.0600000   6.128906e-05  1.496315e-08
    256    259   2   0.50000    -0.1200000   -0.1200000   1.015252e-03  1.866303e-06
    256    277   2   0.50000    -0.1200000    0.0600000   2.494471e-04  1.671101e-07
    256    278   2   0.50000    -0.1200000    0.0600000   2.494471e-04  1.671101e-07
    275    259   2   0.50000     0.0600000   -0.1200000   2.494471e-04  1.671101e-07
    275    277   2   0.50000     0.0600000    0.0600000   6.128906e-05  1.496315e-08
    275    278   2   0.50000     0.0600000    0.0600000   6.128906e-05  1.496315e-08
    276    259   2   0.50000     0.0600000   -0.1200000   2.494471e-04  1.671101e-07
    276    277   2   0.50000     0.0600000    0.0600000   6.128906e-05  1.496315e-08
    276    278   2   0.50000     0.0600000    0.0600000   6.128906e-05  1.496315e-08
    257    260   2   0.50000    -0.1200000   -0.1200000   1.015252e-03  1.866303e-06
    257    279   2   0.50000    -0.1200000    0.0600000   2.494471e-04  1.671101e-07
    257    280   2   0.50000    -0.1200000    0.0600000   2.494471e-04  1.671101e-07
    277    260   2   0.50000     0.0600000   -0.1200000   2.494471e-04  1.671101e-07
    277    279   2   0.50000     0.0600000    0.0600000   6.128906e-05  1.496315e-08
    277    280   2   0.50000     0.0600000    0.0600000   6.128906e-05  1.496315e-08
    278    260   2   0.50000     0.0600000   -0.1200000   2.494471e-04  1.671101e-07
    278    279   2   0.50000     0.0600000    0.0600000   6.128906e-05  1.496315e-08
    278    280   2   0.50000     0.0600000    0.0600000   6.128906e-05  1.496315e-08
    258    261   2   0.50000    -0.1200000    0.1900000   1.015252e-03  1.866303e-06
    258    281   2   0.50000    -0.1200000    0.0600000   2.494471e-04  1.671101e-07
    258    282   2   0.50000    -0.1200000    0.0600000   2.494471e-04  1.671101e-07
    279    261   2   0.50000     0.0600000    0.1900000   2.494471e-04  1.671101e-07
    279    281   2   0.50000     0.0600000    0.0600000   6.128906e-05  1.496315e-08
    279    282   2   0.50000     0.0600000    0.0600000   6.128906e-05  1.496315e-08
    280    261   2   0.50000     0.0600000    0.1900000   2.494471e-04  1.671101e-07
    280    281   2   0.50000     0.0600000    0.0600000   6.128906e-05  1.496315e-08
    280    282   2   0.50000     0.0600000    0.0600000   6.128906e-05  1.496315e-08
    259    262   2   0.50000    -0.1200000   -0.3300000   1.026091e-03  1.187829e-06
    259    283   2   0.50000    -0.1200000    0.0300000   1.599888e-04  9.721644e-08
    259    284   2   0.50000    -0.1200000    0.0300000   1.599888e-04  9.721644e-08
    281    262   2   0.50000     0.0600000   -0.3300000   2.521103e-04  1.063590e-07
    281    283   2   0.50000     0.0600000    0.0300000   3.930919e-05  8.704828e-09
    281    284   2   0.50000     0.0600000    0.0300000   3.930919e-05  8.704828e-09
    282    262   2   0.50000     0.0600000   -0.3300000   2.521103e-04  1.063590e-07
    282    283   2   0.50000     0.0600000    0.0300000   3.930919e-05  8.704828e-09
    282    284   2   0.50000     0.0600000    0.0300000   3.930919e-05  8.704828e-09
    260    263   2   0.50000    -0.1200000    0.5100000   1.575021e-03  3.561100e-06
    283    263   2   0.50000     0.0300000    0.5100000   2.482000e-04  1.854991e-07
    284    263   2   0.50000     0.0300000    0.5100000   2.482000e-04  1.854991e-07
    261    264   2   0.50000     0.1900000   -0.4300000   1.095425e-03  1.218041e-06
    261    265   2   0.50000     0.1900000    0.0000000   1.015252e-03  1.866303e-06
    262    231   2   0.50000    -0.3300000   -0.1200000   1.026091e-03  1.187829e-06
    262    266   2   0.50000    -0.3300000   -0.1800000   1.026091e-03  1.187829e-06
    262    267   2   0.50000    -0.3300000   -0.1200000   1.026091e-03  1.187829e-06
    264    231   2   0.50000    -0.4300000   -0.1200000   1.095425e-03  1.218041e-06
    264    266   2   0.50000    -0.4300000   -0.1800000   1.095425e-03  1.218041e-06
    264    267   2   0.50000    -0.4300000   -0.1200000   1.095425e-03  1.218041e-06
    231    285   2   0.50000    -0.1200000    0.0600000   2.494471e-04  1.671101e-07
    231    286   2   0.50000    -0.1200000    0.0600000   2.494471e-04  1.671101e-07
    231    287   2   0.50000    -0.1200000    0.0600000   2.494471e-04  1.671101e-07
    263    285   2   0.50000     0.5100000    0.0600000   3.869820e-04  3.188634e-07
    263    286   2   0.50000     0.5100000    0.0600000   3.869820e-04  3.188634e-07
    263    287   2   0.50000     0.5100000    0.0600000   3.869820e-04  3.188634e-07
    267    285   2   0.50000    -0.1200000    0.0600000   2.494471e-04  1.671101e-07
    267    286   2   0.50000    -0.1200000    0.0600000   2.494471e-04  1.671101e-07
    267    287   2   0.50000    -0.1200000    0.0600000   2.494471e-04  1.671101e-07
    231    288   2   0.50000    -0.1200000    0.0600000   2.494471e-04  1.671101e-07
    231    289   2   0.50000    -0.1200000    0.0600000   2.494471e-04  1.671101e-07
    231    301   2   0.50000    -0.1200000    0.0000000   1.015252e-03  1.866303e-06
    263    288   2   0.50000     0.5100000    0.0600000   3.869820e-04  3.188634e-07
    263    289   2   0.50000     0.5100000    0.0600000   3.869820e-04  3.188634e-07
    263    301   2   0.50000     0.5100000    0.0000000   1.575021e-03  3.561100e-06
    266    288   2   0.50000    -0.1800000    0.0600000   2.494471e-04  1.671101e-07
    266    289   2   0.50000    -0.1800000    0.0600000   2.494471e-04  1.671101e-07
    266    301   2   0.50000    -0.1800000    0.0000000   1.015252e-03  1.866303e-06
    265    299   2   0.50000     0.0000000    0.5100000   1.575021e-03  3.561100e-06
    265    302   2   0.50000     0.0000000   -0.1800000   1.015252e-03  1.866303e-06
    265    303   2   0.50000     0.0000000   -0.1200000   1.015252e-03  1.866303e-06
    288    299   2   0.50000     0.0600000    0.5100000   3.869820e-04  3.188634e-07
    288    302   2   0.50000     0.0600000   -0.1800000   2.494471e-04  1.671101e-07
    288    303   2   0.50000     0.0600000   -0.1200000   2.494471e-04  1.671101e-07
    289    299   2   0.50000     0.0600000    0.5100000   3.869820e-04  3.188634e-07
    289    302   2   0.50000     0.0600000   -0.1800000   2.494471e-04  1.671101e-07
    289    303   2   0.50000     0.0600000   -0.1200000   2.494471e-04  1.671101e-07
    304    292   2   0.50000     0.0600000   -0.1200000   2.494471e-04  1.671101e-07
    304    307   2   0.50000     0.0600000    0.0600000   6.128906e-05  1.496315e-08
    304    308   2   0.50000     0.0600000    0.0600000   6.128906e-05  1.496315e-08
    305    292   2   0.50000     0.0600000   -0.1200000   2.494471e-04  1.671101e-07
    305    307   2   0.50000     0.0600000    0.0600000   6.128906e-05  1.496315e-08
    305    308   2   0.50000     0.0600000    0.0600000   6.128906e-05  1.496315e-08
    306    292   2   0.50000     0.0600000   -0.1200000   2.494471e-04  1.671101e-07
    306    307   2   0.50000     0.0600000    0.0600000   6.128906e-05  1.496315e-08
    306    308   2   0.50000     0.0600000    0.0600000   6.128906e-05  1.496315e-08
    290    293   2   0.50000    -0.1800000   -0.1200000   1.015252e-03  1.866303e-06
    290    309   2   0.50000    -0.1800000    0.0600000   2.494471e-04  1.671101e-07
    290    310   2   0.50000    -0.1800000    0.0600000   2.494471e-04  1.671101e-07
    307    293   2   0.50000     0.0600000   -0.1200000   2.494471e-04  1.671101e-07
    307    309   2   0.50000     0.0600000    0.0600000   6.128906e-05  1.496315e-08
    307    310   2   0.50000     0.0600000    0.0600000   6.128906e-05  1.496315e-08
    308    293   2   0.50000     0.0600000   -0.1200000   2.494471e-04  1.671101e-07
    308    309   2   0.50000     0.0600000    0.0600000   6.128906e-05  1.496315e-08
    308    310   2   0.50000     0.0600000    0.0600000   6.128906e-05  1.496315e-08
    291    294   2   0.50000    -0.1200000   -0.1200000   1.015252e-03  1.866303e-06
    291    311   2   0.50000    -0.1200000    0.0600000   2.494471e-04  1.671101e-07
    291    312   2   0.50000    -0.1200000    0.0600000   2.494471e-04  1.671101e-07
    309    294   2   0.50000     0.0600000   -0.1200000   2.494471e-04  1.671101e-07
    309    311   2   0.50000     0.0600000    0.0600000   6.128906e-05  1.496315e-08
    309    312   2   0.50000     0.0600000    0.0600000   6.128906e-05  1.496315e-08
    310    294   2   0.50000     0.0600000   -0.1200000   2.494471e-04  1.671101e-07
    310    311   2   0.50000     0.0600000    0.0600000   6.128906e-05  1.496315e-08
    310    312   2   0.50000     0.0600000    0.0600000   6.128906e-05  1.496315e-08
    292    295   2   0.50000    -0.1200000   -0.1200000   1.015252e-03  1.866303e-06
    292    313   2   0.50000    -0.1200000    0.0600000   2.494471e-04  1.671101e-07
    292    314   2   0.50000    -0.1200000    0.0600000   2.494471e-04  1.671101e-07
    311    295   2   0.50000     0.0600000   -0.1200000   2.494471e-04  1.671101e-07
    311    313   2   0.50000     0.0600000    0.0600000   6.128906e-05  1.496315e-08
    311    314   2   0.50000     0.0600000    0.0600000   6.128906e-05  1.496315e-08
    312    295   2   0.50000     0.0600000   -0.1200000   2.494471e-04  1.671101e-07
    312    313   2   0.50000     0.0600000    0.0600000   6.128906e-05  1.496315e-08
    312    314   2   0.50000     0.0600000    0.0600000   6.128906e-05  1.496315e-08
    293    296   2   0.50000    -0.1200000   -0.1200000   1.015252e-03  1.866303e-06
    293    315   2   0.50000    -0.1200000    0.0600000   2.494471e-04  1.671101e-07
    293    316   2   0.50000    -0.1200000    0.0600000   2.494471e-04  1.671101e-07
    313    296   2   0.50000     0.0600000   -0.1200000   2.494471e-04  1.671101e-07
    313    315   2   0.50000     0.0600000    0.0600000   6.128906e-05  1.496315e-08
    313    316   2   0.50000     0.0600000    0.0600000   6.128906e-05  1.496315e-08
    314    296   2   0.50000     0.0600000   -0.1200000   2.494471e-04  1.671101e-07
    314    315   2   0.50000     0.0600000    0.0600000   6.128906e-05  1.496315e-08
    314    316   2   0.50000     0.0600000    0.0600000   6.128906e-05  1.496315e-08
    294    297   2   0.50000    -0.1200000    0.1900000   1.015252e-03  1.866303e-06
    294    317   2   0.50000    -0.1200000    0.0600000   2.494471e-04  1.671101e-07
    294    318   2   0.50000    -0.1200000    0.0600000   2.494471e-04  1.671101e-07
    315    297   2   0.50000     0.0600000    0.1900000   2.494471e-04  1.671101e-07
    315    317   2   0.50000     0.0600000    0.0600000   6.128906e-05  1.496315e-08
    315    318   2   0.50000     0.0600000    0.0600000   6.128906e-05  1.496315e-08
    316    297   2   0.50000     0.0600000    0.1900000   2.494471e-04  1.671101e-07
    316    317   2   0.50000     0.0600000    0.0600000   6.128906e-05  1.496315e-08
    316    318   2   0.50000     0.0600000    0.0600000   6.128906e-05  1.496315e-08
    295    298   2   0.50000    -0.1200000   -0.3300000   1.026091e-03  1.187829e-06
    295    319   2   0.50000    -0.1200000    0.0300000   1.599888e-04  9.721644e-08
    295    320   2   0.50000    -0.1200000    0.0300000   1.599888e-04  9.721644e-08
    317    298   2   0.50000     0.0600000   -0.3300000   2.521103e-04  1.063590e-07
    317    319   2   0.50000     0.0600000    0.0300000   3.930919e-05  8.704828e-09
    317    320   2   0.50000     0.0600000    0.0300000   3.930919e-05  8.704828e-09
    318    298   2   0.50000     0.0600000   -0.3300000   2.521103e-04  1.063590e-07
    318    319   2   0.50000     0.0600000    0.0300000   3.930919e-05  8.704828e-09
    318    320   2   0.50000     0.0600000    0.0300000   3.930919e-05  8.704828e-09
    296    299   2   0.50000    -0.1200000    0.5100000   1.575021e-03  3.561100e-06
    319    299   2   0.50000     0.0300000    0.5100000   2.482000e-04  1.854991e-07
    320    299   2   0.50000     0.0300000    0.5100000   2.482000e-04  1.854991e-07
    297    300   2   0.50000     0.1900000   -0.4300000   1.095425e-03  1.218041e-06
    297    301   2   0.50000     0.1900000    0.0000000   1.015252e-03  1.866303e-06
    298    267   2   0.50000    -0.3300000   -0.1200000   1.026091e-03  1.187829e-06
    298    302   2   0.50000    -0.3300000   -0.1800000   1.026091e-03  1.187829e-06
    298    303   2   0.50000    -0.3300000   -0.1200000   1.026091e-03  1.187829e-06
    300    267   2   0.50000    -0.4300000   -0.1200000   1.095425e-03  1.218041e-06
    300    302   2   0.50000    -0.4300000   -0.1800000   1.095425e-03  1.218041e-06
    300    303   2   0.50000    -0.4300000   -0.1200000   1.095425e-03  1.218041e-06
    267    321   2   0.50000    -0.1200000    0.0600000   2.494471e-04  1.671101e-07
    267    322   2   0.50000    -0.1200000    0.0600000   2.494471e-04  1.671101e-07
    267    323   2   0.50000    -0.1200000    0.0600000   2.494471e-04  1.671101e-07
    299    321   2   0.50000     0.5100000    0.0600000   3.869820e-04  3.188634e-07
    299    322   2   0.50000     0.5100000    0.0600000   3.869820e-04  3.188634e-07
    299    323   2   0.50000     0.5100000    0.0600000   3.869820e-04  3.188634e-07
    303    321   2   0.50000    -0.1200000    0.0600000   2.494471e-04  1.671101e-07
    303    322   2   0.50000    -0.1200000    0.0600000   2.494471e-04  1.671101e-07
    303    323   2   0.50000    -0.1200000    0.0600000   2.494471e-04  1.671101e-07
    267    324   2   0.50000    -0.1200000    0.0600000   2.494471e-04  1.671101e-07
    267    325   2   0.50000    -0.1200000    0.0600000   2.494471e-04  1.671101e-07
    267    337   2   0.50000    -0.1200000    0.0000000   1.015252e-03  1.866303e-06
    299    324   2   0.50000     0.5100000    0.0600000   3.869820e-04  3.188634e-07
    299    325   2   0.50000     0.5100000    0.0600000   3.869820e-04  3.188634e-07
    299    337   2   0.50000     0.5100000    0.0000000   1.575021e-03  3.561100e-06
    302    324   2   0.50000    -0.1800000    0.0600000   2.494471e-04  1.671101e-07
    302    325   2   0.50000    -0.1800000    0.0600000   2.494471e-04  1.671101e-07
    302    337   2   0.50000    -0.1800000    0.0000000   1.015252e-03  1.866303e-06
    301    335   2   0.50000     0.0000000    0.5100000   1.575021e-03  3.561100e-06
    301    338   2   0.50000     0.0000000   -0.1800000   1.015252e-03  1.866303e-06
    301    339   2   0.50000     0.0000000   -0.1200000   1.015252e-03  1.866303e-06
    324    335   2   0.50000     0.0600000    0.5100000   3.869820e-04  3.188634e-07
    324    338   2   0.50000     0.0600000   -0.1800000   2.494471e-04  1.671101e-07
    324    339   2   0.50000     0.0600000   -0.1200000   2.494471e-04  1.671101e-07
    325    335   2   0.50000     0.0600000    0.5100000   3.869820e-04  3.188634e-07
    325    338   2   0.50000     0.0600000   -0.1800000   2.494471e-04  1.671101e-07
    325    339   2   0.50000     0.0600000   -0.1200000   2.494471e-04  1.671101e-07
    340    328   2   0.50000     0.0600000   -0.1200000   2.494471e-04  1.671101e-07
    340    343   2   0.50000     0.0600000    0.0600000   6.128906e-05  1.496315e-08
    340    344   2   0.50000     0.0600000    0.0600000   6.128906e-05  1.496315e-08
    341    328   2   0.50000     0.0600000   -0.1200000   2.494471e-04  1.671101e-07
    341    343   2   0.50000     0.0600000    0.0600000   6.128906e-05  1.496315e-08
    341    344   2   0.50000     0.0600000    0.0600000   6.128906e-05  1.496315e-08
    342    328   2   0.50000     0.0600000   -0.1200000   2.494471e-04  1.671101e-07
    342    343   2   0.50000     0.0600000    0.0600000   6.128906e-05  1.496315e-08
    342    344   2   0.50000     0.0600000    0.0600000   6.128906e-05  1.496315e-08
    326    329   2   0.50000    -0.1800000   -0.1200000   1.015252e-03  1.866303e-06
    326    345   2   0.50000    -0.1800000    0.0600000   2.494471e-04  1.671101e-07
    326    346   2   0.50000    -0.1800000    0.0600000   2.494471e-04  1.671101e-07
    343    329   2   0.50000     0.0600000   -0.1200000   2.494471e-04  1.671101e-07
    343    345   2   0.50000     0.0600000    0.0600000   6.128906e-05  1.496315e-08
    343    346   2   0.50000     0.0600000    0.0600000   6.128906e-05  1.496315e-08
    344    329   2   0.50000     0.0600000   -0.1200000   2.494471e-04  1.671101e-07
    344    345   2   0.50000     0.0600000    0.0600000   6.128906e-05  1.496315e-08
    344    346   2   0.50000     0.0600000    0.0600000   6.128906e-05  1.496315e-08
    327    330   2   0.50000    -0.1200000   -0.1200000   1.015252e-03  1.866303e-06
    327    347   2   0.50000    -0.1200000    0.0600000   2.494471e-04  1.671101e-07
    327    348   2   0.50000    -0.1200000    0.0600000   2.494471e-04  1.671101e-07
    345    330   2   0.50000     0.0600000   -0.1200000   2.494471e-04  1.671101e-07
    345    347   2   0.50000     0.0600000    0.0600000   6.128906e-05  1.496315e-08
    345    348   2   0.50000     0.0600000    0.0600000   6.128906e-05  1.496315e-08
    346    330   2   0.50000     0.0600000   -0.1200000   2.494471e-04  1.671101e-07
    346    347   2   0.50000     0.0600000    0.0600000   6.128906e-05  1.496315e-08
    346    348   2   0.50000     0.0600000    0.0600000   6.128906e-05  1.496315e-08
    328    331   2   0.50000    -0.1200000   -0.1200000   1.015252e-03  1.866303e-06
    328    349   2   0.50000    -0.1200000    0.0600000   2.494471e-04  1.671101e-07
    328    350   2   0.50000    -0.1200000    0.0600000   2.494471e-04  1.671101e-07
    347    331   2   0.50000     0.0600000   -0.1200000   2.494471e-04  1.671101e-07
    347    349   2   0.50000     0.0600000    0.0600000   6.128906e-05  1.496315e-08
    347    350   2   0.50000     0.0600000    0.0600000   6.128906e-05  1.496315e-08
    348    331   2   0.50000     0.0600000   -0.1200000   2.494471e-04  1.671101e-07
    348    349   2   0.50000     0.0600000    0.0600000   6.128906e-05  1.496315e-08
    348    350   2   0.50000     0.0600000    0.0600000   6.128906e-05  1.496315e-08
    329    332   2   0.50000    -0.1200000   -0.1200000   1.015252e-03  1.866303e-06
    329    351   2   0.50000    -0.1200000    0.0600000   2.494471e-04  1.671101e-07
    329    352   2   0.50000    -0.1200000    0.0600000   2.494471e-04  1.671101e-07
    349    332   2   0.50000     0.0600000   -0.1200000   2.494471e-04  1.671101e-07
    349    351   2   0.50000     0.0600000    0.0600000   6.128906e-05  1.496315e-08
    349    352   2   0.50000     0.0600000    0.0600000   6.128906e-05  1.496315e-08
    350    332   2   0.50000     0.0600000   -0.1200000   2.494471e-04  1.671101e-07
    350    351   2   0.50000     0.0600000    0.0600000   6.128906e-05  1.496315e-08
    350    352   2   0.50000     0.0600000    0.0600000   6.128906e-05  1.496315e-08
    330    333   2   0.50000    -0.1200000    0.1900000   1.015252e-03  1.866303e-06
    330    353   2   0.50000    -0.1200000    0.0600000   2.494471e-04  1.671101e-07
    330    354   2   0.50000    -0.1200000    0.0600000   2.494471e-04  1.671101e-07
    351    333   2   0.50000     0.0600000    0.1900000   2.494471e-04  1.671101e-07
    351    353   2   0.50000     0.0600000    0.0600000   6.128906e-05  1.496315e-08
    351    354   2   0.50000     0.0600000    0.0600000   6.128906e-05  1.496315e-08
    352    333   2   0.50000     0.0600000    0.1900000   2.494471e-04  1.671101e-07
    352    353   2   0.50000     0.0600000    0.0600000   6.128906e-05  1.496315e-08
    352    354   2   0.50000     0.0600000    0.0600000   6.128906e-05  1.496315e-08
    331    334   2   0.50000    -0.1200000   -0.3300000   1.026091e-03  1.187829e-06
    331    355   2   0.50000    -0.1200000    0.0300000   1.599888e-04  9.721644e-08
    331    356   2   0.50000    -0.1200000    0.0300000   1.599888e-04  9.721644e-08
    353    334   2   0.50000     0.0600000   -0.3300000   2.521103e-04  1.063590e-07
    353    355   2   0.50000     0.0600000    0.0300000   3.930919e-05  8.704828e-09
    353    356   2   0.50000     0.0600000    0.0300000   3.930919e-05  8.704828e-09
    354    334   2   0.50000     0.0600000   -0.3300000   2.521103e-04  1.063590e-07
    354    355   2   0.50000     0.0600000    0.0300000   3.930919e-05  8.704828e-09
    354    356   2   0.50000     0.0600000    0.0300000   3.930919e-05  8.704828e-09
    332    335   2   0.50000    -0.1200000    0.5100000   1.575021e-03  3.561100e-06
    355    335   2   0.50000     0.0300000    0.5100000   2.482000e-04  1.854991e-07
    356    335   2   0.50000     0.0300000    0.5100000   2.482000e-04  1.854991e-07
    333    336   2   0.50000     0.1900000   -0.4300000   1.095425e-03  1.218041e-06
    333    337   2   0.50000     0.1900000    0.0000000   1.015252e-03  1.866303e-06
    334    303   2   0.50000    -0.3300000   -0.1200000   1.026091e-03  1.187829e-06
    334    338   2   0.50000    -0.3300000   -0.1800000   1.026091e-03  1.187829e-06
    334    339   2   0.50000    -0.3300000   -0.1200000   1.026091e-03  1.187829e-06
    336    303   2   0.50000    -0.4300000   -0.1200000   1.095425e-03  1.218041e-06
    336    338   2   0.50000    -0.4300000   -0.1800000   1.095425e-03  1.218041e-06
    336    339   2   0.50000    -0.4300000   -0.1200000   1.095425e-03  1.218041e-06
    303    357   2   0.50000    -0.1200000    0.0600000   2.494471e-04  1.671101e-07
    303    358   2   0.50000    -0.1200000    0.0600000   2.494471e-04  1.671101e-07
    303    359   2   0.50000    -0.1200000    0.0600000   2.494471e-04  1.671101e-07
    335    357   2   0.50000     0.5100000    0.0600000   3.869820e-04  3.188634e-07
    335    358   2   0.50000     0.5100000    0.0600000   3.869820e-04  3.188634e-07
    335    359   2   0.50000     0.5100000    0.0600000   3.869820e-04  3.188634e-07
    339    357   2   0.50000    -0.1200000    0.0600000   2.494471e-04  1.671101e-07
    339    358   2   0.50000    -0.1200000    0.0600000   2.494471e-04  1.671101e-07
    339    359   2   0.50000    -0.1200000    0.0600000   2.494471e-04  1.671101e-07
    303    360   2   0.50000    -0.1200000    0.0600000   2.494471e-04  1.671101e-07
    303    361   2   0.50000    -0.1200000    0.0600000   2.494471e-04  1.671101e-07
    303    373   2   0.50000    -0.1200000    0.0000000   1.015252e-03  1.866303e-06
    335    360   2   0.50000     0.5100000    0.0600000   3.869820e-04  3.188634e-07
    335    361   2   0.50000     0.5100000    0.0600000   3.869820e-04  3.188634e-07
    335    373   2   0.50000     0.5100000    0.0000000   1.575021e-03  3.561100e-06
    338    360   2   0.50000    -0.1800000    0.0600000   2.494471e-04  1.671101e-07
    338    361   2   0.50000    -0.1800000    0.0600000   2.494471e-04  1.671101e-07
    338    373   2   0.50000    -0.1800000    0.0000000   1.015252e-03  1.866303e-06
    337    371   2   0.50000     0.0000000    0.5100000   1.575021e-03  3.561100e-06
    337    374   2   0.50000     0.0000000   -0.1800000   1.015252e-03  1.866303e-06
    337    375   2   0.50000     0.0000000   -0.1200000   1.015252e-03  1.866303e-06
    360    371   2   0.50000     0.0600000    0.5100000   3.869820e-04  3.188634e-07
    360    374   2   0.50000     0.0600000   -0.1800000   2.494471e-04  1.671101e-07
    360    375   2   0.50000     0.0600000   -0.1200000   2.494471e-04  1.671101e-07
    361    371   2   0.50000     0.0600000    0.5100000   3.869820e-04  3.188634e-07
    361    374   2   0.50000     0.0600000   -0.1800000   2.494471e-04  1.671101e-07
    361    375   2   0.50000     0.0600000   -0.1200000   2.494471e-04  1.671101e-07
    376    364   2   0.50000     0.0600000   -0.1200000   2.494471e-04  1.671101e-07
    376    379   2   0.50000     0.0600000    0.0600000   6.128906e-05  1.496315e-08
    376    380   2   0.50000     0.0600000    0.0600000   6.128906e-05  1.496315e-08
    377    364   2   0.50000     0.0600000   -0.1200000   2.494471e-04  1.671101e-07
    377    379   2   0.50000     0.0600000    0.0600000   6.128906e-05  1.496315e-08
    377    380   2   0.50000     0.0600000    0.0600000   6.128906e-05  1.496315e-08
    378    364   2   0.50000     0.0600000   -0.1200000   2.494471e-04  1.671101e-07
    378    379   2   0.50000     0.0600000    0.0600000   6.128906e-05  1.496315e-08
    378    380   2   0.50000     0.0600000    0.0600000   6.128906e-05  1.496315e-08
    362    365   2   0.50000    -0.1800000   -0.1200000   1.015252e-03  1.866303e-06
    362    381   2   0.50000    -0.1800000    0.0600000   2.494471e-04  1.671101e-07
    362    382   2   0.50000    -0.1800000    0.0600000   2.494471e-04  1.671101e-07
    379    365   2   0.50000     0.0600000   -0.1200000   2.494471e-04  1.671101e-07
    379    381   2   0.50000     0.0600000    0.0600000   6.128906e-05  1.496315e-08
    379    382   2   0.50000     0.0600000    0.0600000   6.128906e-05  1.496315e-08
    380    365   2   0.50000     0.0600000   -0.1200000   2.494471e-04  1.671101e-07
    380    381   2   0.50000     0.0600000    0.0600000   6.128906e-05  1.496315e-08
    380    382   2   0.50000     0.0600000    0.0600000   6.128906e-05  1.496315e-08
    363    366   2   0.50000    -0.1200000   -0.1200000   1.015252e-03  1.866303e-06
    363    383   2   0.50000    -0.1200000    0.0600000   2.494471e-04  1.671101e-07
    363    384   2   0.50000    -0.1200000    0.0600000   2.494471e-04  1.671101e-07
    381    366   2   0.50000     0.0600000   -0.1200000   2.494471e-04  1.671101e-07
    381    383   2   0.50000     0.0600000    0.0600000   6.128906e-05  1.496315e-08
    381    384   2   0.50000     0.0600000    0.0600000   6.128906e-05  1.496315e-08
    382    366   2   0.50000     0.0600000   -0.1200000   2.494471e-04  1.671101e-07
    382    383   2   0.50000     0.0600000    0.0600000   6.128906e-05  1.496315e-08
    382    384   2   0.50000     0.0600000    0.0600000   6.128906e-05  1.496315e-08
    364    367   2   0.50000    -0.1200000   -0.1200000   1.015252e-03  1.866303e-06
    364    385   2   0.50000    -0.1200000    0.0600000   2.494471e-04  1.671101e-07
    364    386   2   0.50000    -0.1200000    0.0600000   2.494471e-04  1.671101e-07
    383    367   2   0.50000     0.0600000   -0.1200000   2.494471e-04  1.671101e-07
    383    385   2   0.50000     0.0600000    0.0600000   6.128906e-05  1.496315e-08
    383    386   2   0.50000     0.0600000    0.0600000   6.128906e-05  1.496315e-08
    384    367   2   0.50000     0.0600000   -0.1200000   2.494471e-04  1.671101e-07
    384    385   2   0.50000     0.0600000    0.0600000   6.128906e-05  1.496315e-08
    384    386   2   0.50000     0.0600000    0.0600000   6.128906e-05  1.496315e-08
    365    368   2   0.50000    -0.1200000   -0.1200000   1.015252e-03  1.866303e-06
    365    387   2   0.50000    -0.1200000    0.0600000   2.494471e-04  1.671101e-07
    365    388   2   0.50000    -0.1200000    0.0600000   2.494471e-04  1.671101e-07
    385    368   2   0.50000     0.0600000   -0.1200000   2.494471e-04  1.671101e-07
    385    387   2   0.50000     0.0600000    0.0600000   6.128906e-05  1.496315e-08
    385    388   2   0.50000     0.0600000    0.0600000   6.128906e-05  1.496315e-08
    386    368   2   0.50000     0.0600000   -0.1200000   2.494471e-04  1.671101e-07
    386    387   2   0.50000     0.0600000    0.0600000   6.128906e-05  1.496315e-08
    386    388   2   0.50000     0.0600000    0.0600000   6.128906e-05  1.496315e-08
    366    369   2   0.50000    -0.1200000    0.1900000   1.015252e-03  1.866303e-06
    366    389   2   0.50000    -0.1200000    0.0600000   2.494471e-04  1.671101e-07
    366    390   2   0.50000    -0.1200000    0.0600000   2.494471e-04  1.671101e-07
    387    369   2   0.50000     0.0600000    0.1900000   2.494471e-04  1.671101e-07
    387    389   2   0.50000     0.0600000    0.0600000   6.128906e-05  1.496315e-08
    387    390   2   0.50000     0.0600000    0.0600000   6.128906e-05  1.496315e-08
    388    369   2   0.50000     0.0600000    0.1900000   2.494471e-04  1.671101e-07
    388    389   2   0.50000     0.0600000    0.0600000   6.128906e-05  1.496315e-08
    388    390   2   0.50000     0.0600000    0.0600000   6.128906e-05  1.496315e-08
    367    370   2   0.50000    -0.1200000   -0.3300000   1.026091e-03  1.187829e-06
    367    391   2   0.50000    -0.1200000    0.0300000   1.599888e-04  9.721644e-08
    367    392   2   0.50000    -0.1200000    0.0300000   1.599888e-04  9.721644e-08
    389    370   2   0.50000     0.0600000   -0.3300000   2.521103e-04  1.063590e-07
    389    391   2   0.50000     0.0600000    0.0300000   3.930919e-05  8.704828e-09
    389    392   2   0.50000     0.0600000    0.0300000   3.930919e-05  8.704828e-09
    390    370   2   0.50000     0.0600000   -0.3300000   2.521103e-04  1.063590e-07
    390    391   2   0.50000     0.0600000    0.0300000   3.930919e-05  8.704828e-09
    390    392   2   0.50000     0.0600000    0.0300000   3.930919e-05  8.704828e-09
    368    371   2   0.50000    -0.1200000    0.5100000   1.575021e-03  3.561100e-06
    391    371   2   0.50000     0.0300000    0.5100000   2.482000e-04  1.854991e-07
    392    371   2   0.50000     0.0300000    0.5100000   2.482000e-04  1.854991e-07
    369    372   2   0.50000     0.1900000   -0.4300000   1.095425e-03  1.218041e-06
    369    373   2   0.50000     0.1900000    0.0000000   1.015252e-03  1.866303e-06
    370    339   2   0.50000    -0.3300000   -0.1200000   1.026091e-03  1.187829e-06
    370    374   2   0.50000    -0.3300000   -0.1800000   1.026091e-03  1.187829e-06
    370    375   2   0.50000    -0.3300000   -0.1200000   1.026091e-03  1.187829e-06
    372    339   2   0.50000    -0.4300000   -0.1200000   1.095425e-03  1.218041e-06
    372    374   2   0.50000    -0.4300000   -0.1800000   1.095425e-03  1.218041e-06
    372    375   2   0.50000    -0.4300000   -0.1200000   1.095425e-03  1.218041e-06
    339    393   2   0.50000    -0.1200000    0.0600000   2.494471e-04  1.671101e-07
    339    394   2   0.50000    -0.1200000    0.0600000   2.494471e-04  1.671101e-07
    339    395   2   0.50000    -0.1200000    0.0600000   2.494471e-04  1.671101e-07
    371    393   2   0.50000     0.5100000    0.0600000   3.869820e-04  3.188634e-07
    371    394   2   0.50000     0.5100000    0.0600000   3.869820e-04  3.188634e-07
    371    395   2   0.50000     0.5100000    0.0600000   3.869820e-04  3.188634e-07
    375    393   2   0.50000    -0.1200000    0.0600000   2.494471e-04  1.671101e-07
    375    394   2   0.50000    -0.1200000    0.0600000   2.494471e-04  1.671101e-07
    375    395   2   0.50000    -0.1200000    0.0600000   2.494471e-04  1.671101e-07
    339    396   2   0.50000    -0.1200000    0.0600000   2.494471e-04  1.671101e-07
    339    397   2   0.50000    -0.1200000    0.0600000   2.494471e-04  1.671101e-07
    339    409   2   0.50000    -0.1200000    0.0000000   1.015252e-03  1.866303e-06
    371    396   2   0.50000     0.5100000    0.0600000   3.869820e-04  3.188634e-07
    371    397   2   0.50000     0.5100000    0.0600000   3.869820e-04  3.188634e-07
    371    409   2   0.50000     0.5100000    0.0000000   1.575021e-03  3.561100e-06
    374    396   2   0.50000    -0.1800000    0.0600000   2.494471e-04  1.671101e-07
    374    397   2   0.50000    -0.1800000    0.0600000   2.494471e-04  1.671101e-07
    374    409   2   0.50000    -0.1800000    0.0000000   1.015252e-03  1.866303e-06
    373    407   2   0.50000     0.0000000    0.5100000   1.575021e-03  3.561100e-06
    373    410   2   0.50000     0.0000000   -0.1800000   1.015252e-03  1.866303e-06
    373    411   2   0.50000     0.0000000   -0.1200000   1.015252e-03  1.866303e-06
    396    407   2   0.50000     0.0600000    0.5100000   3.869820e-04  3.188634e-07
    396    410   2   0.50000     0.0600000   -0.1800000   2.494471e-04  1.671101e-07
    396    411   2   0.50000     0.0600000   -0.1200000   2.494471e-04  1.671101e-07
    397    407   2   0.50000     0.0600000    0.5100000   3.869820e-04  3.188634e-07
    397    410   2   0.50000     0.0600000   -0.1800000   2.494471e-04  1.671101e-07
    397    411   2   0.50000     0.0600000   -0.1200000   2.494471e-04  1.671101e-07
    412    400   2   0.50000     0.0600000   -0.1200000   2.494471e-04  1.671101e-07
    412    415   2   0.50000     0.0600000    0.0600000   6.128906e-05  1.496315e-08
    412    416   2   0.50000     0.0600000    0.0600000   6.128906e-05  1.496315e-08
    413    400   2   0.50000     0.0600000   -0.1200000   2.494471e-04  1.671101e-07
    413    415   2   0.50000     0.0600000    0.0600000   6.128906e-05  1.496315e-08
    413    416   2   0.50000     0.0600000    0.0600000   6.128906e-05  1.496315e-08
    414    400   2   0.50000     0.0600000   -0.1200000   2.494471e-04  1.671101e-07
    414    415   2   0.50000     0.0600000    0.0600000   6.128906e-05  1.496315e-08
    414    416   2   0.50000     0.0600000    0.0600000   6.128906e-05  1.496315e-08
    398    401   2   0.50000    -0.1800000   -0.1200000   1.015252e-03  1.866303e-06
    398    417   2   0.50000    -0.1800000    0.0600000   2.494471e-04  1.671101e-07
    398    418   2   0.50000    -0.1800000    0.0600000   2.494471e-04  1.671101e-07
    415    401   2   0.50000     0.0600000   -0.1200000   2.494471e-04  1.671101e-07
    415    417   2   0.50000     0.0600000    0.0600000   6.128906e-05  1.496315e-08
    415    418   2   0.50000     0.0600000    0.0600000   6.128906e-05  1.496315e-08
    416    401   2   0.50000     0.0600000   -0.1200000   2.494471e-04  1.671101e-07
    416    417   2   0.50000     0.0600000    0.0600000   6.128906e-05  1.496315e-08
    416    418   2   0.50000     0.0600000    0.0600000   6.128906e-05  1.496315e-08
    399    402   2   0.50000    -0.1200000   -0.1200000   1.015252e-03  1.866303e-06
    399    419   2   0.50000    -0.1200000    0.0600000   2.494471e-04  1.671101e-07
    399    420   2   0.50000    -0.1200000    0.0600000   2.494471e-04  1.671101e-07
    417    402   2   0.50000     0.0600000   -0.1200000   2.494471e-04  1.671101e-07
    417    419   2   0.50000     0.0600000    0.0600000   6.128906e-05  1.496315e-08
    417    420   2   0.50000     0.0600000    0.0600000   6.128906e-05  1.496315e-08
    418    402   2   0.50000     0.0600000   -0.1200000   2.494471e-04  1.671101e-07
    418    419   2   0.50000     0.0600000    0.0600000   6.128906e-05  1.496315e-08
    418    420   2   0.50000     0.0600000    0.0600000   6.128906e-05  1.496315e-08
    400    403   2   0.50000    -0.1200000   -0.1200000   1.015252e-03  1.866303e-06
    400    421   2   0.50000    -0.1200000    0.0600000   2.494471e-04  1.671101e-07
    400    422   2   0.50000    -0.1200000    0.0600000   2.494471e-04  1.671101e-07
    419    403   2   0.50000     0.0600000   -0.1200000   2.494471e-04  1.671101e-07
    419    421   2   0.50000     0.0600000    0.0600000   6.128906e-05  1.496315e-08
    419    422   2   0.50000     0.0600000    0.0600000   6.128906e-05  1.496315e-08
    420    403   2   0.50000     0.0600000   -0.1200000   2.494471e-04  1.671101e-07
    420    421   2   0.50000     0.0600000    0.0600000   6.128906e-05  1.496315e-08
    420    422   2   0.50000     0.0600000    0.0600000   6.128906e-05  1.496315e-08
    401    404   2   0.50000    -0.1200000   -0.1200000   1.015252e-03  1.866303e-06
    401    423   2   0.50000    -0.1200000    0.0600000   2.494471e-04  1.671101e-07
    401    424   2   0.50000    -0.1200000    0.0600000   2.494471e-04  1.671101e-07
    421    404   2   0.50000     0.0600000   -0.1200000   2.494471e-04  1.671101e-07
    421    423   2   0.50000     0.0600000    0.0600000   6.128906e-05  1.496315e-08
    421    424   2   0.50000     0.0600000    0.0600000   6.128906e-05  1.496315e-08
    422    404   2   0.50000     0.0600000   -0.1200000   2.494471e-04  1.671101e-07
    422    423   2   0.50000     0.0600000    0.0600000   6.128906e-05  1.496315e-08
    422    424   2   0.50000     0.0600000    0.0600000   6.128906e-05  1.496315e-08
    402    405   2   0.50000    -0.1200000    0.1900000   1.015252e-03  1.866303e-06
    402    425   2   0.50000    -0.1200000    0.0600000   2.494471e-04  1.671101e-07
    402    426   2   0.50000    -0.1200000    0.0600000   2.494471e-04  1.671101e-07
    423    405   2   0.50000     0.0600000    0.1900000   2.494471e-04  1.671101e-07
    423    425   2   0.50000     0.0600000    0.0600000   6.128906e-05  1.496315e-08
    423    426   2   0.50000     0.0600000    0.0600000   6.128906e-05  1.496315e-08
    424    405   2   0.50000     0.0600000    0.1900000   2.494471e-04  1.671101e-07
    424    425   2   0.50000     0.0600000    0.0600000   6.128906e-05  1.496315e-08
    424    426   2   0.50000     0.0600000    0.0600000   6.128906e-05  1.496315e-08
    403    406   2   0.50000    -0.1200000   -0.3300000   1.026091e-03  1.187829e-06
    403    427   2   0.50000    -0.1200000    0.0300000   1.599888e-04  9.721644e-08
    403    428   2   0.50000    -0.1200000    0.0300000   1.599888e-04  9.721644e-08
    425    406   2   0.50000     0.0600000   -0.3300000   2.521103e-04  1.063590e-07
    425    427   2   0.50000     0.0600000    0.0300000   3.930919e-05  8.704828e-09
    425    428   2   0.50000     0.0600000    0.0300000   3.930919e-05  8.704828e-09
    426    406   2   0.50000     0.0600000   -0.3300000   2.521103e-04  1.063590e-07
    426    427   2   0.50000     0.0600000    0.0300000   3.930919e-05  8.704828e-09
    426    428   2   0.50000     0.0600000    0.0300000   3.930919e-05  8.704828e-09
    404    407   2   0.50000    -0.1200000    0.5100000   1.575021e-03  3.561100e-06
    427    407   2   0.50000     0.0300000    0.5100000   2.482000e-04  1.854991e-07
    428    407   2   0.50000     0.0300000    0.5100000   2.482000e-04  1.854991e-07
    405    408   2   0.50000     0.1900000   -0.4300000   1.095425e-03  1.218041e-06
    405    409   2   0.50000     0.1900000    0.0000000   1.015252e-03  1.866303e-06
    406    375   2   0.50000    -0.3300000   -0.1200000   1.026091e-03  1.187829e-06
    406    410   2   0.50000    -0.3300000   -0.1800000   1.026091e-03  1.187829e-06
    406    411   2   0.50000    -0.3300000   -0.1200000   1.026091e-03  1.187829e-06
    408    375   2   0.50000    -0.4300000   -0.1200000   1.095425e-03  1.218041e-06
    408    410   2   0.50000    -0.4300000   -0.1800000   1.095425e-03  1.218041e-06
    408    411   2   0.50000    -0.4300000   -0.1200000   1.095425e-03  1.218041e-06
    375    429   2   0.50000    -0.1200000    0.0600000   2.494471e-04  1.671101e-07
    375    430   2   0.50000    -0.1200000    0.0600000   2.494471e-04  1.671101e-07
    375    431   2   0.50000    -0.1200000    0.0600000   2.494471e-04  1.671101e-07
    407    429   2   0.50000     0.5100000    0.0600000   3.869820e-04  3.188634e-07
    407    430   2   0.50000     0.5100000    0.0600000   3.869820e-04  3.188634e-07
    407    431   2   0.50000     0.5100000    0.0600000   3.869820e-04  3.188634e-07
    411    429   2   0.50000    -0.1200000    0.0600000   2.494471e-04  1.671101e-07
    411    430   2   0.50000    -0.1200000    0.0600000   2.494471e-04  1.671101e-07
    411    431   2   0.50000    -0.1200000    0.0600000   2.494471e-04  1.671101e-07
    375    432   2   0.50000    -0.1200000    0.0600000   2.494471e-04  1.671101e-07
    375    433   2   0.50000    -0.1200000    0.0600000   2.494471e-04  1.671101e-07
    375    445   2   0.50000    -0.1200000    0.0000000   1.015252e-03  1.866303e-06
    407    432   2   0.50000     0.5100000    0.0600000   3.869820e-04  3.188634e-07
    407    433   2   0.50000     0.5100000    0.0600000   3.869820e-04  3.188634e-07
    407    445   2   0.50000     0.5100000    0.0000000   1.575021e-03  3.561100e-06
    410    432   2   0.50000    -0.1800000    0.0600000   2.494471e-04  1.671101e-07
    410    433   2   0.50000    -0.1800000    0.0600000   2.494471e-04  1.671101e-07
    410    445   2   0.50000    -0.1800000    0.0000000   1.015252e-03  1.866303e-06
    409    443   2   0.50000     0.0000000    0.5100000   1.575021e-03  3.561100e-06
    409    446   2   0.50000     0.0000000   -0.1800000   1.015252e-03  1.866303e-06
    409    447   2   0.50000     0.0000000   -0.1200000   1.015252e-03  1.866303e-06
    432    443   2   0.50000     0.0600000    0.5100000   3.869820e-04  3.188634e-07
    432    446   2   0.50000     0.0600000   -0.1800000   2.494471e-04  1.671101e-07
    432    447   2   0.50000     0.0600000   -0.1200000   2.494471e-04  1.671101e-07
    433    443   2   0.50000     0.0600000    0.5100000   3.869820e-04  3.188634e-07
    433    446   2   0.50000     0.0600000   -0.1800000   2.494471e-04  1.671101e-07
    433    447   2   0.50000     0.0600000   -0.1200000   2.494471e-04  1.671101e-07
    448    436   2   0.50000     0.0600000   -0.1200000   2.494471e-04  1.671101e-07
    448    451   2   0.50000     0.0600000    0.0600000   6.128906e-05  1.496315e-08
    448    452   2   0.50000     0.0600000    0.0600000   6.128906e-05  1.496315e-08
    449    436   2   0.50000     0.0600000   -0.1200000   2.494471e-04  1.671101e-07
    449    451   2   0.50000     0.0600000    0.0600000   6.128906e-05  1.496315e-08
    449    452   2   0.50000     0.0600000    0.0600000   6.128906e-05  1.496315e-08
    450    436   2   0.50000     0.0600000   -0.1200000   2.494471e-04  1.671101e-07
    450    451   2   0.50000     0.0600000    0.0600000   6.128906e-05  1.496315e-08
    450    452   2   0.50000     0.0600000    0.0600000   6.128906e-05  1.496315e-08
    434    437   2   0.50000    -0.1800000   -0.1200000   1.015252e-03  1.866303e-06
    434    453   2   0.50000    -0.1800000    0.0600000   2.494471e-04  1.671101e-07
    434    454   2   0.50000    -0.1800000    0.0600000   2.494471e-04  1.671101e-07
    451    437   2   0.50000     0.0600000   -0.1200000   2.494471e-04  1.671101e-07
    451    453   2   0.50000     0.0600000    0.0600000   6.128906e-05  1.496315e-08
    451    454   2   0.50000     0.0600000    0.0600000   6.128906e-05  1.496315e-08
    452    437   2   0.50000     0.0600000   -0.1200000   2.494471e-04  1.671101e-07
    452    453   2   0.50000     0.0600000    0.0600000   6.128906e-05  1.496315e-08
    452    454   2   0.50000     0.0600000    0.0600000   6.128906e-05  1.496315e-08
    435    438   2   0.50000    -0.1200000   -0.1200000   1.015252e-03  1.866303e-06
    435    455   2   0.50000    -0.1200000    0.0600000   2.494471e-04  1.671101e-07
    435    456   2   0.50000    -0.1200000    0.0600000   2.494471e-04  1.671101e-07
    453    438   2   0.50000     0.0600000   -0.1200000   2.494471e-04  1.671101e-07
    453    455   2   0.50000     0.0600000    0.0600000   6.128906e-05  1.496315e-08
    453    456   2   0.50000     0.0600000    0.0600000   6.128906e-05  1.496315e-08
    454    438   2   0.50000     0.0600000   -0.1200000   2.494471e-04  1.671101e-07
    454    455   2   0.50000     0.0600000    0.0600000   6.128906e-05  1.496315e-08
    454    456   2   0.50000     0.0600000    0.0600000   6.128906e-05  1.496315e-08
    436    439   2   0.50000    -0.1200000   -0.1200000   1.015252e-03  1.866303e-06
    436    457   2   0.50000    -0.1200000    0.0600000   2.494471e-04  1.671101e-07
    436    458   2   0.50000    -0.1200000    0.0600000   2.494471e-04  1.671101e-07
    455    439   2   0.50000     0.0600000   -0.1200000   2.494471e-04  1.671101e-07
    455    457   2   0.50000     0.0600000    0.0600000   6.128906e-05  1.496315e-08
    455    458   2   0.50000     0.0600000    0.0600000   6.128906e-05  1.496315e-08
    456    439   2   0.50000     0.0600000   -0.1200000   2.494471e-04  1.671101e-07
    456    457   2   0.50000     0.0600000    0.0600000   6.128906e-05  1.496315e-08
    456    458   2   0.50000     0.0600000    0.0600000   6.128906e-05  1.496315e-08
    437    440   2   0.50000    -0.1200000   -0.1200000   1.015252e-03  1.866303e-06
    437    459   2   0.50000    -0.1200000    0.0600000   2.494471e-04  1.671101e-07
    437    460   2   0.50000    -0.1200000    0.0600000   2.494471e-04  1.671101e-07
    457    440   2   0.50000     0.0600000   -0.1200000   2.494471e-04  1.671101e-07
    457    459   2   0.50000     0.0600000    0.0600000   6.128906e-05  1.496315e-08
    457    460   2   0.50000     0.0600000    0.0600000   6.128906e-05  1.496315e-08
    458    440   2   0.50000     0.0600000   -0.1200000   2.494471e-04  1.671101e-07
    458    459   2   0.50000     0.0600000    0.0600000   6.128906e-05  1.496315e-08
    458    460   2   0.50000     0.0600000    0.0600000   6.128906e-05  1.496315e-08
    438    441   2   0.50000    -0.1200000    0.1900000   1.015252e-03  1.866303e-06
    438    461   2   0.50000    -0.1200000    0.0600000   2.494471e-04  1.671101e-07
    438    462   2   0.50000    -0.1200000    0.0600000   2.494471e-04  1.671101e-07
    459    441   2   0.50000     0.0600000    0.1900000   2.494471e-04  1.671101e-07
    459    461   2   0.50000     0.0600000    0.0600000   6.128906e-05  1.496315e-08
    459    462   2   0.50000     0.0600000    0.0600000   6.128906e-05  1.496315e-08
    460    441   2   0.50000     0.0600000    0.1900000   2.494471e-04  1.671101e-07
    460    461   2   0.50000     0.0600000    0.0600000   6.128906e-05  1.496315e-08
    460    462   2   0.50000     0.0600000    0.0600000   6.128906e-05  1.496315e-08
    439    442   2   0.50000    -0.1200000   -0.3300000   1.026091e-03  1.187829e-06
    439    463   2   0.50000    -0.1200000    0.0300000   1.599888e-04  9.721644e-08
    439    464   2   0.50000    -0.1200000    0.0300000   1.599888e-04  9.721644e-08
    461    442   2   0.50000     0.0600000   -0.3300000   2.521103e-04  1.063590e-07
    461    463   2   0.50000     0.0600000    0.0300000   3.930919e-05  8.704828e-09
    461    464   2   0.50000     0.0600000    0.0300000   3.930919e-05  8.704828e-09
    462    442   2   0.50000     0.0600000   -0.3300000   2.521103e-04  1.063590e-07
    462    463   2   0.50000     0.0600000    0.0300000   3.930919e-05  8.704828e-09
    462    464   2   0.50000     0.0600000    0.0300000   3.930919e-05  8.704828e-09
    440    443   2   0.50000    -0.1200000    0.5100000   1.575021e-03  3.561100e-06
    463    443   2   0.50000     0.0300000    0.5100000   2.482000e-04  1.854991e-07
    464    443   2   0.50000     0.0300000    0.5100000   2.482000e-04  1.854991e-07
    441    444   2   0.50000     0.1900000   -0.4300000   1.095425e-03  1.218041e-06
    441    445   2   0.50000     0.1900000    0.0000000   1.015252e-03  1.866303e-06
    442    411   2   0.50000    -0.3300000   -0.1200000   1.026091e-03  1.187829e-06
    442    446   2   0.50000    -0.3300000   -0.1800000   1.026091e-03  1.187829e-06
    442    447   2   0.50000    -0.3300000   -0.1200000   1.026091e-03  1.187829e-06
    444    411   2   0.50000    -0.4300000   -0.1200000   1.095425e-03  1.218041e-06
    444    446   2   0.50000    -0.4300000   -0.1800000   1.095425e-03  1.218041e-06
    444    447   2   0.50000    -0.4300000   -0.1200000   1.095425e-03  1.218041e-06
    411    465   2   0.50000    -0.1200000    0.0600000   2.494471e-04  1.671101e-07
    411    466   2   0.50000    -0.1200000    0.0600000   2.494471e-04  1.671101e-07
    411    467   2   0.50000    -0.1200000    0.0600000   2.494471e-04  1.671101e-07
    443    465   2   0.50000     0.5100000    0.0600000   3.869820e-04  3.188634e-07
    443    466   2   0.50000     0.5100000    0.0600000   3.869820e-04  3.188634e-07
    443    467   2   0.50000     0.5100000    0.0600000   3.869820e-04  3.188634e-07
    447    465   2   0.50000    -0.1200000    0.0600000   2.494471e-04  1.671101e-07
    447    466   2   0.50000    -0.1200000    0.0600000   2.494471e-04  1.671101e-07
    447    467   2   0.50000    -0.1200000    0.0600000   2.494471e-04  1.671101e-07
    411    468   2   0.50000    -0.1200000    0.0600000   2.494471e-04  1.671101e-07
    411    469   2   0.50000    -0.1200000    0.0600000   2.494471e-04  1.671101e-07
    411    481   2   0.50000    -0.1200000    0.0000000   1.015252e-03  1.866303e-06
    443    468   2   0.50000     0.5100000    0.0600000   3.869820e-04  3.188634e-07
    443    469   2   0.50000     0.5100000    0.0600000   3.869820e-04  3.188634e-07
    443    481   2   0.50000     0.5100000    0.0000000   1.575021e-03  3.561100e-06
    446    468   2   0.50000    -0.1800000    0.0600000   2.494471e-04  1.671101e-07
    446    469   2   0.50000    -0.1800000    0.0600000   2.494471e-04  1.671101e-07
    446    481   2   0.50000    -0.1800000    0.0000000   1.015252e-03  1.866303e-06
    445    479   2   0.50000     0.0000000    0.5100000   1.575021e-03  3.561100e-06
    445    482   2   0.50000     0.0000000   -0.1800000   1.015252e-03  1.866303e-06
    445    483   2   0.50000     0.0000000   -0.1200000   1.015252e-03  1.866303e-06
    468    479   2   0.50000     0.0600000    0.5100000   3.869820e-04  3.188634e-07
    468    482   2   0.50000     0.0600000   -0.1800000   2.494471e-04  1.671101e-07
    468    483   2   0.50000     0.0600000   -0.1200000   2.494471e-04  1.671101e-07
    469    479   2   0.50000     0.0600000    0.5100000   3.869820e-04  3.188634e-07
    469    482   2   0.50000     0.0600000   -0.1800000   2.494471e-04  1.671101e-07
    469    483   2   0.50000     0.0600000   -0.1200000   2.494471e-04  1.671101e-07
    484    472   2   0.50000     0.0600000   -0.1200000   2.494471e-04  1.671101e-07
    484    487   2   0.50000     0.0600000    0.0600000   6.128906e-05  1.496315e-08
    484    488   2   0.50000     0.0600000    0.0600000   6.128906e-05  1.496315e-08
    485    472   2   0.50000     0.0600000   -0.1200000   2.494471e-04  1.671101e-07
    485    487   2   0.50000     0.0600000    0.0600000   6.128906e-05  1.496315e-08
    485    488   2   0.50000     0.0600000    0.0600000   6.128906e-05  1.496315e-08
    486    472   2   0.50000     0.0600000   -0.1200000   2.494471e-04  1.671101e-07
    486    487   2   0.50000     0.0600000    0.0600000   6.128906e-05  1.496315e-08
    486    488   2   0.50000     0.0600000    0.0600000   6.128906e-05  1.496315e-08
    470    473   2   0.50000    -0.1800000   -0.1200000   1.015252e-03  1.866303e-06
    470    489   2   0.50000    -0.1800000    0.0600000   2.494471e-04  1.671101e-07
    470    490   2   0.50000    -0.1800000    0.0600000   2.494471e-04  1.671101e-07
    487    473   2   0.50000     0.0600000   -0.1200000   2.494471e-04  1.671101e-07
    487    489   2   0.50000     0.0600000    0.0600000   6.128906e-05  1.496315e-08
    487    490   2   0.50000     0.0600000    0.0600000   6.128906e-05  1.496315e-08
    488    473   2   0.50000     0.0600000   -0.1200000   2.494471e-04  1.671101e-07
    488    489   2   0.50000     0.0600000    0.0600000   6.128906e-05  1.496315e-08
    488    490   2   0.50000     0.0600000    0.0600000   6.128906e-05  1.496315e-08
    471    474   2   0.50000    -0.1200000   -0.1200000   1.015252e-03  1.866303e-06
    471    491   2   0.50000    -0.1200000    0.0600000   2.494471e-04  1.671101e-07
    471    492   2   0.50000    -0.1200000    0.0600000   2.494471e-04  1.671101e-07
    489    474   2   0.50000     0.0600000   -0.1200000   2.494471e-04  1.671101e-07
    489    491   2   0.50000     0.0600000    0.0600000   6.128906e-05  1.496315e-08
    489    492   2   0.50000     0.0600000    0.0600000   6.128906e-05  1.496315e-08
    490    474   2   0.50000     0.0600000   -0.1200000   2.494471e-04  1.671101e-07
    490    491   2   0.50000     0.0600000    0.0600000   6.128906e-05  1.496315e-08
    490    492   2   0.50000     0.0600000    0.0600000   6.128906e-05  1.496315e-08
    472    475   2   0.50000    -0.1200000   -0.1200000   1.015252e-03  1.866303e-06
    472    493   2   0.50000    -0.1200000    0.0600000   2.494471e-04  1.671101e-07
    472    494   2   0.50000    -0.1200000    0.0600000   2.494471e-04  1.671101e-07
    491    475   2   0.50000     0.0600000   -0.1200000   2.494471e-04  1.671101e-07
    491    493   2   0.50000     0.0600000    0.0600000   6.128906e-05  1.496315e-08
    491    494   2   0.50000     0.0600000    0.0600000   6.128906e-05  1.496315e-08
    492    475   2   0.50000     0.0600000   -0.1200000   2.494471e-04  1.671101e-07
    492    493   2   0.50000     0.0600000    0.0600000   6.128906e-05  1.496315e-08
    492    494   2   0.50000     0.0600000    0.0600000   6.128906e-05  1.496315e-08
    473    476   2   0.50000    -0.1200000   -0.1200000   1.015252e-03  1.866303e-06
    473    495   2   0.50000    -0.1200000    0.0600000   2.494471e-04  1.671101e-07
    473    496   2   0.50000    -0.1200000    0.0600000   2.494471e-04  1.671101e-07
    493    476   2   0.50000     0.0600000   -0.1200000   2.494471e-04  1.671101e-07
    493    495   2   0.50000     0.0600000    0.0600000   6.128906e-05  1.496315e-08
    493    496   2   0.50000     0.0600000    0.0600000   6.128906e-05  1.496315e-08
    494    476   2   0.50000     0.0600000   -0.1200000   2.494471e-04  1.671101e-07
    494    495   2   0.50000     0.0600000    0.0600000   6.128906e-05  1.496315e-08
    494    496   2   0.50000     0.0600000    0.0600000   6.128906e-05  1.496315e-08
    474    477   2   0.50000    -0.1200000    0.1900000   1.015252e-03  1.866303e-06
    474    497   2   0.50000    -0.1200000    0.0600000   2.494471e-04  1.671101e-07
    474    498   2   0.50000    -0.1200000    0.0600000   2.494471e-04  1.671101e-07
    495    477   2   0.50000     0.0600000    0.1900000   2.494471e-04  1.671101e-07
    495    497   2   0.50000     0.0600000    0.0600000   6.128906e-05  1.496315e-08
    495    498   2   0.50000     0.0600000    0.0600000   6.128906e-05  1.496315e-08
    496    477   2   0.50000     0.0600000    0.1900000   2.494471e-04  1.671101e-07
    496    497   2   0.50000     0.0600000    0.0600000   6.128906e-05  1.496315e-08
    496    498   2   0.50000     0.0600000    0.0600000   6.128906e-05  1.496315e-08
    475    478   2   0.50000    -0.1200000   -0.3300000   1.026091e-03  1.187829e-06
    475    499   2   0.50000    -0.1200000    0.0300000   1.599888e-04  9.721644e-08
    475    500   2   0.50000    -0.1200000    0.0300000   1.599888e-04  9.721644e-08
    497    478   2   0.50000     0.0600000   -0.3300000   2.521103e-04  1.063590e-07
    497    499   2   0.50000     0.0600000    0.0300000   3.930919e-05  8.704828e-09
    497    500   2   0.50000     0.0600000    0.0300000   3.930919e-05  8.704828e-09
    498    478   2   0.50000     0.0600000   -0.3300000   2.521103e-04  1.063590e-07
    498    499   2   0.50000     0.0600000    0.0300000   3.930919e-05  8.704828e-09
    498    500   2   0.50000     0.0600000    0.0300000   3.930919e-05  8.704828e-09
    476    479   2   0.50000    -0.1200000    0.5100000   1.575021e-03  3.561100e-06
    499    479   2   0.50000     0.0300000    0.5100000   2.482000e-04  1.854991e-07
    500    479   2   0.50000     0.0300000    0.5100000   2.482000e-04  1.854991e-07
    477    480   2   0.50000     0.1900000   -0.4300000   1.095425e-03  1.218041e-06
    477    481   2   0.50000     0.1900000    0.0000000   1.015252e-03  1.866303e-06
    478    447   2   0.50000    -0.3300000   -0.1200000   1.026091e-03  1.187829e-06
    478    482   2   0.50000    -0.3300000   -0.1800000   1.026091e-03  1.187829e-06
    478    483   2   0.50000    -0.3300000   -0.1200000   1.026091e-03  1.187829e-06
    480    447   2   0.50000    -0.4300000   -0.1200000   1.095425e-03  1.218041e-06
    480    482   2   0.50000    -0.4300000   -0.1800000   1.095425e-03  1.218041e-06
    480    483   2   0.50000    -0.4300000   -0.1200000   1.095425e-03  1.218041e-06
    447    501   2   0.50000    -0.1200000    0.0600000   2.494471e-04  1.671101e-07
    447    502   2   0.50000    -0.1200000    0.0600000   2.494471e-04  1.671101e-07
    447    503   2   0.50000    -0.1200000    0.0600000   2.494471e-04  1.671101e-07
    479    501   2   0.50000     0.5100000    0.0600000   3.869820e-04  3.188634e-07
    479    502   2   0.50000     0.5100000    0.0600000   3.869820e-04  3.188634e-07
    479    503   2   0.50000     0.5100000    0.0600000   3.869820e-04  3.188634e-07
    483    501   2   0.50000    -0.1200000    0.0600000   2.494471e-04  1.671101e-07
    483    502   2   0.50000    -0.1200000    0.0600000   2.494471e-04  1.671101e-07
    483    503   2   0.50000    -0.1200000    0.0600000   2.494471e-04  1.671101e-07
    447    504   2   0.50000    -0.1200000    0.0600000   2.494471e-04  1.671101e-07
    447    505   2   0.50000    -0.1200000    0.0600000   2.494471e-04  1.671101e-07
    447    517   2   0.50000    -0.1200000    0.0000000   1.015252e-03  1.866303e-06
    479    504   2   0.50000     0.5100000    0.0600000   3.869820e-04  3.188634e-07
    479    505   2   0.50000     0.5100000    0.0600000   3.869820e-04  3.188634e-07
    479    517   2   0.50000     0.5100000    0.0000000   1.575021e-03  3.561100e-06
    482    504   2   0.50000    -0.1800000    0.0600000   2.494471e-04  1.671101e-07
    482    505   2   0.50000    -0.1800000    0.0600000   2.494471e-04  1.671101e-07
    482    517   2   0.50000    -0.1800000    0.0000000   1.015252e-03  1.866303e-06
    481    515   2   0.50000     0.0000000    0.5100000   1.575021e-03  3.561100e-06
    481    518   2   0.50000     0.0000000   -0.1800000   1.015252e-03  1.866303e-06
    481    519   2   0.50000     0.0000000   -0.1200000   1.015252e-03  1.866303e-06
    504    515   2   0.50000     0.0600000    0.5100000   3.869820e-04  3.188634e-07
    504    518   2   0.50000     0.0600000   -0.1800000   2.494471e-04  1.671101e-07
    504    519   2   0.50000     0.0600000   -0.1200000   2.494471e-04  1.671101e-07
    505    515   2   0.50000     0.0600000    0.5100000   3.869820e-04  3.188634e-07
    505    518   2   0.50000     0.0600000   -0.1800000   2.494471e-04  1.671101e-07
    505    519   2   0.50000     0.0600000   -0.1200000   2.494471e-04  1.671101e-07
    520    508   2   0.50000     0.0600000   -0.1200000   2.494471e-04  1.671101e-07
    520    523   2   0.50000     0.0600000    0.0600000   6.128906e-05  1.496315e-08
    520    524   2   0.50000     0.0600000    0.0600000   6.128906e-05  1.496315e-08
    521    508   2   0.50000     0.0600000   -0.1200000   2.494471e-04  1.671101e-07
    521    523   2   0.50000     0.0600000    0.0600000   6.128906e-05  1.496315e-08
    521    524   2   0.50000     0.0600000    0.0600000   6.128906e-05  1.496315e-08
    522    508   2   0.50000     0.0600000   -0.1200000   2.494471e-04  1.671101e-07
    522    523   2   0.50000     0.0600000    0.0600000   6.128906e-05  1.496315e-08
    522    524   2   0.50000     0.0600000    0.0600000   6.128906e-05  1.496315e-08
    506    509   2   0.50000    -0.1800000   -0.1200000   1.015252e-03  1.866303e-06
    506    525   2   0.50000    -0.1800000    0.0600000   2.494471e-04  1.671101e-07
    506    526   2   0.50000    -0.1800000    0.0600000   2.494471e-04  1.671101e-07
    523    509   2   0.50000     0.0600000   -0.1200000   2.494471e-04  1.671101e-07
    523    525   2   0.50000     0.0600000    0.0600000   6.128906e-05  1.496315e-08
    523    526   2   0.50000     0.0600000    0.0600000   6.128906e-05  1.496315e-08
    524    509   2   0.50000     0.0600000   -0.1200000   2.494471e-04  1.671101e-07
    524    525   2   0.50000     0.0600000    0.0600000   6.128906e-05  1.496315e-08
    524    526   2   0.50000     0.0600000    0.0600000   6.128906e-05  1.496315e-08
    507    510   2   0.50000    -0.1200000   -0.1200000   1.015252e-03  1.866303e-06
    507    527   2   0.50000    -0.1200000    0.0600000   2.494471e-04  1.671101e-07
    507    528   2   0.50000    -0.1200000    0.0600000   2.494471e-04  1.671101e-07
    525    510   2   0.50000     0.0600000   -0.1200000   2.494471e-04  1.671101e-07
    525    527   2   0.50000     0.0600000    0.0600000   6.128906e-05  1.496315e-08
    525    528   2   0.50000     0.0600000    0.0600000   6.128906e-05  1.496315e-08
    526    510   2   0.50000     0.0600000   -0.1200000   2.494471e-04  1.671101e-07
    526    527   2   0.50000     0.0600000    0.0600000   6.128906e-05  1.496315e-08
    526    528   2   0.50000     0.0600000    0.0600000   6.128906e-05  1.496315e-08
    508    511   2   0.50000    -0.1200000   -0.1200000   1.015252e-03  1.866303e-06
    508    529   2   0.50000    -0.1200000    0.0600000   2.494471e-04  1.671101e-07
    508    530   2   0.50000    -0.1200000    0.0600000   2.494471e-04  1.671101e-07
    527    511   2   0.50000     0.0600000   -0.1200000   2.494471e-04  1.671101e-07
    527    529   2   0.50000     0.0600000    0.0600000   6.128906e-05  1.496315e-08
    527    530   2   0.50000     0.0600000    0.0600000   6.128906e-05  1.496315e-08
    528    511   2   0.50000     0.0600000   -0.1200000   2.494471e-04  1.671101e-07
    528    529   2   0.50000     0.0600000    0.0600000   6.128906e-05  1.496315e-08
    528    530   2   0.50000     0.0600000    0.0600000   6.128906e-05  1.496315e-08
    509    512   2   0.50000    -0.1200000   -0.1200000   1.015252e-03  1.866303e-06
    509    531   2   0.50000    -0.1200000    0.0600000   2.494471e-04  1.671101e-07
    509    532   2   0.50000    -0.1200000    0.0600000   2.494471e-04  1.671101e-07
    529    512   2   0.50000     0.0600000   -0.1200000   2.494471e-04  1.671101e-07
    529    531   2   0.50000     0.0600000    0.0600000   6.128906e-05  1.496315e-08
    529    532   2   0.50000     0.0600000    0.0600000   6.128906e-05  1.496315e-08
    530    512   2   0.50000     0.0600000   -0.1200000   2.494471e-04  1.671101e-07
    530    531   2   0.50000     0.0600000    0.0600000   6.128906e-05  1.496315e-08
    530    532   2   0.50000     0.0600000    0.0600000   6.128906e-05  1.496315e-08
    510    513   2   0.50000    -0.1200000    0.1900000   1.015252e-03  1.866303e-06
    510    533   2   0.50000    -0.1200000    0.0600000   2.494471e-04  1.671101e-07
    510    534   2   0.50000    -0.1200000    0.0600000   2.494471e-04  1.671101e-07
    531    513   2   0.50000     0.0600000    0.1900000   2.494471e-04  1.671101e-07
    531    533   2   0.50000     0.0600000    0.0600000   6.128906e-05  1.496315e-08
    531    534   2   0.50000     0.0600000    0.0600000   6.128906e-05  1.496315e-08
    532    513   2   0.50000     0.0600000    0.1900000   2.494471e-04  1.671101e-07
    532    533   2   0.50000     0.0600000    0.0600000   6.128906e-05  1.496315e-08
    532    534   2   0.50000     0.0600000    0.0600000   6.128906e-05  1.496315e-08
    511    514   2   0.50000    -0.1200000   -0.3300000   1.026091e-03  1.187829e-06
    511    535   2   0.50000    -0.1200000    0.0300000   1.599888e-04  9.721644e-08
    511    536   2   0.50000    -0.1200000    0.0300000   1.599888e-04  9.721644e-08
    533    514   2   0.50000     0.0600000   -0.3300000   2.521103e-04  1.063590e-07
    533    535   2   0.50000     0.0600000    0.0300000   3.930919e-05  8.704828e-09
    533    536   2   0.50000     0.0600000    0.0300000   3.930919e-05  8.704828e-09
    534    514   2   0.50000     0.0600000   -0.3300000   2.521103e-04  1.063590e-07
    534    535   2   0.50000     0.0600000    0.0300000   3.930919e-05  8.704828e-09
    534    536   2   0.50000     0.0600000    0.0300000   3.930919e-05  8.704828e-09
    512    515   2   0.50000    -0.1200000    0.5100000   1.575021e-03  3.561100e-06
    535    515   2   0.50000     0.0300000    0.5100000   2.482000e-04  1.854991e-07
    536    515   2   0.50000     0.0300000    0.5100000   2.482000e-04  1.854991e-07
    513    516   2   0.50000     0.1900000   -0.4300000   1.095425e-03  1.218041e-06
    513    517   2   0.50000     0.1900000    0.0000000   1.015252e-03  1.866303e-06
    514    483   2   0.50000    -0.3300000   -0.1200000   1.026091e-03  1.187829e-06
    514    518   2   0.50000    -0.3300000   -0.1800000   1.026091e-03  1.187829e-06
    514    519   2   0.50000    -0.3300000   -0.1200000   1.026091e-03  1.187829e-06
    516    483   2   0.50000    -0.4300000   -0.1200000   1.095425e-03  1.218041e-06
    516    518   2   0.50000    -0.4300000   -0.1800000   1.095425e-03  1.218041e-06
    516    519   2   0.50000    -0.4300000   -0.1200000   1.095425e-03  1.218041e-06
    483    537   2   0.50000    -0.1200000    0.0600000   2.494471e-04  1.671101e-07
    483    538   2   0.50000    -0.1200000    0.0600000   2.494471e-04  1.671101e-07
    483    539   2   0.50000    -0.1200000    0.0600000   2.494471e-04  1.671101e-07
    515    537   2   0.50000     0.5100000    0.0600000   3.869820e-04  3.188634e-07
    515    538   2   0.50000     0.5100000    0.0600000   3.869820e-04  3.188634e-07
    515    539   2   0.50000     0.5100000    0.0600000   3.869820e-04  3.188634e-07
    519    537   2   0.50000    -0.1200000    0.0600000   2.494471e-04  1.671101e-07
    519    538   2   0.50000    -0.1200000    0.0600000   2.494471e-04  1.671101e-07
    519    539   2   0.50000    -0.1200000    0.0600000   2.494471e-04  1.671101e-07
    483    540   2   0.50000    -0.1200000    0.0600000   2.494471e-04  1.671101e-07
    483    541   2   0.50000    -0.1200000    0.0600000   2.494471e-04  1.671101e-07
    483    553   2   0.50000    -0.1200000    0.0000000   1.015252e-03  1.866303e-06
    515    540   2   0.50000     0.5100000    0.0600000   3.869820e-04  3.188634e-07
    515    541   2   0.50000     0.5100000    0.0600000   3.869820e-04  3.188634e-07
    515    553   2   0.50000     0.5100000    0.0000000   1.575021e-03  3.561100e-06
    518    540   2   0.50000    -0.1800000    0.0600000   2.494471e-04  1.671101e-07
    518    541   2   0.50000    -0.1800000    0.0600000   2.494471e-04  1.671101e-07
    518    553   2   0.50000    -0.1800000    0.0000000   1.015252e-03  1.866303e-06
    517    551   2   0.50000     0.0000000    0.5100000   1.575021e-03  3.561100e-06
    517    554   2   0.50000     0.0000000   -0.1800000   1.015252e-03  1.866303e-06
    517    555   2   0.50000     0.0000000   -0.1200000   1.015252e-03  1.866303e-06
    540    551   2   0.50000     0.0600000    0.5100000   3.869820e-04  3.188634e-07
    540    554   2   0.50000     0.0600000   -0.1800000   2.494471e-04  1.671101e-07
    540    555   2   0.50000     0.0600000   -0.1200000   2.494471e-04  1.671101e-07
    541    551   2   0.50000     0.0600000    0.5100000   3.869820e-04  3.188634e-07
    541    554   2   0.50000     0.0600000   -0.1800000   2.494471e-04  1.671101e-07
    541    555   2   0.50000     0.0600000   -0.1200000   2.494471e-04  1.671101e-07
    556    544   2   0.50000     0.0600000   -0.1200000   2.494471e-04  1.671101e-07
    556    559   2   0.50000     0.0600000    0.0600000   6.128906e-05  1.496315e-08
    556    560   2   0.50000     0.0600000    0.0600000   6.128906e-05  1.496315e-08
    557    544   2   0.50000     0.0600000   -0.1200000   2.494471e-04  1.671101e-07
    557    559   2   0.50000     0.0600000    0.0600000   6.128906e-05  1.496315e-08
    557    560   2   0.50000     0.0600000    0.0600000   6.128906e-05  1.496315e-08
    558    544   2   0.50000     0.0600000   -0.1200000   2.494471e-04  1.671101e-07
    558    559   2   0.50000     0.0600000    0.0600000   6.128906e-05  1.496315e-08
    558    560   2   0.50000     0.0600000    0.0600000   6.128906e-05  1.496315e-08
    542    545   2   0.50000    -0.1800000   -0.1200000   1.015252e-03  1.866303e-06
    542    561   2   0.50000    -0.1800000    0.0600000   2.494471e-04  1.671101e-07
    542    562   2   0.50000    -0.1800000    0.0600000   2.494471e-04  1.671101e-07
    559    545   2   0.50000     0.0600000   -0.1200000   2.494471e-04  1.671101e-07
    559    561   2   0.50000     0.0600000    0.0600000   6.128906e-05  1.496315e-08
    559    562   2   0.50000     0.0600000    0.0600000   6.128906e-05  1.496315e-08
    560    545   2   0.50000     0.0600000   -0.1200000   2.494471e-04  1.671101e-07
    560    561   2   0.50000     0.0600000    0.0600000   6.128906e-05  1.496315e-08
    560    562   2   0.50000     0.0600000    0.0600000   6.128906e-05  1.496315e-08
    543    546   2   0.50000    -0.1200000   -0.1200000   1.015252e-03  1.866303e-06
    543    563   2   0.50000    -0.1200000    0.0600000   2.494471e-04  1.671101e-07
    543    564   2   0.50000    -0.1200000    0.0600000   2.494471e-04  1.671101e-07
    561    546   2   0.50000     0.0600000   -0.1200000   2.494471e-04  1.671101e-07
    561    563   2   0.50000     0.0600000    0.0600000   6.128906e-05  1.496315e-08
    561    564   2   0.50000     0.0600000    0.0600000   6.128906e-05  1.496315e-08
    562    546   2   0.50000     0.0600000   -0.1200000   2.494471e-04  1.671101e-07
    562    563   2   0.50000     0.0600000    0.0600000   6.128906e-05  1.496315e-08
    562    564   2   0.50000     0.0600000    0.0600000   6.128906e-05  1.496315e-08
    544    547   2   0.50000    -0.1200000   -0.1200000   1.015252e-03  1.866303e-06
    544    565   2   0.50000    -0.1200000    0.0600000   2.494471e-04  1.671101e-07
    544    566   2   0.50000    -0.1200000    0.0600000   2.494471e-04  1.671101e-07
    563    547   2   0.50000     0.0600000   -0.1200000   2.494471e-04  1.671101e-07
    563    565   2   0.50000     0.0600000    0.0600000   6.128906e-05  1.496315e-08
    563    566   2   0.50000     0.0600000    0.0600000   6.128906e-05  1.496315e-08
    564    547   2   0.50000     0.0600000   -0.1200000   2.494471e-04  1.671101e-07
    564    565   2   0.50000     0.0600000    0.0600000   6.128906e-05  1.496315e-08
    564    566   2   0.50000     0.0600000    0.0600000   6.128906e-05  1.496315e-08
    545    548   2   0.50000    -0.1200000   -0.1200000   1.015252e-03  1.866303e-06
    545    567   2   0.50000    -0.1200000    0.0600000   2.494471e-04  1.671101e-07
    545    568   2   0.50000    -0.1200000    0.0600000   2.494471e-04  1.671101e-07
    565    548   2   0.50000     0.0600000   -0.1200000   2.494471e-04  1.671101e-07
    565    567   2   0.50000     0.0600000    0.0600000   6.128906e-05  1.496315e-08
    565    568   2   0.50000     0.0600000    0.0600000   6.128906e-05  1.496315e-08
    566    548   2   0.50000     0.0600000   -0.1200000   2.494471e-04  1.671101e-07
    566    567   2   0.50000     0.0600000    0.0600000   6.128906e-05  1.496315e-08
    566    568   2   0.50000     0.0600000    0.0600000   6.128906e-05  1.496315e-08
    546    549   2   0.50000    -0.1200000    0.1900000   1.015252e-03  1.866303e-06
    546    569   2   0.50000    -0.1200000    0.0600000   2.494471e-04  1.671101e-07
    546    570   2   0.50000    -0.1200000    0.0600000   2.494471e-04  1.671101e-07
    567    549   2   0.50000     0.0600000    0.1900000   2.494471e-04  1.671101e-07
    567    569   2   0.50000     0.0600000    0.0600000   6.128906e-05  1.496315e-08
    567    570   2   0.50000     0.0600000    0.0600000   6.128906e-05  1.496315e-08
    568    549   2   0.50000     0.0600000    0.1900000   2.494471e-04  1.671101e-07
    568    569   2   0.50000     0.0600000    0.0600000   6.128906e-05  1.496315e-08
    568    570   2   0.50000     0.0600000    0.0600000   6.128906e-05  1.496315e-08
    547    550   2   0.50000    -0.1200000   -0.3300000   1.026091e-03  1.187829e-06
    547    571   2   0.50000    -0.1200000    0.0300000   1.599888e-04  9.721644e-08
    547    572   2   0.50000    -0.1200000    0.0300000   1.599888e-04  9.721644e-08
    569    550   2   0.50000     0.0600000   -0.3300000   2.521103e-04  1.063590e-07
    569    571   2   0.50000     0.0600000    0.0300000   3.930919e-05  8.704828e-09
    569    572   2   0.50000     0.0600000    0.0300000   3.930919e-05  8.704828e-09
    570    550   2   0.50000     0.0600000   -0.3300000   2.521103e-04  1.063590e-07
    570    571   2   0.50000     0.0600000    0.0300000   3.930919e-05  8.704828e-09
    570    572   2   0.50000     0.0600000    0.0300000   3.930919e-05  8.704828e-09
    548    551   2   0.50000    -0.1200000    0.5100000   1.575021e-03  3.561100e-06
    571    551   2   0.50000     0.0300000    0.5100000   2.482000e-04  1.854991e-07
    572    551   2   0.50000     0.0300000    0.5100000   2.482000e-04  1.854991e-07
    549    552   2   0.50000     0.1900000   -0.4300000   1.095425e-03  1.218041e-06
    549    553   2   0.50000     0.1900000    0.0000000   1.015252e-03  1.866303e-06
    550    519   2   0.50000    -0.3300000   -0.1200000   1.026091e-03  1.187829e-06
    550    554   2   0.50000    -0.3300000   -0.1800000   1.026091e-03  1.187829e-06
    550    555   2   0.50000    -0.3300000   -0.1200000   1.026091e-03  1.187829e-06
    552    519   2   0.50000    -0.4300000   -0.1200000   1.095425e-03  1.218041e-06
    552    554   2   0.50000    -0.4300000   -0.1800000   1.095425e-03  1.218041e-06
    552    555   2   0.50000    -0.4300000   -0.1200000   1.095425e-03  1.218041e-06
    519    573   2   0.50000    -0.1200000    0.0600000   2.494471e-04  1.671101e-07
    519    574   2   0.50000    -0.1200000    0.0600000   2.494471e-04  1.671101e-07
    519    575   2   0.50000    -0.1200000    0.0600000   2.494471e-04  1.671101e-07
    551    573   2   0.50000     0.5100000    0.0600000   3.869820e-04  3.188634e-07
    551    574   2   0.50000     0.5100000    0.0600000   3.869820e-04  3.188634e-07
    551    575   2   0.50000     0.5100000    0.0600000   3.869820e-04  3.188634e-07
    555    573   2   0.50000    -0.1200000    0.0600000   2.494471e-04  1.671101e-07
    555    574   2   0.50000    -0.1200000    0.0600000   2.494471e-04  1.671101e-07
    555    575   2   0.50000    -0.1200000    0.0600000   2.494471e-04  1.671101e-07
    519    576   2   0.50000    -0.1200000    0.0600000   2.494471e-04  1.671101e-07
    519    577   2   0.50000    -0.1200000    0.0600000   2.494471e-04  1.671101e-07
    519    589   2   0.50000    -0.1200000    0.0000000   1.015252e-03  1.866303e-06
    551    576   2   0.50000     0.5100000    0.0600000   3.869820e-04  3.188634e-07
    551    577   2   0.50000     0.5100000    0.0600000   3.869820e-04  3.188634e-07
    551    589   2   0.50000     0.5100000    0.0000000   1.575021e-03  3.561100e-06
    554    576   2   0.50000    -0.1800000    0.0600000   2.494471e-04  1.671101e-07
    554    577   2   0.50000    -0.1800000    0.0600000   2.494471e-04  1.671101e-07
    554    589   2   0.50000    -0.1800000    0.0000000   1.015252e-03  1.866303e-06
    553    587   2   0.50000     0.0000000    0.5100000   1.575021e-03  3.561100e-06
    553    590   2   0.50000     0.0000000   -0.1800000   1.015252e-03  1.866303e-06
    553    591   2   0.50000     0.0000000   -0.1200000   1.015252e-03  1.866303e-06
    576    587   2   0.50000     0.0600000    0.5100000   3.869820e-04  3.188634e-07
    576    590   2   0.50000     0.0600000   -0.1800000   2.494471e-04  1.671101e-07
    576    591   2   0.50000     0.0600000   -0.1200000   2.494471e-04  1.671101e-07
    577    587   2   0.50000     0.0600000    0.5100000   3.869820e-04  3.188634e-07
    577    590   2   0.50000     0.0600000   -0.1800000   2.494471e-04  1.671101e-07
    577    591   2   0.50000     0.0600000   -0.1200000   2.494471e-04  1.671101e-07
    592    580   2   0.50000     0.0600000   -0.1200000   2.494471e-04  1.671101e-07
    592    595   2   0.50000     0.0600000    0.0600000   6.128906e-05  1.496315e-08
    592    596   2   0.50000     0.0600000    0.0600000   6.128906e-05  1.496315e-08
    593    580   2   0.50000     0.0600000   -0.1200000   2.494471e-04  1.671101e-07
    593    595   2   0.50000     0.0600000    0.0600000   6.128906e-05  1.496315e-08
    593    596   2   0.50000     0.0600000    0.0600000   6.128906e-05  1.496315e-08
    594    580   2   0.50000     0.0600000   -0.1200000   2.494471e-04  1.671101e-07
    594    595   2   0.50000     0.0600000    0.0600000   6.128906e-05  1.496315e-08
    594    596   2   0.50000     0.0600000    0.0600000   6.128906e-05  1.496315e-08
    578    581   2   0.50000    -0.1800000   -0.1200000   1.015252e-03  1.866303e-06
    578    597   2   0.50000    -0.1800000    0.0600000   2.494471e-04  1.671101e-07
    578    598   2   0.50000    -0.1800000    0.0600000   2.494471e-04  1.671101e-07
    595    581   2   0.50000     0.0600000   -0.1200000   2.494471e-04  1.671101e-07
    595    597   2   0.50000     0.0600000    0.0600000   6.128906e-05  1.496315e-08
    595    598   2   0.50000     0.0600000    0.0600000   6.128906e-05  1.496315e-08
    596    581   2   0.50000     0.0600000   -0.1200000   2.494471e-04  1.671101e-07
    596    597   2   0.50000     0.0600000    0.0600000   6.128906e-05  1.496315e-08
    596    598   2   0.50000     0.0600000    0.0600000   6.128906e-05  1.496315e-08
    579    582   2   0.50000    -0.1200000   -0.1200000   1.015252e-03  1.866303e-06
    579    599   2   0.50000    -0.1200000    0.0600000   2.494471e-04  1.671101e-07
    579    600   2   0.50000    -0.1200000    0.0600000   2.494471e-04  1.671101e-07
    597    582   2   0.50000     0.0600000   -0.1200000   2.494471e-04  1.671101e-07
    597    599   2   0.50000     0.0600000    0.0600000   6.128906e-05  1.496315e-08
    597    600   2   0.50000     0.0600000    0.0600000   6.128906e-05  1.496315e-08
    598    582   2   0.50000     0.0600000   -0.1200000   2.494471e-04  1.671101e-07
    598    599   2   0.50000     0.0600000    0.0600000   6.128906e-05  1.496315e-08
    598    600   2   0.50000     0.0600000    0.0600000   6.128906e-05  1.496315e-08
    580    583   2   0.50000    -0.1200000   -0.1200000   1.015252e-03  1.866303e-06
    580    601   2   0.50000    -0.1200000    0.0600000   2.494471e-04  1.671101e-07
    580    602   2   0.50000    -0.1200000    0.0600000   2.494471e-04  1.671101e-07
    599    583   2   0.50000     0.0600000   -0.1200000   2.494471e-04  1.671101e-07
    599    601   2   0.50000     0.0600000    0.0600000   6.128906e-05  1.496315e-08
    599    602   2   0.50000     0.0600000    0.0600000   6.128906e-05  1.496315e-08
    600    583   2   0.50000     0.0600000   -0.1200000   2.494471e-04  1.671101e-07
    600    601   2   0.50000     0.0600000    0.0600000   6.128906e-05  1.496315e-08
    600    602   2   0.50000     0.0600000    0.0600000   6.128906e-05  1.496315e-08
    581    584   2   0.50000    -0.1200000   -0.1200000   1.015252e-03  1.866303e-06
    581    603   2   0.50000    -0.1200000    0.0600000   2.494471e-04  1.671101e-07
    581    604   2   0.50000    -0.1200000    0.0600000   2.494471e-04  1.671101e-07
    601    584   2   0.50000     0.0600000   -0.1200000   2.494471e-04  1.671101e-07
    601    603   2   0.50000     0.0600000    0.0600000   6.128906e-05  1.496315e-08
    601    604   2   0.50000     0.0600000    0.0600000   6.128906e-05  1.496315e-08
    602    584   2   0.50000     0.0600000   -0.1200000   2.494471e-04  1.671101e-07
    602    603   2   0.50000     0.0600000    0.0600000   6.128906e-05  1.496315e-08
    602    604   2   0.50000     0.0600000    0.0600000   6.128906e-05  1.496315e-08
    582    585   2   0.50000    -0.1200000    0.1900000   1.015252e-03  1.866303e-06
    582    605   2   0.50000    -0.1200000    0.0600000   2.494471e-04  1.671101e-07
    582    606   2   0.50000    -0.1200000    0.0600000   2.494471e-04  1.671101e-07
    603    585   2   0.50000     0.0600000    0.1900000   2.494471e-04  1.671101e-07
    603    605   2   0.50000     0.0600000    0.0600000   6.128906e-05  1.496315e-08
    603    606   2   0.50000     0.0600000    0.0600000   6.128906e-05  1.496315e-08
    604    585   2   0.50000     0.0600000    0.1900000   2.494471e-04  1.671101e-07
    604    605   2   0.50000     0.0600000    0.0600000   6.128906e-05  1.496315e-08
    604    606   2   0.50000     0.0600000    0.0600000   6.128906e-05  1.496315e-08
    583    586   2   0.50000    -0.1200000   -0.3300000   1.026091e-03  1.187829e-06
    583    607   2   0.50000    -0.1200000    0.0300000   1.599888e-04  9.721644e-08
    583    608   2   0.50000    -0.1200000    0.0300000   1.599888e-04  9.721644e-08
    605    586   2   0.50000     0.0600000   -0.3300000   2.521103e-04  1.063590e-07
    605    607   2   0.50000     0.0600000    0.0300000   3.930919e-05  8.704828e-09
    605    608   2   0.50000     0.0600000    0.0300000   3.930919e-05  8.704828e-09
    606    586   2   0.50000     0.0600000   -0.3300000   2.521103e-04  1.063590e-07
    606    607   2   0.50000     0.0600000    0.0300000   3.930919e-05  8.704828e-09
    606    608   2   0.50000     0.0600000    0.0300000   3.930919e-05  8.704828e-09
    584    587   2   0.50000    -0.1200000    0.5100000   1.575021e-03  3.561100e-06
    607    587   2   0.50000     0.0300000    0.5100000   2.482000e-04  1.854991e-07
    608    587   2   0.50000     0.0300000    0.5100000   2.482000e-04  1.854991e-07
    585    588   2   0.50000     0.1900000   -0.4300000   1.095425e-03  1.218041e-06
    585    589   2   0.50000     0.1900000    0.0000000   1.015252e-03  1.866303e-06
    586    555   2   0.50000    -0.3300000   -0.1200000   1.026091e-03  1.187829e-06
    586    590   2   0.50000    -0.3300000   -0.1800000   1.026091e-03  1.187829e-06
    586    591   2   0.50000    -0.3300000   -0.1200000   1.026091e-03  1.187829e-06
    588    555   2   0.50000    -0.4300000   -0.1200000   1.095425e-03  1.218041e-06
    588    590   2   0.50000    -0.4300000   -0.1800000   1.095425e-03  1.218041e-06
    588    591   2   0.50000    -0.4300000   -0.1200000   1.095425e-03  1.218041e-06
    555    609   2   0.50000    -0.1200000    0.0600000   2.494471e-04  1.671101e-07
    555    610   2   0.50000    -0.1200000    0.0600000   2.494471e-04  1.671101e-07
    555    611   2   0.50000    -0.1200000    0.0600000   2.494471e-04  1.671101e-07
    587    609   2   0.50000     0.5100000    0.0600000   3.869820e-04  3.188634e-07
    587    610   2   0.50000     0.5100000    0.0600000   3.869820e-04  3.188634e-07
    587    611   2   0.50000     0.5100000    0.0600000   3.869820e-04  3.188634e-07
    591    609   2   0.50000    -0.1200000    0.0600000   2.494471e-04  1.671101e-07
    591    610   2   0.50000    -0.1200000    0.0600000   2.494471e-04  1.671101e-07
    591    611   2   0.50000    -0.1200000    0.0600000   2.494471e-04  1.671101e-07
    555    612   2   0.50000    -0.1200000    0.0600000   2.494471e-04  1.671101e-07
    555    613   2   0.50000    -0.1200000    0.0600000   2.494471e-04  1.671101e-07
    555    625   2   0.50000    -0.1200000    0.0000000   1.015252e-03  1.866303e-06
    587    612   2   0.50000     0.5100000    0.0600000   3.869820e-04  3.188634e-07
    587    613   2   0.50000     0.5100000    0.0600000   3.869820e-04  3.188634e-07
    587    625   2   0.50000     0.5100000    0.0000000   1.575021e-03  3.561100e-06
    590    612   2   0.50000    -0.1800000    0.0600000   2.494471e-04  1.671101e-07
    590    613   2   0.50000    -0.1800000    0.0600000   2.494471e-04  1.671101e-07
    590    625   2   0.50000    -0.1800000    0.0000000   1.015252e-03  1.866303e-06
    589    623   2   0.50000     0.0000000    0.5100000   1.575021e-03  3.561100e-06
    589    626   2   0.50000     0.0000000   -0.1800000   1.015252e-03  1.866303e-06
    589    627   2   0.50000     0.0000000   -0.1200000   1.015252e-03  1.866303e-06
    612    623   2   0.50000     0.0600000    0.5100000   3.869820e-04  3.188634e-07
    612    626   2   0.50000     0.0600000   -0.1800000   2.494471e-04  1.671101e-07
    612    627   2   0.50000     0.0600000   -0.1200000   2.494471e-04  1.671101e-07
    613    623   2   0.50000     0.0600000    0.5100000   3.869820e-04  3.188634e-07
    613    626   2   0.50000     0.0600000   -0.1800000   2.494471e-04  1.671101e-07
    613    627   2   0.50000     0.0600000   -0.1200000   2.494471e-04  1.671101e-07
    628    616   2   0.50000     0.0600000   -0.1200000   2.494471e-04  1.671101e-07
    628    631   2   0.50000     0.0600000    0.0600000   6.128906e-05  1.496315e-08
    628    632   2   0.50000     0.0600000    0.0600000   6.128906e-05  1.496315e-08
    629    616   2   0.50000     0.0600000   -0.1200000   2.494471e-04  1.671101e-07
    629    631   2   0.50000     0.0600000    0.0600000   6.128906e-05  1.496315e-08
    629    632   2   0.50000     0.0600000    0.0600000   6.128906e-05  1.496315e-08
    630    616   2   0.50000     0.0600000   -0.1200000   2.494471e-04  1.671101e-07
    630    631   2   0.50000     0.0600000    0.0600000   6.128906e-05  1.496315e-08
    630    632   2   0.50000     0.0600000    0.0600000   6.128906e-05  1.496315e-08
    614    617   2   0.50000    -0.1800000   -0.1200000   1.015252e-03  1.866303e-06
    614    633   2   0.50000    -0.1800000    0.0600000   2.494471e-04  1.671101e-07
    614    634   2   0.50000    -0.1800000    0.0600000   2.494471e-04  1.671101e-07
    631    617   2   0.50000     0.0600000   -0.1200000   2.494471e-04  1.671101e-07
    631    633   2   0.50000     0.0600000    0.0600000   6.128906e-05  1.496315e-08
    631    634   2   0.50000     0.0600000    0.0600000   6.128906e-05  1.496315e-08
    632    617   2   0.50000     0.0600000   -0.1200000   2.494471e-04  1.671101e-07
    632    633   2   0.50000     0.0600000    0.0600000   6.128906e-05  1.496315e-08
    632    634   2   0.50000     0.0600000    0.0600000   6.128906e-05  1.496315e-08
    615    618   2   0.50000    -0.1200000   -0.1200000   1.015252e-03  1.866303e-06
    615    635   2   0.50000    -0.1200000    0.0600000   2.494471e-04  1.671101e-07
    615    636   2   0.50000    -0.1200000    0.0600000   2.494471e-04  1.671101e-07
    633    618   2   0.50000     0.0600000   -0.1200000   2.494471e-04  1.671101e-07
    633    635   2   0.50000     0.0600000    0.0600000   6.128906e-05  1.496315e-08
    633    636   2   0.50000     0.0600000    0.0600000   6.128906e-05  1.496315e-08
    634    618   2   0.50000     0.0600000   -0.1200000   2.494471e-04  1.671101e-07
    634    635   2   0.50000     0.0600000    0.0600000   6.128906e-05  1.496315e-08
    634    636   2   0.50000     0.0600000    0.0600000   6.128906e-05  1.496315e-08
    616    619   2   0.50000    -0.1200000   -0.1200000   1.015252e-03  1.866303e-06
    616    637   2   0.50000    -0.1200000    0.0600000   2.494471e-04  1.671101e-07
    616    638   2   0.50000    -0.1200000    0.0600000   2.494471e-04  1.671101e-07
    635    619   2   0.50000     0.0600000   -0.1200000   2.494471e-04  1.671101e-07
    635    637   2   0.50000     0.0600000    0.0600000   6.128906e-05  1.496315e-08
    635    638   2   0.50000     0.0600000    0.0600000   6.128906e-05  1.496315e-08
    636    619   2   0.50000     0.0600000   -0.1200000   2.494471e-04  1.671101e-07
    636    637   2   0.50000     0.0600000    0.0600000   6.128906e-05  1.496315e-08
    636    638   2   0.50000     0.0600000    0.0600000   6.128906e-05  1.496315e-08
    617    620   2   0.50000    -0.1200000   -0.1200000   1.015252e-03  1.866303e-06
    617    639   2   0.50000    -0.1200000    0.0600000   2.494471e-04  1.671101e-07
    617    640   2   0.50000    -0.1200000    0.0600000   2.494471e-04  1.671101e-07
    637    620   2   0.50000     0.0600000   -0.1200000   2.494471e-04  1.671101e-07
    637    639   2   0.50000     0.0600000    0.0600000   6.128906e-05  1.496315e-08
    637    640   2   0.50000     0.0600000    0.0600000   6.128906e-05  1.496315e-08
    638    620   2   0.50000     0.0600000   -0.1200000   2.494471e-04  1.671101e-07
    638    639   2   0.50000     0.0600000    0.0600000   6.128906e-05  1.496315e-08
    638    640   2   0.50000     0.0600000    0.0600000   6.128906e-05  1.496315e-08
    618    621   2   0.50000    -0.1200000    0.1900000   1.015252e-03  1.866303e-06
    618    641   2   0.50000    -0.1200000    0.0600000   2.494471e-04  1.671101e-07
    618    642   2   0.50000    -0.1200000    0.0600000   2.494471e-04  1.671101e-07
    639    621   2   0.50000     0.0600000    0.1900000   2.494471e-04  1.671101e-07
    639    641   2   0.50000     0.0600000    0.0600000   6.128906e-05  1.496315e-08
    639    642   2   0.50000     0.0600000    0.0600000   6.128906e-05  1.496315e-08
    640    621   2   0.50000     0.0600000    0.1900000   2.494471e-04  1.671101e-07
    640    641   2   0.50000     0.0600000    0.0600000   6.128906e-05  1.496315e-08
    640    642   2   0.50000     0.0600000    0.0600000   6.128906e-05  1.496315e-08
    619    622   2   0.50000    -0.1200000   -0.3300000   1.026091e-03  1.187829e-06
    619    643   2   0.50000    -0.1200000    0.0300000   1.599888e-04  9.721644e-08
    619    644   2   0.50000    -0.1200000    0.0300000   1.599888e-04  9.721644e-08
    641    622   2   0.50000     0.0600000   -0.3300000   2.521103e-04  1.063590e-07
    641    643   2   0.50000     0.0600000    0.0300000   3.930919e-05  8.704828e-09
    641    644   2   0.50000     0.0600000    0.0300000   3.930919e-05  8.704828e-09
    642    622   2   0.50000     0.0600000   -0.3300000   2.521103e-04  1.063590e-07
    642    643   2   0.50000     0.0600000    0.0300000   3.930919e-05  8.704828e-09
    642    644   2   0.50000     0.0600000    0.0300000   3.930919e-05  8.704828e-09
    620    623   2   0.50000    -0.1200000    0.5100000   1.575021e-03  3.561100e-06
    643    623   2   0.50000     0.0300000    0.5100000   2.482000e-04  1.854991e-07
    644    623   2   0.50000     0.0300000    0.5100000   2.482000e-04  1.854991e-07
    621    624   2   0.50000     0.1900000   -0.4300000   1.095425e-03  1.218041e-06
    621    625   2   0.50000     0.1900000    0.0000000   1.015252e-03  1.866303e-06
    622    591   2   0.50000    -0.3300000   -0.1200000   1.026091e-03  1.187829e-06
    622    626   2   0.50000    -0.3300000   -0.1800000   1.026091e-03  1.187829e-06
    622    627   2   0.50000    -0.3300000   -0.1200000   1.026091e-03  1.187829e-06
    624    591   2   0.50000    -0.4300000   -0.1200000   1.095425e-03  1.218041e-06
    624    626   2   0.50000    -0.4300000   -0.1800000   1.095425e-03  1.218041e-06
    624    627   2   0.50000    -0.4300000   -0.1200000   1.095425e-03  1.218041e-06
    591    645   2   0.50000    -0.1200000    0.0600000   2.494471e-04  1.671101e-07
    591    646   2   0.50000    -0.1200000    0.0600000   2.494471e-04  1.671101e-07
    591    647   2   0.50000    -0.1200000    0.0600000   2.494471e-04  1.671101e-07
    623    645   2   0.50000     0.5100000    0.0600000   3.869820e-04  3.188634e-07
    623    646   2   0.50000     0.5100000    0.0600000   3.869820e-04  3.188634e-07
    623    647   2   0.50000     0.5100000    0.0600000   3.869820e-04  3.188634e-07
    627    645   2   0.50000    -0.1200000    0.0600000   2.494471e-04  1.671101e-07
    627    646   2   0.50000    -0.1200000    0.0600000   2.494471e-04  1.671101e-07
    627    647   2   0.50000    -0.1200000    0.0600000   2.494471e-04  1.671101e-07
    591    648   2   0.50000    -0.1200000    0.0600000   2.494471e-04  1.671101e-07
    591    649   2   0.50000    -0.1200000    0.0600000   2.494471e-04  1.671101e-07
    591    661   2   0.50000    -0.1200000    0.0000000   1.015252e-03  1.866303e-06
    623    648   2   0.50000     0.5100000    0.0600000   3.869820e-04  3.188634e-07
    623    649   2   0.50000     0.5100000    0.0600000   3.869820e-04  3.188634e-07
    623    661   2   0.50000     0.5100000    0.0000000   1.575021e-03  3.561100e-06
    626    648   2   0.50000    -0.1800000    0.0600000   2.494471e-04  1.671101e-07
    626    649   2   0.50000    -0.1800000    0.0600000   2.494471e-04  1.671101e-07
    626    661   2   0.50000    -0.1800000    0.0000000   1.015252e-03  1.866303e-06
    625    659   2   0.50000     0.0000000    0.5100000   1.575021e-03  3.561100e-06
    625    662   2   0.50000     0.0000000   -0.1800000   1.015252e-03  1.866303e-06
    625    663   2   0.50000     0.0000000   -0.1200000   1.015252e-03  1.866303e-06
    648    659   2   0.50000     0.0600000    0.5100000   3.869820e-04  3.188634e-07
    648    662   2   0.50000     0.0600000   -0.1800000   2.494471e-04  1.671101e-07
    648    663   2   0.50000     0.0600000   -0.1200000   2.494471e-04  1.671101e-07
    649    659   2   0.50000     0.0600000    0.5100000   3.869820e-04  3.188634e-07
    649    662   2   0.50000     0.0600000   -0.1800000   2.494471e-04  1.671101e-07
    649    663   2   0.50000     0.0600000   -0.1200000   2.494471e-04  1.671101e-07
    664    652   2   0.50000     0.0600000   -0.1200000   2.494471e-04  1.671101e-07
    664    667   2   0.50000     0.0600000    0.0600000   6.128906e-05  1.496315e-08
    664    668   2   0.50000     0.0600000    0.0600000   6.128906e-05  1.496315e-08
    665    652   2   0.50000     0.0600000   -0.1200000   2.494471e-04  1.671101e-07
    665    667   2   0.50000     0.0600000    0.0600000   6.128906e-05  1.496315e-08
    665    668   2   0.50000     0.0600000    0.0600000   6.128906e-05  1.496315e-08
    666    652   2   0.50000     0.0600000   -0.1200000   2.494471e-04  1.671101e-07
    666    667   2   0.50000     0.0600000    0.0600000   6.128906e-05  1.496315e-08
    666    668   2   0.50000     0.0600000    0.0600000   6.128906e-05  1.496315e-08
    650    653   2   0.50000    -0.1800000   -0.1200000   1.015252e-03  1.866303e-06
    650    669   2   0.50000    -0.1800000    0.0600000   2.494471e-04  1.671101e-07
    650    670   2   0.50000    -0.1800000    0.0600000   2.494471e-04  1.671101e-07
    667    653   2   0.50000     0.0600000   -0.1200000   2.494471e-04  1.671101e-07
    667    669   2   0.50000     0.0600000    0.0600000   6.128906e-05  1.496315e-08
    667    670   2   0.50000     0.0600000    0.0600000   6.128906e-05  1.496315e-08
    668    653   2   0.50000     0.0600000   -0.1200000   2.494471e-04  1.671101e-07
    668    669   2   0.50000     0.0600000    0.0600000   6.128906e-05  1.496315e-08
    668    670   2   0.50000     0.0600000    0.0600000   6.128906e-05  1.496315e-08
    651    654   2   0.50000    -0.1200000   -0.1200000   1.015252e-03  1.866303e-06
    651    671   2   0.50000    -0.1200000    0.0600000   2.494471e-04  1.671101e-07
    651    672   2   0.50000    -0.1200000    0.0600000   2.494471e-04  1.671101e-07
    669    654   2   0.50000     0.0600000   -0.1200000   2.494471e-04  1.671101e-07
    669    671   2   0.50000     0.0600000    0.0600000   6.128906e-05  1.496315e-08
    669    672   2   0.50000     0.0600000    0.0600000   6.128906e-05  1.496315e-08
    670    654   2   0.50000     0.0600000   -0.1200000   2.494471e-04  1.671101e-07
    670    671   2   0.50000     0.0600000    0.0600000   6.128906e-05  1.496315e-08
    670    672   2   0.50000     0.0600000    0.0600000   6.128906e-05  1.496315e-08
    652    655   2   0.50000    -0.1200000   -0.1200000   1.015252e-03  1.866303e-06
    652    673   2   0.50000    -0.1200000    0.0600000   2.494471e-04  1.671101e-07
    652    674   2   0.50000    -0.1200000    0.0600000   2.494471e-04  1.671101e-07
    671    655   2   0.50000     0.0600000   -0.1200000   2.494471e-04  1.671101e-07
    671    673   2   0.50000     0.0600000    0.0600000   6.128906e-05  1.496315e-08
    671    674   2   0.50000     0.0600000    0.0600000   6.128906e-05  1.496315e-08
    672    655   2   0.50000     0.0600000   -0.1200000   2.494471e-04  1.671101e-07
    672    673   2   0.50000     0.0600000    0.0600000   6.128906e-05  1.496315e-08
    672    674   2   0.50000     0.0600000    0.0600000   6.128906e-05  1.496315e-08
    653    656   2   0.50000    -0.1200000   -0.1200000   1.015252e-03  1.866303e-06
    653    675   2   0.50000    -0.1200000    0.0600000   2.494471e-04  1.671101e-07
    653    676   2   0.50000    -0.1200000    0.0600000   2.494471e-04  1.671101e-07
    673    656   2   0.50000     0.0600000   -0.1200000   2.494471e-04  1.671101e-07
    673    675   2   0.50000     0.0600000    0.0600000   6.128906e-05  1.496315e-08
    673    676   2   0.50000     0.0600000    0.0600000   6.128906e-05  1.496315e-08
    674    656   2   0.50000     0.0600000   -0.1200000   2.494471e-04  1.671101e-07
    674    675   2   0.50000     0.0600000    0.0600000   6.128906e-05  1.496315e-08
    674    676   2   0.50000     0.0600000    0.0600000   6.128906e-05  1.496315e-08
    654    657   2   0.50000    -0.1200000    0.1900000   1.015252e-03  1.866303e-06
    654    677   2   0.50000    -0.1200000    0.0600000   2.494471e-04  1.671101e-07
    654    678   2   0.50000    -0.1200000    0.0600000   2.494471e-04  1.671101e-07
    675    657   2   0.50000     0.0600000    0.1900000   2.494471e-04  1.671101e-07
    675    677   2   0.50000     0.0600000    0.0600000   6.128906e-05  1.496315e-08
    675    678   2   0.50000     0.0600000    0.0600000   6.128906e-05  1.496315e-08
    676    657   2   0.50000     0.0600000    0.1900000   2.494471e-04  1.671101e-07
    676    677   2   0.50000     0.0600000    0.0600000   6.128906e-05  1.496315e-08
    676    678   2   0.50000     0.0600000    0.0600000   6.128906e-05  1.496315e-08
    655    658   2   0.50000    -0.1200000   -0.3300000   1.026091e-03  1.187829e-06
    655    679   2   0.50000    -0.1200000    0.0300000   1.599888e-04  9.721644e-08
    655    680   2   0.50000    -0.1200000    0.0300000   1.599888e-04  9.721644e-08
    677    658   2   0.50000     0.0600000   -0.3300000   2.521103e-04  1.063590e-07
    677    679   2   0.50000     0.0600000    0.0300000   3.930919e-05  8.704828e-09
    677    680   2   0.50000     0.0600000    0.0300000   3.930919e-05  8.704828e-09
    678    658   2   0.50000     0.0600000   -0.3300000   2.521103e-04  1.063590e-07
    678    679   2   0.50000     0.0600000    0.0300000   3.930919e-05  8.704828e-09
    678    680   2   0.50000     0.0600000    0.0300000   3.930919e-05  8.704828e-09
    656    659   2   0.50000    -0.1200000    0.5100000   1.575021e-03  3.561100e-06
    679    659   2   0.50000     0.0300000    0.5100000   2.482000e-04  1.854991e-07
    680    659   2   0.50000     0.0300000    0.5100000   2.482000e-04  1.854991e-07
    657    660   2   0.50000     0.1900000   -0.4300000   1.095425e-03  1.218041e-06
    657    661   2   0.50000     0.1900000    0.0000000   1.015252e-03  1.866303e-06
    658    627   2   0.50000    -0.3300000   -0.1200000   1.026091e-03  1.187829e-06
    658    662   2   0.50000    -0.3300000   -0.1800000   1.026091e-03  1.187829e-06
    658    663   2   0.50000    -0.3300000   -0.1200000   1.026091e-03  1.187829e-06
    660    627   2   0.50000    -0.4300000   -0.1200000   1.095425e-03  1.218041e-06
    660    662   2   0.50000    -0.4300000   -0.1800000   1.095425e-03  1.218041e-06
    660    663   2   0.50000    -0.4300000   -0.1200000   1.095425e-03  1.218041e-06
    627    681   2   0.50000    -0.1200000    0.0600000   2.494471e-04  1.671101e-07
    627    682   2   0.50000    -0.1200000    0.0600000   2.494471e-04  1.671101e-07
    627    683   2   0.50000    -0.1200000    0.0600000   2.494471e-04  1.671101e-07
    659    681   2   0.50000     0.5100000    0.0600000   3.869820e-04  3.188634e-07
    659    682   2   0.50000     0.5100000    0.0600000   3.869820e-04  3.188634e-07
    659    683   2   0.50000     0.5100000    0.0600000   3.869820e-04  3.188634e-07
    663    681   2   0.50000    -0.1200000    0.0600000   2.494471e-04  1.671101e-07
    663    682   2   0.50000    -0.1200000    0.0600000   2.494471e-04  1.671101e-07
    663    683   2   0.50000    -0.1200000    0.0600000   2.494471e-04  1.671101e-07
    627    684   2   0.50000    -0.1200000    0.0600000   2.494471e-04  1.671101e-07
    627    685   2   0.50000    -0.1200000    0.0600000   2.494471e-04  1.671101e-07
    627    697   2   0.50000    -0.1200000    0.0000000   1.015252e-03  1.866303e-06
    659    684   2   0.50000     0.5100000    0.0600000   3.869820e-04  3.188634e-07
    659    685   2   0.50000     0.5100000    0.0600000   3.869820e-04  3.188634e-07
    659    697   2   0.50000     0.5100000    0.0000000   1.575021e-03  3.561100e-06
    662    684   2   0.50000    -0.1800000    0.0600000   2.494471e-04  1.671101e-07
    662    685   2   0.50000    -0.1800000    0.0600000   2.494471e-04  1.671101e-07
    662    697   2   0.50000    -0.1800000    0.0000000   1.015252e-03  1.866303e-06
    661    695   2   0.50000     0.0000000    0.5100000   1.575021e-03  3.561100e-06
    661    698   2   0.50000     0.0000000   -0.1800000   1.015252e-03  1.866303e-06
    661    699   2   0.50000     0.0000000   -0.1800000   1.015252e-03  1.866303e-06
    684    695   2   0.50000     0.0600000    0.5100000   3.869820e-04  3.188634e-07
    684    698   2   0.50000     0.0600000   -0.1800000   2.494471e-04  1.671101e-07
    684    699   2   0.50000     0.0600000   -0.1800000   2.494471e-04  1.671101e-07
    685    695   2   0.50000     0.0600000    0.5100000   3.869820e-04  3.188634e-07
    685    698   2   0.50000     0.0600000   -0.1800000   2.494471e-04  1.671101e-07
    685    699   2   0.50000     0.0600000   -0.1800000   2.494471e-04  1.671101e-07
    700    688   2   0.50000     0.0600000   -0.1200000   2.494471e-04  1.671101e-07
    700    703   2   0.50000     0.0600000    0.0600000   6.128906e-05  1.496315e-08
    700    704   2   0.50000     0.0600000    0.0600000   6.128906e-05  1.496315e-08
    701    688   2   0.50000     0.0600000   -0.1200000   2.494471e-04  1.671101e-07
    701    703   2   0.50000     0.0600000    0.0600000   6.128906e-05  1.496315e-08
    701    704   2   0.50000     0.0600000    0.0600000   6.128906e-05  1.496315e-08
    702    688   2   0.50000     0.0600000   -0.1200000   2.494471e-04  1.671101e-07
    702    703   2   0.50000     0.0600000    0.0600000   6.128906e-05  1.496315e-08
    702    704   2   0.50000     0.0600000    0.0600000   6.128906e-05  1.496315e-08
    686    689   2   0.50000    -0.1800000   -0.1200000   1.015252e-03  1.866303e-06
    686    705   2   0.50000    -0.1800000    0.0600000   2.494471e-04  1.671101e-07
    686    706   2   0.50000    -0.1800000    0.0600000   2.494471e-04  1.671101e-07
    703    689   2   0.50000     0.0600000   -0.1200000   2.494471e-04  1.671101e-07
    703    705   2   0.50000     0.0600000    0.0600000   6.128906e-05  1.496315e-08
    703    706   2   0.50000     0.0600000    0.0600000   6.128906e-05  1.496315e-08
    704    689   2   0.50000     0.0600000   -0.1200000   2.494471e-04  1.671101e-07
    704    705   2   0.50000     0.0600000    0.0600000   6.128906e-05  1.496315e-08
    704    706   2   0.50000     0.0600000    0.0600000   6.128906e-05  1.496315e-08
    687    690   2   0.50000    -0.1200000   -0.1200000   1.015252e-03  1.866303e-06
    687    707   2   0.50000    -0.1200000    0.0600000   2.494471e-04  1.671101e-07
    687    708   2   0.50000    -0.1200000    0.0600000   2.494471e-04  1.671101e-07
    705    690   2   0.50000     0.0600000   -0.1200000   2.494471e-04  1.671101e-07
    705    707   2   0.50000     0.0600000    0.0600000   6.128906e-05  1.496315e-08
    705    708   2   0.50000     0.0600000    0.0600000   6.128906e-05  1.496315e-08
    706    690   2   0.50000     0.0600000   -0.1200000   2.494471e-04  1.671101e-07
    706    707   2   0.50000     0.0600000    0.0600000   6.128906e-05  1.496315e-08
    706    708   2   0.50000     0.0600000    0.0600000   6.128906e-05  1.496315e-08
    688    691   2   0.50000    -0.1200000   -0.1200000   1.015252e-03  1.866303e-06
    688    709   2   0.50000    -0.1200000    0.0600000   2.494471e-04  1.671101e-07
    688    710   2   0.50000    -0.1200000    0.0600000   2.494471e-04  1.671101e-07
    707    691   2   0.50000     0.0600000   -0.1200000   2.494471e-04  1.671101e-07
    707    709   2   0.50000     0.0600000    0.0600000   6.128906e-05  1.496315e-08
    707    710   2   0.50000     0.0600000    0.0600000   6.128906e-05  1.496315e-08
    708    691   2   0.50000     0.0600000   -0.1200000   2.494471e-04  1.671101e-07
    708    709   2   0.50000     0.0600000    0.0600000   6.128906e-05  1.496315e-08
    708    710   2   0.50000     0.0600000    0.0600000   6.128906e-05  1.496315e-08
    689    692   2   0.50000    -0.1200000   -0.1200000   1.015252e-03  1.866303e-06
    689    711   2   0.50000    -0.1200000    0.0600000   2.494471e-04  1.671101e-07
    689    712   2   0.50000    -0.1200000    0.0600000   2.494471e-04  1.671101e-07
    709    692   2   0.50000     0.0600000   -0.1200000   2.494471e-04  1.671101e-07
    709    711   2   0.50000     0.0600000    0.0600000   6.128906e-05  1.496315e-08
    709    712   2   0.50000     0.0600000    0.0600000   6.128906e-05  1.496315e-08
    710    692   2   0.50000     0.0600000   -0.1200000   2.494471e-04  1.671101e-07
    710    711   2   0.50000     0.0600000    0.0600000   6.128906e-05  1.496315e-08
    710    712   2   0.50000     0.0600000    0.0600000   6.128906e-05  1.496315e-08
    690    693   2   0.50000    -0.1200000    0.1900000   1.015252e-03  1.866303e-06
    690    713   2   0.50000    -0.1200000    0.0600000   2.494471e-04  1.671101e-07
    690    714   2   0.50000    -0.1200000    0.0600000   2.494471e-04  1.671101e-07
    711    693   2   0.50000     0.0600000    0.1900000   2.494471e-04  1.671101e-07
    711    713   2   0.50000     0.0600000    0.0600000   6.128906e-05  1.496315e-08
    711    714   2   0.50000     0.0600000    0.0600000   6.128906e-05  1.496315e-08
    712    693   2   0.50000     0.0600000    0.1900000   2.494471e-04  1.671101e-07
    712    713   2   0.50000     0.0600000    0.0600000   6.128906e-05  1.496315e-08
    712    714   2   0.50000     0.0600000    0.0600000   6.128906e-05  1.496315e-08
    691    694   2   0.50000    -0.1200000   -0.3300000   1.026091e-03  1.187829e-06
    691    715   2   0.50000    -0.1200000    0.0300000   1.599888e-04  9.721644e-08
    691    716   2   0.50000    -0.1200000    0.0300000   1.599888e-04  9.721644e-08
    713    694   2   0.50000     0.0600000   -0.3300000   2.521103e-04  1.063590e-07
    713    715   2   0.50000     0.0600000    0.0300000   3.930919e-05  8.704828e-09
    713    716   2   0.50000     0.0600000    0.0300000   3.930919e-05  8.704828e-09
    714    694   2   0.50000     0.0600000   -0.3300000   2.521103e-04  1.063590e-07
    714    715   2   0.50000     0.0600000    0.0300000   3.930919e-05  8.704828e-09
    714    716   2   0.50000     0.0600000    0.0300000   3.930919e-05  8.704828e-09
    692    695   2   0.50000    -0.1200000    0.5100000   1.575021e-03  3.561100e-06
    715    695   2   0.50000     0.0300000    0.5100000   2.482000e-04  1.854991e-07
    716    695   2   0.50000     0.0300000    0.5100000   2.482000e-04  1.854991e-07
    693    696   2   0.50000     0.1900000   -0.4300000   1.095425e-03  1.218041e-06
    693    697   2   0.50000     0.1900000    0.0000000   1.015252e-03  1.866303e-06
    694    663   2   0.50000    -0.3300000   -0.1200000   1.026091e-03  1.187829e-06
    694    698   2   0.50000    -0.3300000   -0.1800000   1.026091e-03  1.187829e-06
    694    699   2   0.50000    -0.3300000   -0.1800000   1.026091e-03  1.187829e-06
    696    663   2   0.50000    -0.4300000   -0.1200000   1.095425e-03  1.218041e-06
    696    698   2   0.50000    -0.4300000   -0.1800000   1.095425e-03  1.218041e-06
    696    699   2   0.50000    -0.4300000   -0.1800000   1.095425e-03  1.218041e-06
    663    717   2   0.50000    -0.1200000    0.0600000   2.494471e-04  1.671101e-07
    663    718   2   0.50000    -0.1200000    0.0600000   2.494471e-04  1.671101e-07
    663    719   2   0.50000    -0.1200000    0.0600000   2.494471e-04  1.671101e-07
    695    717   2   0.50000     0.5100000    0.0600000   3.869820e-04  3.188634e-07
    695    718   2   0.50000     0.5100000    0.0600000   3.869820e-04  3.188634e-07
    695    719   2   0.50000     0.5100000    0.0600000   3.869820e-04  3.188634e-07
    699    717   2   0.50000    -0.1800000    0.0600000   2.494471e-04  1.671101e-07
    699    718   2   0.50000    -0.1800000    0.0600000   2.494471e-04  1.671101e-07
    699    719   2   0.50000    -0.1800000    0.0600000   2.494471e-04  1.671101e-07
    663    720   2   0.50000    -0.1200000    0.0600000   2.494471e-04  1.671101e-07
    663    721   2   0.50000    -0.1200000    0.0600000   2.494471e-04  1.671101e-07
    663    722   2   0.50000    -0.1200000    0.0600000   2.494471e-04  1.671101e-07
    695    720   2   0.50000     0.5100000    0.0600000   3.869820e-04  3.188634e-07
    695    721   2   0.50000     0.5100000    0.0600000   3.869820e-04  3.188634e-07
    695    722   2   0.50000     0.5100000    0.0600000   3.869820e-04  3.188634e-07
    698    720   2   0.50000    -0.1800000    0.0600000   2.494471e-04  1.671101e-07
    698    721   2   0.50000    -0.1800000    0.0600000   2.494471e-04  1.671101e-07
    698    722   2   0.50000    -0.1800000    0.0600000   2.494471e-04  1.671101e-07

[ angles ]
; ai  aj  ak
      2      1     15   1    110.7000    313.8000
      2      1     16   1    110.7000    313.8000
      2      1     17   1    110.7000    313.8000
     15      1     16   1    107.8000    276.1440
     15      1     17   1    107.8000    276.1440
     16      1     17   1    107.8000    276.1440
      1      2      3   1    112.7000    488.2728
      1      2     18   1    110.7000    313.8000
      1      2     19   1    110.7000    313.8000
      3      2     18   1    110.7000    313.8000
      3      2     19   1    110.7000    313.8000
     18      2     19   1    107.8000    276.1440
      2      3      4   1    112.7000    488.2728
      2      3     20   1    110.7000    313.8000
      2      3     21   1    110.7000    313.8000
      4      3     20   1    110.7000    313.8000
      4      3     21   1    110.7000    313.8000
     20      3     21   1    107.8000    276.1440
      3      4      5   1    112.7000    488.2728
      3      4     22   1    110.7000    313.8000
      3      4     23   1    110.7000    313.8000
      5      4     22   1    110.7000    313.8000
      5      4     23   1    110.7000    313.8000
     22      4     23   1    107.8000    276.1440
      4      5      6   1    112.7000    488.2728
      4      5     24   1    110.7000    313.8000
      4      5     25   1    110.7000    313.8000
      6      5     24   1    110.7000    313.8000
      6      5     25   1    110.7000    313.8000
     24      5     25   1    107.8000    276.1440
      5      6      7   1    112.7000    488.2728
      5      6     26   1    110.7000    313.8000
      5      6     27   1    110.7000    313.8000
      7      6     26   1    110.7000    313.8000
      7      6     27   1    110.7000    313.8000
     26      6     27   1    107.8000    276.1440
      6      7      8   1    112.7000    488.2728
      6      7     28   1    110.7000    313.8000
      6      7     29   1    110.7000    313.8000
      8      7     28   1    110.7000    313.8000
      8      7     29   1    110.7000    313.8000
     28      7     29   1    107.8000    276.1440
      7      8      9   1    109.5000    418.4000
      7      8     30   1    110.7000    313.8000
      7      8     31   1    110.7000    313.8000
      9      8     30   1    109.5000    292.8800
      9      8     31   1    109.5000    292.8800
     30      8     31   1    107.8000    276.1440
      8      9     10   1    116.9000    694.5440
      9     10     11   1    123.4000    694.5440
      9     10     12   1    111.4000    677.8080
     11     10     12   1    120.4000    669.4400
     10     12     13   1    111.1000    527.1840
     10     12     14   1    111.1000    527.1840
     10     12     37   1    109.5000    292.8800
     13     12     14   1    112.7000    488.2728
     13     12     37   1    110.7000    313.8000
     14     12     37   1    110.7000    313.8000
     12     13     32   1    110.7000    313.8000
     12     13     33   1    110.7000    313.8000
     12     13     34   1    110.7000    313.8000
     32     13     33   1    107.8000    276.1440
     32     13     34   1    107.8000    276.1440
     33     13     34   1    107.8000    276.1440
     12     14     35   1    110.7000    313.8000
     12     14     36   1    110.7000    313.8000
     12     14     49   1    112.7000    488.2728
     35     14     36   1    107.8000    276.1440
     35     14     49   1    110.7000    313.8000
     36     14     49   1    110.7000    313.8000
     39     38     52   1    110.7000    313.8000
     39     38     53   1    110.7000    313.8000
     39     38     54   1    110.7000    313.8000
     52     38     53   1    107.8000    276.1440
     52     38     54   1    107.8000    276.1440
     53     38     54   1    107.8000    276.1440
     38     39     40   1    112.7000    488.2728
     38     39     55   1    110.7000    313.8000
     38     39     56   1    110.7000    313.8000
     40     39     55   1    110.7000    313.8000
     40     39     56   1    110.7000    313.8000
     55     39     56   1    107.8000    276.1440
     39     40     41   1    112.7000    488.2728
     39     40     57   1    110.7000    313.8000
     39     40     58   1    110.7000    313.8000
     41     40     57   1    110.7000    313.8000
     41     40     58   1    110.7000    313.8000
     57     40     58   1    107.8000    276.1440
     40     41     42   1    112.7000    488.2728
     40     41     59   1    110.7000    313.8000
     40     41     60   1    110.7000    313.8000
     42     41     59   1    110.7000    313.8000
     42     41     60   1    110.7000    313.8000
     59     41     60   1    107.8000    276.1440
     41     42     43   1    112.7000    488.2728
     41     42     61   1    110.7000    313.8000
     41     42     62   1    110.7000    313.8000
     43     42     61   1    110.7000    313.8000
     43     42     62   1    110.7000    313.8000
     61     42     62   1    107.8000    276.1440
     42     43     44   1    112.7000    488.2728
     42     43     63   1    110.7000    313.8000
     42     43     64   1    110.7000    313.8000
     44     43     63   1    110.7000    313.8000
     44     43     64   1    110.7000    313.8000
     63     43     64   1    107.8000    276.1440
     43     44     45   1    112.7000    488.2728
     43     44     65   1    110.7000    313.8000
     43     44     66   1    110.7000    313.8000
     45     44     65   1    110.7000    313.8000
     45     44     66   1    110.7000    313.8000
     65     44     66   1    107.8000    276.1440
     44     45     46   1    109.5000    418.4000
     44     45     67   1    110.7000    313.8000
     44     45     68   1    110.7000    313.8000
     46     45     67   1    109.5000    292.8800
     46     45     68   1    109.5000    292.8800
     67     45     68   1    107.8000    276.1440
     45     46     47   1    116.9000    694.5440
     46     47     48   1    123.4000    694.5440
     46     47     49   1    111.4000    677.8080
     48     47     49   1    120.4000    669.4400
     14     49     47   1    111.1000    527.1840
     14     49     50   1    112.7000    488.2728
     14     49     51   1    112.7000    488.2728
     47     49     50   1    111.1000    527.1840
     47     49     51   1    111.1000    527.1840
     50     49     51   1    112.7000    488.2728
     49     50     69   1    110.7000    313.8000
     49     50     70   1    110.7000    313.8000
     49     50     71   1    110.7000    313.8000
     69     50     70   1    107.8000    276.1440
     69     50     71   1    107.8000    276.1440
     70     50     71   1    107.8000    276.1440
     49     51     72   1    110.7000    313.8000
     49     51     73   1    110.7000    313.8000
     49     51     85   1    112.7000    488.2728
     72     51     73   1    107.8000    276.1440
     72     51     85   1    110.7000    313.8000
     73     51     85   1    110.7000    313.8000
     75     74     88   1    110.7000    313.8000
     75     74     89   1    110.7000    313.8000
     75     74     90   1    110.7000    313.8000
     88     74     89   1    107.8000    276.1440
     88     74     90   1    107.8000    276.1440
     89     74     90   1    107.8000    276.1440
     74     75     76   1    112.7000    488.2728
     74     75     91   1    110.7000    313.8000
     74     75     92   1    110.7000    313.8000
     76     75     91   1    110.7000    313.8000
     76     75     92   1    110.7000    313.8000
     91     75     92   1    107.8000    276.1440
     75     76     77   1    112.7000    488.2728
     75     76     93   1    110.7000    313.8000
     75     76     94   1    110.7000    313.8000
     77     76     93   1    110.7000    313.8000
     77     76     94   1    110.7000    313.8000
     93     76     94   1    107.8000    276.1440
     76     77     78   1    112.7000    488.2728
     76     77     95   1    110.7000    313.8000
     76     77     96   1    110.7000    313.8000
     78     77     95   1    110.7000    313.8000
     78     77     96   1    110.7000    313.8000
     95     77     96   1    107.8000    276.1440
     77     78     79   1    112.7000    488.2728
     77     78     97   1    110.7000    313.8000
     77     78     98   1    110.7000    313.8000
     79     78     97   1    110.7000    313.8000
     79     78     98   1    110.7000    313.8000
     97     78     98   1    107.8000    276.1440
     78     79     80   1    112.7000    488.2728
     78     79     99   1    110.7000    313.8000
     78     79    100   1    110.7000    313.8000
     80     79     99   1    110.7000    313.8000
     80     79    100   1    110.7000    313.8000
     99     79    100   1    107.8000    276.1440
     79     80     81   1    112.7000    488.2728
     79     80    101   1    110.7000    313.8000
     79     80    102   1    110.7000    313.8000
     81     80    101   1    110.7000    313.8000
     81     80    102   1    110.7000    313.8000
    101     80    102   1    107.8000    276.1440
     80     81     82   1    109.5000    418.4000
     80     81    103   1    110.7000    313.8000
     80     81    104   1    110.7000    313.8000
     82     81    103   1    109.5000    292.8800
     82     81    104   1    109.5000    292.8800
    103     81    104   1    107.8000    276.1440
     81     82     83   1    116.9000    694.5440
     82     83     84   1    123.4000    694.5440
     82     83     85   1    111.4000    677.8080
     84     83     85   1    120.4000    669.4400
     51     85     83   1    111.1000    527.1840
     51     85     86   1    112.7000    488.2728
     51     85     87   1    112.7000    488.2728
     83     85     86   1    111.1000    527.1840
     83     85     87   1    111.1000    527.1840
     86     85     87   1    112.7000    488.2728
     85     86    105   1    110.7000    313.8000
     85     86    106   1    110.7000    313.8000
     85     86    107   1    110.7000    313.8000
    105     86    106   1    107.8000    276.1440
    105     86    107   1    107.8000    276.1440
    106     86    107   1    107.8000    276.1440
     85     87    108   1    110.7000    313.8000
     85     87    109   1    110.7000    313.8000
     85     87    121   1    112.7000    488.2728
    108     87    109   1    107.8000    276.1440
    108     87    121   1    110.7000    313.8000
    109     87    121   1    110.7000    313.8000
    111    110    124   1    110.7000    313.8000
    111    110    125   1    110.7000    313.8000
    111    110    126   1    110.7000    313.8000
    124    110    125   1    107.8000    276.1440
    124    110    126   1    107.8000    276.1440
    125    110    126   1    107.8000    276.1440
    110    111    112   1    112.7000    488.2728
    110    111    127   1    110.7000    313.8000
    110    111    128   1    110.7000    313.8000
    112    111    127   1    110.7000    313.8000
    112    111    128   1    110.7000    313.8000
    127    111    128   1    107.8000    276.1440
    111    112    113   1    112.7000    488.2728
    111    112    129   1    110.7000    313.8000
    111    112    130   1    110.7000    313.8000
    113    112    129   1    110.7000    313.8000
    113    112    130   1    110.7000    313.8000
    129    112    130   1    107.8000    276.1440
    112    113    114   1    112.7000    488.2728
    112    113    131   1    110.7000    313.8000
    112    113    132   1    110.7000    313.8000
    114    113    131   1    110.7000    313.8000
    114    113    132   1    110.7000    313.8000
    131    113    132   1    107.8000    276.1440
    113    114    115   1    112.7000    488.2728
    113    114    133   1    110.7000    313.8000
    113    114    134   1    110.7000    313.8000
    115    114    133   1    110.7000    313.8000
    115    114    134   1    110.7000    313.8000
    133    114    134   1    107.8000    276.1440
    114    115    116   1    112.7000    488.2728
    114    115    135   1    110.7000    313.8000
    114    115    136   1    110.7000    313.8000
    116    115    135   1    110.7000    313.8000
    116    115    136   1    110.7000    313.8000
    135    115    136   1    107.8000    276.1440
    115    116    117   1    112.7000    488.2728
    115    116    137   1    110.7000    313.8000
    115    116    138   1    110.7000    313.8000
    117    116    137   1    110.7000    313.8000
    117    116    138   1    110.7000    313.8000
    137    116    138   1    107.8000    276.1440
    116    117    118   1    109.5000    418.4000
    116    117    139   1    110.7000    313.8000
    116    117    140   1    110.7000    313.8000
    118    117    139   1    109.5000    292.8800
    118    117    140   1    109.5000    292.8800
    139    117    140   1    107.8000    276.1440
    117    118    119   1    116.9000    694.5440
    118    119    120   1    123.4000    694.5440
    118    119    121   1    111.4000    677.8080
    120    119    121   1    120.4000    669.4400
     87    121    119   1    111.1000    527.1840
     87    121    122   1    112.7000    488.2728
     87    121    123   1    112.7000    488.2728
    119    121    122   1    111.1000    527.1840
    119    121    123   1    111.1000    527.1840
    122    121    123   1    112.7000    488.2728
    121    122    141   1    110.7000    313.8000
    121    122    142   1    110.7000    313.8000
    121    122    143   1    110.7000    313.8000
    141    122    142   1    107.8000    276.1440
    141    122    143   1    107.8000    276.1440
    142    122    143   1    107.8000    276.1440
    121    123    144   1    110.7000    313.8000
    121    123    145   1    110.7000    313.8000
    121    123    157   1    112.7000    488.2728
    144    123    145   1    107.8000    276.1440
    144    123    157   1    110.7000    313.8000
    145    123    157   1    110.7000    313.8000
    147    146    160   1    110.7000    313.8000
    147    146    161   1    110.7000    313.8000
    147    146    162   1    110.7000    313.8000
    160    146    161   1    107.8000    276.1440
    160    146    162   1    107.8000    276.1440
    161    146    162   1    107.8000    276.1440
    146    147    148   1    112.7000    488.2728
    146    147    163   1    110.7000    313.8000
    146    147    164   1    110.7000    313.8000
    148    147    163   1    110.7000    313.8000
    148    147    164   1    110.7000    313.8000
    163    147    164   1    107.8000    276.1440
    147    148    149   1    112.7000    488.2728
    147    148    165   1    110.7000    313.8000
    147    148    166   1    110.7000    313.8000
    149    148    165   1    110.7000    313.8000
    149    148    166   1    110.7000    313.8000
    165    148    166   1    107.8000    276.1440
    148    149    150   1    112.7000    488.2728
    148    149    167   1    110.7000    313.8000
    148    149    168   1    110.7000    313.8000
    150    149    167   1    110.7000    313.8000
    150    149    168   1    110.7000    313.8000
    167    149    168   1    107.8000    276.1440
    149    150    151   1    112.7000    488.2728
    149    150    169   1    110.7000    313.8000
    149    150    170   1    110.7000    313.8000
    151    150    169   1    110.7000    313.8000
    151    150    170   1    110.7000    313.8000
    169    150    170   1    107.8000    276.1440
    150    151    152   1    112.7000    488.2728
    150    151    171   1    110.7000    313.8000
    150    151    172   1    110.7000    313.8000
    152    151    171   1    110.7000    313.8000
    152    151    172   1    110.7000    313.8000
    171    151    172   1    107.8000    276.1440
    151    152    153   1    112.7000    488.2728
    151    152    173   1    110.7000    313.8000
    151    152    174   1    110.7000    313.8000
    153    152    173   1    110.7000    313.8000
    153    152    174   1    110.7000    313.8000
    173    152    174   1    107.8000    276.1440
    152    153    154   1    109.5000    418.4000
    152    153    175   1    110.7000    313.8000
    152    153    176   1    110.7000    313.8000
    154    153    175   1    109.5000    292.8800
    154    153    176   1    109.5000    292.8800
    175    153    176   1    107.8000    276.1440
    153    154    155   1    116.9000    694.5440
    154    155    156   1    123.4000    694.5440
    154    155    157   1    111.4000    677.8080
    156    155    157   1    120.4000    669.4400
    123    157    155   1    111.1000    527.1840
    123    157    158   1    112.7000    488.2728
    123    157    159   1    112.7000    488.2728
    155    157    158   1    111.1000    527.1840
    155    157    159   1    111.1000    527.1840
    158    157    159   1    112.7000    488.2728
    157    158    177   1    110.7000    313.8000
    157    158    178   1    110.7000    313.8000
    157    158    179   1    110.7000    313.8000
    177    158    178   1    107.8000    276.1440
    177    158    179   1    107.8000    276.1440
    178    158    179   1    107.8000    276.1440
    157    159    180   1    110.7000    313.8000
    157    159    181   1    110.7000    313.8000
    157    159    193   1    112.7000    488.2728
    180    159    181   1    107.8000    276.1440
    180    159    193   1    110.7000    313.8000
    181    159    193   1    110.7000    313.8000
    183    182    196   1    110.7000    313.8000
    183    182    197   1    110.7000    313.8000
    183    182    198   1    110.7000    313.8000
    196    182    197   1    107.8000    276.1440
    196    182    198   1    107.8000    276.1440
    197    182    198   1    107.8000    276.1440
    182    183    184   1    112.7000    488.2728
    182    183    199   1    110.7000    313.8000
    182    183    200   1    110.7000    313.8000
    184    183    199   1    110.7000    313.8000
    184    183    200   1    110.7000    313.8000
    199    183    200   1    107.8000    276.1440
    183    184    185   1    112.7000    488.2728
    183    184    201   1    110.7000    313.8000
    183    184    202   1    110.7000    313.8000
    185    184    201   1    110.7000    313.8000
    185    184    202   1    110.7000    313.8000
    201    184    202   1    107.8000    276.1440
    184    185    186   1    112.7000    488.2728
    184    185    203   1    110.7000    313.8000
    184    185    204   1    110.7000    313.8000
    186    185    203   1    110.7000    313.8000
    186    185    204   1    110.7000    313.8000
    203    185    204   1    107.8000    276.1440
    185    186    187   1    112.7000    488.2728
    185    186    205   1    110.7000    313.8000
    185    186    206   1    110.7000    313.8000
    187    186    205   1    110.7000    313.8000
    187    186    206   1    110.7000    313.8000
    205    186    206   1    107.8000    276.1440
    186    187    188   1    112.7000    488.2728
    186    187    207   1    110.7000    313.8000
    186    187    208   1    110.7000    313.8000
    188    187    207   1    110.7000    313.8000
    188    187    208   1    110.7000    313.8000
    207    187    208   1    107.8000    276.1440
    187    188    189   1    112.7000    488.2728
    187    188    209   1    110.7000    313.8000
    187    188    210   1    110.7000    313.8000
    189    188    209   1    110.7000    313.8000
    189    188    210   1    110.7000    313.8000
    209    188    210   1    107.8000    276.1440
    188    189    190   1    109.5000    418.4000
    188    189    211   1    110.7000    313.8000
    188    189    212   1    110.7000    313.8000
    190    189    211   1    109.5000    292.8800
    190    189    212   1    109.5000    292.8800
    211    189    212   1    107.8000    276.1440
    189    190    191   1    116.9000    694.5440
    190    191    192   1    123.4000    694.5440
    190    191    193   1    111.4000    677.8080
    192    191    193   1    120.4000    669.4400
    159    193    191   1    111.1000    527.1840
    159    193    194   1    112.7000    488.2728
    159    193    195   1    112.7000    488.2728
    191    193    194   1    111.1000    527.1840
    191    193    195   1    111.1000    527.1840
    194    193    195   1    112.7000    488.2728
    193    194    213   1    110.7000    313.8000
    193    194    214   1    110.7000    313.8000
    193    194    215   1    110.7000    313.8000
    213    194    214   1    107.8000    276.1440
    213    194    215   1    107.8000    276.1440
    214    194    215   1    107.8000    276.1440
    193    195    216   1    110.7000    313.8000
    193    195    217   1    110.7000    313.8000
    193    195    229   1    112.7000    488.2728
    216    195    217   1    107.8000    276.1440
    216    195    229   1    110.7000    313.8000
    217    195    229   1    110.7000    313.8000
    219    218    232   1    110.7000    313.8000
    219    218    233   1    110.7000    313.8000
    219    218    234   1    110.7000    313.8000
    232    218    233   1    107.8000    276.1440
    232    218    234   1    107.8000    276.1440
    233    218    234   1    107.8000    276.1440
    218    219    220   1    112.7000    488.2728
    218    219    235   1    110.7000    313.8000
    218    219    236   1    110.7000    313.8000
    220    219    235   1    110.7000    313.8000
    220    219    236   1    110.7000    313.8000
    235    219    236   1    107.8000    276.1440
    219    220    221   1    112.7000    488.2728
    219    220    237   1    110.7000    313.8000
    219    220    238   1    110.7000    313.8000
    221    220    237   1    110.7000    313.8000
    221    220    238   1    110.7000    313.8000
    237    220    238   1    107.8000    276.1440
    220    221    222   1    112.7000    488.2728
    220    221    239   1    110.7000    313.8000
    220    221    240   1    110.7000    313.8000
    222    221    239   1    110.7000    313.8000
    222    221    240   1    110.7000    313.8000
    239    221    240   1    107.8000    276.1440
    221    222    223   1    112.7000    488.2728
    221    222    241   1    110.7000    313.8000
    221    222    242   1    110.7000    313.8000
    223    222    241   1    110.7000    313.8000
    223    222    242   1    110.7000    313.8000
    241    222    242   1    107.8000    276.1440
    222    223    224   1    112.7000    488.2728
    222    223    243   1    110.7000    313.8000
    222    223    244   1    110.7000    313.8000
    224    223    243   1    110.7000    313.8000
    224    223    244   1    110.7000    313.8000
    243    223    244   1    107.8000    276.1440
    223    224    225   1    112.7000    488.2728
    223    224    245   1    110.7000    313.8000
    223    224    246   1    110.7000    313.8000
    225    224    245   1    110.7000    313.8000
    225    224    246   1    110.7000    313.8000
    245    224    246   1    107.8000    276.1440
    224    225    226   1    109.5000    418.4000
    224    225    247   1    110.7000    313.8000
    224    225    248   1    110.7000    313.8000
    226    225    247   1    109.5000    292.8800
    226    225    248   1    109.5000    292.8800
    247    225    248   1    107.8000    276.1440
    225    226    227   1    116.9000    694.5440
    226    227    228   1    123.4000    694.5440
    226    227    229   1    111.4000    677.8080
    228    227    229   1    120.4000    669.4400
    195    229    227   1    111.1000    527.1840
    195    229    230   1    112.7000    488.2728
    195    229    231   1    112.7000    488.2728
    227    229    230   1    111.1000    527.1840
    227    229    231   1    111.1000    527.1840
    230    229    231   1    112.7000    488.2728
    229    230    249   1    110.7000    313.8000
    229    230    250   1    110.7000    313.8000
    229    230    251   1    110.7000    313.8000
    249    230    250   1    107.8000    276.1440
    249    230    251   1    107.8000    276.1440
    250    230    251   1    107.8000    276.1440
    229    231    252   1    110.7000    313.8000
    229    231    253   1    110.7000    313.8000
    229    231    265   1    112.7000    488.2728
    252    231    253   1    107.8000    276.1440
    252    231    265   1    110.7000    313.8000
    253    231    265   1    110.7000    313.8000
    255    254    268   1    110.7000    313.8000
    255    254    269   1    110.7000    313.8000
    255    254    270   1    110.7000    313.8000
    268    254    269   1    107.8000    276.1440
    268    254    270   1    107.8000    276.1440
    269    254    270   1    107.8000    276.1440
    254    255    256   1    112.7000    488.2728
    254    255    271   1    110.7000    313.8000
    254    255    272   1    110.7000    313.8000
    256    255    271   1    110.7000    313.8000
    256    255    272   1    110.7000    313.8000
    271    255    272   1    107.8000    276.1440
    255    256    257   1    112.7000    488.2728
    255    256    273   1    110.7000    313.8000
    255    256    274   1    110.7000    313.8000
    257    256    273   1    110.7000    313.8000
    257    256    274   1    110.7000    313.8000
    273    256    274   1    107.8000    276.1440
    256    257    258   1    112.7000    488.2728
    256    257    275   1    110.7000    313.8000
    256    257    276   1    110.7000    313.8000
    258    257    275   1    110.7000    313.8000
    258    257    276   1    110.7000    313.8000
    275    257    276   1    107.8000    276.1440
    257    258    259   1    112.7000    488.2728
    257    258    277   1    110.7000    313.8000
    257    258    278   1    110.7000    313.8000
    259    258    277   1    110.7000    313.8000
    259    258    278   1    110.7000    313.8000
    277    258    278   1    107.8000    276.1440
    258    259    260   1    112.7000    488.2728
    258    259    279   1    110.7000    313.8000
    258    259    280   1    110.7000    313.8000
    260    259    279   1    110.7000    313.8000
    260    259    280   1    110.7000    313.8000
    279    259    280   1    107.8000    276.1440
    259    260    261   1    112.7000    488.2728
    259    260    281   1    110.7000    313.8000
    259    260    282   1    110.7000    313.8000
    261    260    281   1    110.7000    313.8000
    261    260    282   1    110.7000    313.8000
    281    260    282   1    107.8000    276.1440
    260    261    262   1    109.5000    418.4000
    260    261    283   1    110.7000    313.8000
    260    261    284   1    110.7000    313.8000
    262    261    283   1    109.5000    292.8800
    262    261    284   1    109.5000    292.8800
    283    261    284   1    107.8000    276.1440
    261    262    263   1    116.9000    694.5440
    262    263    264   1    123.4000    694.5440
    262    263    265   1    111.4000    677.8080
    264    263    265   1    120.4000    669.4400
    231    265    263   1    111.1000    527.1840
    231    265    266   1    112.7000    488.2728
    231    265    267   1    112.7000    488.2728
    263    265    266   1    111.1000    527.1840
    263    265    267   1    111.1000    527.1840
    266    265    267   1    112.7000    488.2728
    265    266    285   1    110.7000    313.8000
    265    266    286   1    110.7000    313.8000
    265    266    287   1    110.7000    313.8000
    285    266    286   1    107.8000    276.1440
    285    266    287   1    107.8000    276.1440
    286    266    287   1    107.8000    276.1440
    265    267    288   1    110.7000    313.8000
    265    267    289   1    110.7000    313.8000
    265    267    301   1    112.7000    488.2728
    288    267    289   1    107.8000    276.1440
    288    267    301   1    110.7000    313.8000
    289    267    301   1    110.7000    313.8000
    291    290    304   1    110.7000    313.8000
    291    290    305   1    110.7000    313.8000
    291    290    306   1    110.7000    313.8000
    304    290    305   1    107.8000    276.1440
    304    290    306   1    107.8000    276.1440
    305    290    306   1    107.8000    276.1440
    290    291    292   1    112.7000    488.2728
    290    291    307   1    110.7000    313.8000
    290    291    308   1    110.7000    313.8000
    292    291    307   1    110.7000    313.8000
    292    291    308   1    110.7000    313.8000
    307    291    308   1    107.8000    276.1440
    291    292    293   1    112.7000    488.2728
    291    292    309   1    110.7000    313.8000
    291    292    310   1    110.7000    313.8000
    293    292    309   1    110.7000    313.8000
    293    292    310   1    110.7000    313.8000
    309    292    310   1    107.8000    276.1440
    292    293    294   1    112.7000    488.2728
    292    293    311   1    110.7000    313.8000
    292    293    312   1    110.7000    313.8000
    294    293    311   1    110.7000    313.8000
    294    293    312   1    110.7000    313.8000
    311    293    312   1    107.8000    276.1440
    293    294    295   1    112.7000    488.2728
    293    294    313   1    110.7000    313.8000
    293    294    314   1    110.7000    313.8000
    295    294    313   1    110.7000    313.8000
    295    294    314   1    110.7000    313.8000
    313    294    314   1    107.8000    276.1440
    294    295    296   1    112.7000    488.2728
    294    295    315   1    110.7000    313.8000
    294    295    316   1    110.7000    313.8000
    296    295    315   1    110.7000    313.8000
    296    295    316   1    110.7000    313.8000
    315    295    316   1    107.8000    276.1440
    295    296    297   1    112.7000    488.2728
    295    296    317   1    110.7000    313.8000
    295    296    318   1    110.7000    313.8000
    297    296    317   1    110.7000    313.8000
    297    296    318   1    110.7000    313.8000
    317    296    318   1    107.8000    276.1440
    296    297    298   1    109.5000    418.4000
    296    297    319   1    110.7000    313.8000
    296    297    320   1    110.7000    313.8000
    298    297    319   1    109.5000    292.8800
    298    297    320   1    109.5000    292.8800
    319    297    320   1    107.8000    276.1440
    297    298    299   1    116.9000    694.5440
    298    299    300   1    123.4000    694.5440
    298    299    301   1    111.4000    677.8080
    300    299    301   1    120.4000    669.4400
    267    301    299   1    111.1000    527.1840
    267    301    302   1    112.7000    488.2728
    267    301    303   1    112.7000    488.2728
    299    301    302   1    111.1000    527.1840
    299    301    303   1    111.1000    527.1840
    302    301    303   1    112.7000    488.2728
    301    302    321   1    110.7000    313.8000
    301    302    322   1    110.7000    313.8000
    301    302    323   1    110.7000    313.8000
    321    302    322   1    107.8000    276.1440
    321    302    323   1    107.8000    276.1440
    322    302    323   1    107.8000    276.1440
    301    303    324   1    110.7000    313.8000
    301    303    325   1    110.7000    313.8000
    301    303    337   1    112.7000    488.2728
    324    303    325   1    107.8000    276.1440
    324    303    337   1    110.7000    313.8000
    325    303    337   1    110.7000    313.8000
    327    326    340   1    110.7000    313.8000
    327    326    341   1    110.7000    313.8000
    327    326    342   1    110.7000    313.8000
    340    326    341   1    107.8000    276.1440
    340    326    342   1    107.8000    276.1440
    341    326    342   1    107.8000    276.1440
    326    327    328   1    112.7000    488.2728
    326    327    343   1    110.7000    313.8000
    326    327    344   1    110.7000    313.8000
    328    327    343   1    110.7000    313.8000
    328    327    344   1    110.7000    313.8000
    343    327    344   1    107.8000    276.1440
    327    328    329   1    112.7000    488.2728
    327    328    345   1    110.7000    313.8000
    327    328    346   1    110.7000    313.8000
    329    328    345   1    110.7000    313.8000
    329    328    346   1    110.7000    313.8000
    345    328    346   1    107.8000    276.1440
    328    329    330   1    112.7000    488.2728
    328    329    347   1    110.7000    313.8000
    328    329    348   1    110.7000    313.8000
    330    329    347   1    110.7000    313.8000
    330    329    348   1    110.7000    313.8000
    347    329    348   1    107.8000    276.1440
    329    330    331   1    112.7000    488.2728
    329    330    349   1    110.7000    313.8000
    329    330    350   1    110.7000    313.8000
    331    330    349   1    110.7000    313.8000
    331    330    350   1    110.7000    313.8000
    349    330    350   1    107.8000    276.1440
    330    331    332   1    112.7000    488.2728
    330    331    351   1    110.7000    313.8000
    330    331    352   1    110.7000    313.8000
    332    331    351   1    110.7000    313.8000
    332    331    352   1    110.7000    313.8000
    351    331    352   1    107.8000    276.1440
    331    332    333   1    112.7000    488.2728
    331    332    353   1    110.7000    313.8000
    331    332    354   1    110.7000    313.8000
    333    332    353   1    110.7000    313.8000
    333    332    354   1    110.7000    313.8000
    353    332    354   1    107.8000    276.1440
    332    333    334   1    109.5000    418.4000
    332    333    355   1    110.7000    313.8000
    332    333    356   1    110.7000    313.8000
    334    333    355   1    109.5000    292.8800
    334    333    356   1    109.5000    292.8800
    355    333    356   1    107.8000    276.1440
    333    334    335   1    116.9000    694.5440
    334    335    336   1    123.4000    694.5440
    334    335    337   1    111.4000    677.8080
    336    335    337   1    120.4000    669.4400
    303    337    335   1    111.1000    527.1840
    303    337    338   1    112.7000    488.2728
    303    337    339   1    112.7000    488.2728
    335    337    338   1    111.1000    527.1840
    335    337    339   1    111.1000    527.1840
    338    337    339   1    112.7000    488.2728
    337    338    357   1    110.7000    313.8000
    337    338    358   1    110.7000    313.8000
    337    338    359   1    110.7000    313.8000
    357    338    358   1    107.8000    276.1440
    357    338    359   1    107.8000    276.1440
    358    338    359   1    107.8000    276.1440
    337    339    360   1    110.7000    313.8000
    337    339    361   1    110.7000    313.8000
    337    339    373   1    112.7000    488.2728
    360    339    361   1    107.8000    276.1440
    360    339    373   1    110.7000    313.8000
    361    339    373   1    110.7000    313.8000
    363    362    376   1    110.7000    313.8000
    363    362    377   1    110.7000    313.8000
    363    362    378   1    110.7000    313.8000
    376    362    377   1    107.8000    276.1440
    376    362    378   1    107.8000    276.1440
    377    362    378   1    107.8000    276.1440
    362    363    364   1    112.7000    488.2728
    362    363    379   1    110.7000    313.8000
    362    363    380   1    110.7000    313.8000
    364    363    379   1    110.7000    313.8000
    364    363    380   1    110.7000    313.8000
    379    363    380   1    107.8000    276.1440
    363    364    365   1    112.7000    488.2728
    363    364    381   1    110.7000    313.8000
    363    364    382   1    110.7000    313.8000
    365    364    381   1    110.7000    313.8000
    365    364    382   1    110.7000    313.8000
    381    364    382   1    107.8000    276.1440
    364    365    366   1    112.7000    488.2728
    364    365    383   1    110.7000    313.8000
    364    365    384   1    110.7000    313.8000
    366    365    383   1    110.7000    313.8000
    366    365    384   1    110.7000    313.8000
    383    365    384   1    107.8000    276.1440
    365    366    367   1    112.7000    488.2728
    365    366    385   1    110.7000    313.8000
    365    366    386   1    110.7000    313.8000
    367    366    385   1    110.7000    313.8000
    367    366    386   1    110.7000    313.8000
    385    366    386   1    107.8000    276.1440
    366    367    368   1    112.7000    488.2728
    366    367    387   1    110.7000    313.8000
    366    367    388   1    110.7000    313.8000
    368    367    387   1    110.7000    313.8000
    368    367    388   1    110.7000    313.8000
    387    367    388   1    107.8000    276.1440
    367    368    369   1    112.7000    488.2728
    367    368    389   1    110.7000    313.8000
    367    368    390   1    110.7000    313.8000
    369    368    389   1    110.7000    313.8000
    369    368    390   1    110.7000    313.8000
    389    368    390   1    107.8000    276.1440
    368    369    370   1    109.5000    418.4000
    368    369    391   1    110.7000    313.8000
    368    369    392   1    110.7000    313.8000
    370    369    391   1    109.5000    292.8800
    370    369    392   1    109.5000    292.8800
    391    369    392   1    107.8000    276.1440
    369    370    371   1    116.9000    694.5440
    370    371    372   1    123.4000    694.5440
    370    371    373   1    111.4000    677.8080
    372    371    373   1    120.4000    669.4400
    339    373    371   1    111.1000    527.1840
    339    373    374   1    112.7000    488.2728
    339    373    375   1    112.7000    488.2728
    371    373    374   1    111.1000    527.1840
    371    373    375   1    111.1000    527.1840
    374    373    375   1    112.7000    488.2728
    373    374    393   1    110.7000    313.8000
    373    374    394   1    110.7000    313.8000
    373    374    395   1    110.7000    313.8000
    393    374    394   1    107.8000    276.1440
    393    374    395   1    107.8000    276.1440
    394    374    395   1    107.8000    276.1440
    373    375    396   1    110.7000    313.8000
    373    375    397   1    110.7000    313.8000
    373    375    409   1    112.7000    488.2728
    396    375    397   1    107.8000    276.1440
    396    375    409   1    110.7000    313.8000
    397    375    409   1    110.7000    313.8000
    399    398    412   1    110.7000    313.8000
    399    398    413   1    110.7000    313.8000
    399    398    414   1    110.7000    313.8000
    412    398    413   1    107.8000    276.1440
    412    398    414   1    107.8000    276.1440
    413    398    414   1    107.8000    276.1440
    398    399    400   1    112.7000    488.2728
    398    399    415   1    110.7000    313.8000
    398    399    416   1    110.7000    313.8000
    400    399    415   1    110.7000    313.8000
    400    399    416   1    110.7000    313.8000
    415    399    416   1    107.8000    276.1440
    399    400    401   1    112.7000    488.2728
    399    400    417   1    110.7000    313.8000
    399    400    418   1    110.7000    313.8000
    401    400    417   1    110.7000    313.8000
    401    400    418   1    110.7000    313.8000
    417    400    418   1    107.8000    276.1440
    400    401    402   1    112.7000    488.2728
    400    401    419   1    110.7000    313.8000
    400    401    420   1    110.7000    313.8000
    402    401    419   1    110.7000    313.8000
    402    401    420   1    110.7000    313.8000
    419    401    420   1    107.8000    276.1440
    401    402    403   1    112.7000    488.2728
    401    402    421   1    110.7000    313.8000
    401    402    422   1    110.7000    313.8000
    403    402    421   1    110.7000    313.8000
    403    402    422   1    110.7000    313.8000
    421    402    422   1    107.8000    276.1440
    402    403    404   1    112.7000    488.2728
    402    403    423   1    110.7000    313.8000
    402    403    424   1    110.7000    313.8000
    404    403    423   1    110.7000    313.8000
    404    403    424   1    110.7000    313.8000
    423    403    424   1    107.8000    276.1440
    403    404    405   1    112.7000    488.2728
    403    404    425   1    110.7000    313.8000
    403    404    426   1    110.7000    313.8000
    405    404    425   1    110.7000    313.8000
    405    404    426   1    110.7000    313.8000
    425    404    426   1    107.8000    276.1440
    404    405    406   1    109.5000    418.4000
    404    405    427   1    110.7000    313.8000
    404    405    428   1    110.7000    313.8000
    406    405    427   1    109.5000    292.8800
    406    405    428   1    109.5000    292.8800
    427    405    428   1    107.8000    276.1440
    405    406    407   1    116.9000    694.5440
    406    407    408   1    123.4000    694.5440
    406    407    409   1    111.4000    677.8080
    408    407    409   1    120.4000    669.4400
    375    409    407   1    111.1000    527.1840
    375    409    410   1    112.7000    488.2728
    375    409    411   1    112.7000    488.2728
    407    409    410   1    111.1000    527.1840
    407    409    411   1    111.1000    527.1840
    410    409    411   1    112.7000    488.2728
    409    410    429   1    110.7000    313.8000
    409    410    430   1    110.7000    313.8000
    409    410    431   1    110.7000    313.8000
    429    410    430   1    107.8000    276.1440
    429    410    431   1    107.8000    276.1440
    430    410    431   1    107.8000    276.1440
    409    411    432   1    110.7000    313.8000
    409    411    433   1    110.7000    313.8000
    409    411    445   1    112.7000    488.2728
    432    411    433   1    107.8000    276.1440
    432    411    445   1    110.7000    313.8000
    433    411    445   1    110.7000    313.8000
    435    434    448   1    110.7000    313.8000
    435    434    449   1    110.7000    313.8000
    435    434    450   1    110.7000    313.8000
    448    434    449   1    107.8000    276.1440
    448    434    450   1    107.8000    276.1440
    449    434    450   1    107.8000    276.1440
    434    435    436   1    112.7000    488.2728
    434    435    451   1    110.7000    313.8000
    434    435    452   1    110.7000    313.8000
    436    435    451   1    110.7000    313.8000
    436    435    452   1    110.7000    313.8000
    451    435    452   1    107.8000    276.1440
    435    436    437   1    112.7000    488.2728
    435    436    453   1    110.7000    313.8000
    435    436    454   1    110.7000    313.8000
    437    436    453   1    110.7000    313.8000
    437    436    454   1    110.7000    313.8000
    453    436    454   1    107.8000    276.1440
    436    437    438   1    112.7000    488.2728
    436    437    455   1    110.7000    313.8000
    436    437    456   1    110.7000    313.8000
    438    437    455   1    110.7000    313.8000
    438    437    456   1    110.7000    313.8000
    455    437    456   1    107.8000    276.1440
    437    438    439   1    112.7000    488.2728
    437    438    457   1    110.7000    313.8000
    437    438    458   1    110.7000    313.8000
    439    438    457   1    110.7000    313.8000
    439    438    458   1    110.7000    313.8000
    457    438    458   1    107.8000    276.1440
    438    439    440   1    112.7000    488.2728
    438    439    459   1    110.7000    313.8000
    438    439    460   1    110.7000    313.8000
    440    439    459   1    110.7000    313.8000
    440    439    460   1    110.7000    313.8000
    459    439    460   1    107.8000    276.1440
    439    440    441   1    112.7000    488.2728
    439    440    461   1    110.7000    313.8000
    439    440    462   1    110.7000    313.8000
    441    440    461   1    110.7000    313.8000
    441    440    462   1    110.7000    313.8000
    461    440    462   1    107.8000    276.1440
    440    441    442   1    109.5000    418.4000
    440    441    463   1    110.7000    313.8000
    440    441    464   1    110.7000    313.8000
    442    441    463   1    109.5000    292.8800
    442    441    464   1    109.5000    292.8800
    463    441    464   1    107.8000    276.1440
    441    442    443   1    116.9000    694.5440
    442    443    444   1    123.4000    694.5440
    442    443    445   1    111.4000    677.8080
    444    443    445   1    120.4000    669.4400
    411    445    443   1    111.1000    527.1840
    411    445    446   1    112.7000    488.2728
    411    445    447   1    112.7000    488.2728
    443    445    446   1    111.1000    527.1840
    443    445    447   1    111.1000    527.1840
    446    445    447   1    112.7000    488.2728
    445    446    465   1    110.7000    313.8000
    445    446    466   1    110.7000    313.8000
    445    446    467   1    110.7000    313.8000
    465    446    466   1    107.8000    276.1440
    465    446    467   1    107.8000    276.1440
    466    446    467   1    107.8000    276.1440
    445    447    468   1    110.7000    313.8000
    445    447    469   1    110.7000    313.8000
    445    447    481   1    112.7000    488.2728
    468    447    469   1    107.8000    276.1440
    468    447    481   1    110.7000    313.8000
    469    447    481   1    110.7000    313.8000
    471    470    484   1    110.7000    313.8000
    471    470    485   1    110.7000    313.8000
    471    470    486   1    110.7000    313.8000
    484    470    485   1    107.8000    276.1440
    484    470    486   1    107.8000    276.1440
    485    470    486   1    107.8000    276.1440
    470    471    472   1    112.7000    488.2728
    470    471    487   1    110.7000    313.8000
    470    471    488   1    110.7000    313.8000
    472    471    487   1    110.7000    313.8000
    472    471    488   1    110.7000    313.8000
    487    471    488   1    107.8000    276.1440
    471    472    473   1    112.7000    488.2728
    471    472    489   1    110.7000    313.8000
    471    472    490   1    110.7000    313.8000
    473    472    489   1    110.7000    313.8000
    473    472    490   1    110.7000    313.8000
    489    472    490   1    107.8000    276.1440
    472    473    474   1    112.7000    488.2728
    472    473    491   1    110.7000    313.8000
    472    473    492   1    110.7000    313.8000
    474    473    491   1    110.7000    313.8000
    474    473    492   1    110.7000    313.8000
    491    473    492   1    107.8000    276.1440
    473    474    475   1    112.7000    488.2728
    473    474    493   1    110.7000    313.8000
    473    474    494   1    110.7000    313.8000
    475    474    493   1    110.7000    313.8000
    475    474    494   1    110.7000    313.8000
    493    474    494   1    107.8000    276.1440
    474    475    476   1    112.7000    488.2728
    474    475    495   1    110.7000    313.8000
    474    475    496   1    110.7000    313.8000
    476    475    495   1    110.7000    313.8000
    476    475    496   1    110.7000    313.8000
    495    475    496   1    107.8000    276.1440
    475    476    477   1    112.7000    488.2728
    475    476    497   1    110.7000    313.8000
    475    476    498   1    110.7000    313.8000
    477    476    497   1    110.7000    313.8000
    477    476    498   1    110.7000    313.8000
    497    476    498   1    107.8000    276.1440
    476    477    478   1    109.5000    418.4000
    476    477    499   1    110.7000    313.8000
    476    477    500   1    110.7000    313.8000
    478    477    499   1    109.5000    292.8800
    478    477    500   1    109.5000    292.8800
    499    477    500   1    107.8000    276.1440
    477    478    479   1    116.9000    694.5440
    478    479    480   1    123.4000    694.5440
    478    479    481   1    111.4000    677.8080
    480    479    481   1    120.4000    669.4400
    447    481    479   1    111.1000    527.1840
    447    481    482   1    112.7000    488.2728
    447    481    483   1    112.7000    488.2728
    479    481    482   1    111.1000    527.1840
    479    481    483   1    111.1000    527.1840
    482    481    483   1    112.7000    488.2728
    481    482    501   1    110.7000    313.8000
    481    482    502   1    110.7000    313.8000
    481    482    503   1    110.7000    313.8000
    501    482    502   1    107.8000    276.1440
    501    482    503   1    107.8000    276.1440
    502    482    503   1    107.8000    276.1440
    481    483    504   1    110.7000    313.8000
    481    483    505   1    110.7000    313.8000
    481    483    517   1    112.7000    488.2728
    504    483    505   1    107.8000    276.1440
    504    483    517   1    110.7000    313.8000
    505    483    517   1    110.7000    313.8000
    507    506    520   1    110.7000    313.8000
    507    506    521   1    110.7000    313.8000
    507    506    522   1    110.7000    313.8000
    520    506    521   1    107.8000    276.1440
    520    506    522   1    107.8000    276.1440
    521    506    522   1    107.8000    276.1440
    506    507    508   1    112.7000    488.2728
    506    507    523   1    110.7000    313.8000
    506    507    524   1    110.7000    313.8000
    508    507    523   1    110.7000    313.8000
    508    507    524   1    110.7000    313.8000
    523    507    524   1    107.8000    276.1440
    507    508    509   1    112.7000    488.2728
    507    508    525   1    110.7000    313.8000
    507    508    526   1    110.7000    313.8000
    509    508    525   1    110.7000    313.8000
    509    508    526   1    110.7000    313.8000
    525    508    526   1    107.8000    276.1440
    508    509    510   1    112.7000    488.2728
    508    509    527   1    110.7000    313.8000
    508    509    528   1    110.7000    313.8000
    510    509    527   1    110.7000    313.8000
    510    509    528   1    110.7000    313.8000
    527    509    528   1    107.8000    276.1440
    509    510    511   1    112.7000    488.2728
    509    510    529   1    110.7000    313.8000
    509    510    530   1    110.7000    313.8000
    511    510    529   1    110.7000    313.8000
    511    510    530   1    110.7000    313.8000
    529    510    530   1    107.8000    276.1440
    510    511    512   1    112.7000    488.2728
    510    511    531   1    110.7000    313.8000
    510    511    532   1    110.7000    313.8000
    512    511    531   1    110.7000    313.8000
    512    511    532   1    110.7000    313.8000
    531    511    532   1    107.8000    276.1440
    511    512    513   1    112.7000    488.2728
    511    512    533   1    110.7000    313.8000
    511    512    534   1    110.7000    313.8000
    513    512    533   1    110.7000    313.8000
    513    512    534   1    110.7000    313.8000
    533    512    534   1    107.8000    276.1440
    512    513    514   1    109.5000    418.4000
    512    513    535   1    110.7000    313.8000
    512    513    536   1    110.7000    313.8000
    514    513    535   1    109.5000    292.8800
    514    513    536   1    109.5000    292.8800
    535    513    536   1    107.8000    276.1440
    513    514    515   1    116.9000    694.5440
    514    515    516   1    123.4000    694.5440
    514    515    517   1    111.4000    677.8080
    516    515    517   1    120.4000    669.4400
    483    517    515   1    111.1000    527.1840
    483    517    518   1    112.7000    488.2728
    483    517    519   1    112.7000    488.2728
    515    517    518   1    111.1000    527.1840
    515    517    519   1    111.1000    527.1840
    518    517    519   1    112.7000    488.2728
    517    518    537   1    110.7000    313.8000
    517    518    538   1    110.7000    313.8000
    517    518    539   1    110.7000    313.8000
    537    518    538   1    107.8000    276.1440
    537    518    539   1    107.8000    276.1440
    538    518    539   1    107.8000    276.1440
    517    519    540   1    110.7000    313.8000
    517    519    541   1    110.7000    313.8000
    517    519    553   1    112.7000    488.2728
    540    519    541   1    107.8000    276.1440
    540    519    553   1    110.7000    313.8000
    541    519    553   1    110.7000    313.8000
    543    542    556   1    110.7000    313.8000
    543    542    557   1    110.7000    313.8000
    543    542    558   1    110.7000    313.8000
    556    542    557   1    107.8000    276.1440
    556    542    558   1    107.8000    276.1440
    557    542    558   1    107.8000    276.1440
    542    543    544   1    112.7000    488.2728
    542    543    559   1    110.7000    313.8000
    542    543    560   1    110.7000    313.8000
    544    543    559   1    110.7000    313.8000
    544    543    560   1    110.7000    313.8000
    559    543    560   1    107.8000    276.1440
    543    544    545   1    112.7000    488.2728
    543    544    561   1    110.7000    313.8000
    543    544    562   1    110.7000    313.8000
    545    544    561   1    110.7000    313.8000
    545    544    562   1    110.7000    313.8000
    561    544    562   1    107.8000    276.1440
    544    545    546   1    112.7000    488.2728
    544    545    563   1    110.7000    313.8000
    544    545    564   1    110.7000    313.8000
    546    545    563   1    110.7000    313.8000
    546    545    564   1    110.7000    313.8000
    563    545    564   1    107.8000    276.1440
    545    546    547   1    112.7000    488.2728
    545    546    565   1    110.7000    313.8000
    545    546    566   1    110.7000    313.8000
    547    546    565   1    110.7000    313.8000
    547    546    566   1    110.7000    313.8000
    565    546    566   1    107.8000    276.1440
    546    547    548   1    112.7000    488.2728
    546    547    567   1    110.7000    313.8000
    546    547    568   1    110.7000    313.8000
    548    547    567   1    110.7000    313.8000
    548    547    568   1    110.7000    313.8000
    567    547    568   1    107.8000    276.1440
    547    548    549   1    112.7000    488.2728
    547    548    569   1    110.7000    313.8000
    547    548    570   1    110.7000    313.8000
    549    548    569   1    110.7000    313.8000
    549    548    570   1    110.7000    313.8000
    569    548    570   1    107.8000    276.1440
    548    549    550   1    109.5000    418.4000
    548    549    571   1    110.7000    313.8000
    548    549    572   1    110.7000    313.8000
    550    549    571   1    109.5000    292.8800
    550    549    572   1    109.5000    292.8800
    571    549    572   1    107.8000    276.1440
    549    550    551   1    116.9000    694.5440
    550    551    552   1    123.4000    694.5440
    550    551    553   1    111.4000    677.8080
    552    551    553   1    120.4000    669.4400
    519    553    551   1    111.1000    527.1840
    519    553    554   1    112.7000    488.2728
    519    553    555   1    112.7000    488.2728
    551    553    554   1    111.1000    527.1840
    551    553    555   1    111.1000    527.1840
    554    553    555   1    112.7000    488.2728
    553    554    573   1    110.7000    313.8000
    553    554    574   1    110.7000    313.8000
    553    554    575   1    110.7000    313.8000
    573    554    574   1    107.8000    276.1440
    573    554    575   1    107.8000    276.1440
    574    554    575   1    107.8000    276.1440
    553    555    576   1    110.7000    313.8000
    553    555    577   1    110.7000    313.8000
    553    555    589   1    112.7000    488.2728
    576    555    577   1    107.8000    276.1440
    576    555    589   1    110.7000    313.8000
    577    555    589   1    110.7000    313.8000
    579    578    592   1    110.7000    313.8000
    579    578    593   1    110.7000    313.8000
    579    578    594   1    110.7000    313.8000
    592    578    593   1    107.8000    276.1440
    592    578    594   1    107.8000    276.1440
    593    578    594   1    107.8000    276.1440
    578    579    580   1    112.7000    488.2728
    578    579    595   1    110.7000    313.8000
    578    579    596   1    110.7000    313.8000
    580    579    595   1    110.7000    313.8000
    580    579    596   1    110.7000    313.8000
    595    579    596   1    107.8000    276.1440
    579    580    581   1    112.7000    488.2728
    579    580    597   1    110.7000    313.8000
    579    580    598   1    110.7000    313.8000
    581    580    597   1    110.7000    313.8000
    581    580    598   1    110.7000    313.8000
    597    580    598   1    107.8000    276.1440
    580    581    582   1    112.7000    488.2728
    580    581    599   1    110.7000    313.8000
    580    581    600   1    110.7000    313.8000
    582    581    599   1    110.7000    313.8000
    582    581    600   1    110.7000    313.8000
    599    581    600   1    107.8000    276.1440
    581    582    583   1    112.7000    488.2728
    581    582    601   1    110.7000    313.8000
    581    582    602   1    110.7000    313.8000
    583    582    601   1    110.7000    313.8000
    583    582    602   1    110.7000    313.8000
    601    582    602   1    107.8000    276.1440
    582    583    584   1    112.7000    488.2728
    582    583    603   1    110.7000    313.8000
    582    583    604   1    110.7000    313.8000
    584    583    603   1    110.7000    313.8000
    584    583    604   1    110.7000    313.8000
    603    583    604   1    107.8000    276.1440
    583    584    585   1    112.7000    488.2728
    583    584    605   1    110.7000    313.8000
    583    584    606   1    110.7000    313.8000
    585    584    605   1    110.7000    313.8000
    585    584    606   1    110.7000    313.8000
    605    584    606   1    107.8000    276.1440
    584    585    586   1    109.5000    418.4000
    584    585    607   1    110.7000    313.8000
    584    585    608   1    110.7000    313.8000
    586    585    607   1    109.5000    292.8800
    586    585    608   1    109.5000    292.8800
    607    585    608   1    107.8000    276.1440
    585    586    587   1    116.9000    694.5440
    586    587    588   1    123.4000    694.5440
    586    587    589   1    111.4000    677.8080
    588    587    589   1    120.4000    669.4400
    555    589    587   1    111.1000    527.1840
    555    589    590   1    112.7000    488.2728
    555    589    591   1    112.7000    488.2728
    587    589    590   1    111.1000    527.1840
    587    589    591   1    111.1000    527.1840
    590    589    591   1    112.7000    488.2728
    589    590    609   1    110.7000    313.8000
    589    590    610   1    110.7000    313.8000
    589    590    611   1    110.7000    313.8000
    609    590    610   1    107.8000    276.1440
    609    590    611   1    107.8000    276.1440
    610    590    611   1    107.8000    276.1440
    589    591    612   1    110.7000    313.8000
    589    591    613   1    110.7000    313.8000
    589    591    625   1    112.7000    488.2728
    612    591    613   1    107.8000    276.1440
    612    591    625   1    110.7000    313.8000
    613    591    625   1    110.7000    313.8000
    615    614    628   1    110.7000    313.8000
    615    614    629   1    110.7000    313.8000
    615    614    630   1    110.7000    313.8000
    628    614    629   1    107.8000    276.1440
    628    614    630   1    107.8000    276.1440
    629    614    630   1    107.8000    276.1440
    614    615    616   1    112.7000    488.2728
    614    615    631   1    110.7000    313.8000
    614    615    632   1    110.7000    313.8000
    616    615    631   1    110.7000    313.8000
    616    615    632   1    110.7000    313.8000
    631    615    632   1    107.8000    276.1440
    615    616    617   1    112.7000    488.2728
    615    616    633   1    110.7000    313.8000
    615    616    634   1    110.7000    313.8000
    617    616    633   1    110.7000    313.8000
    617    616    634   1    110.7000    313.8000
    633    616    634   1    107.8000    276.1440
    616    617    618   1    112.7000    488.2728
    616    617    635   1    110.7000    313.8000
    616    617    636   1    110.7000    313.8000
    618    617    635   1    110.7000    313.8000
    618    617    636   1    110.7000    313.8000
    635    617    636   1    107.8000    276.1440
    617    618    619   1    112.7000    488.2728
    617    618    637   1    110.7000    313.8000
    617    618    638   1    110.7000    313.8000
    619    618    637   1    110.7000    313.8000
    619    618    638   1    110.7000    313.8000
    637    618    638   1    107.8000    276.1440
    618    619    620   1    112.7000    488.2728
    618    619    639   1    110.7000    313.8000
    618    619    640   1    110.7000    313.8000
    620    619    639   1    110.7000    313.8000
    620    619    640   1    110.7000    313.8000
    639    619    640   1    107.8000    276.1440
    619    620    621   1    112.7000    488.2728
    619    620    641   1    110.7000    313.8000
    619    620    642   1    110.7000    313.8000
    621    620    641   1    110.7000    313.8000
    621    620    642   1    110.7000    313.8000
    641    620    642   1    107.8000    276.1440
    620    621    622   1    109.5000    418.4000
    620    621    643   1    110.7000    313.8000
    620    621    644   1    110.7000    313.8000
    622    621    643   1    109.5000    292.8800
    622    621    644   1    109.5000    292.8800
    643    621    644   1    107.8000    276.1440
    621    622    623   1    116.9000    694.5440
    622    623    624   1    123.4000    694.5440
    622    623    625   1    111.4000    677.8080
    624    623    625   1    120.4000    669.4400
    591    625    623   1    111.1000    527.1840
    591    625    626   1    112.7000    488.2728
    591    625    627   1    112.7000    488.2728
    623    625    626   1    111.1000    527.1840
    623    625    627   1    111.1000    527.1840
    626    625    627   1    112.7000    488.2728
    625    626    645   1    110.7000    313.8000
    625    626    646   1    110.7000    313.8000
    625    626    647   1    110.7000    313.8000
    645    626    646   1    107.8000    276.1440
    645    626    647   1    107.8000    276.1440
    646    626    647   1    107.8000    276.1440
    625    627    648   1    110.7000    313.8000
    625    627    649   1    110.7000    313.8000
    625    627    661   1    112.7000    488.2728
    648    627    649   1    107.8000    276.1440
    648    627    661   1    110.7000    313.8000
    649    627    661   1    110.7000    313.8000
    651    650    664   1    110.7000    313.8000
    651    650    665   1    110.7000    313.8000
    651    650    666   1    110.7000    313.8000
    664    650    665   1    107.8000    276.1440
    664    650    666   1    107.8000    276.1440
    665    650    666   1    107.8000    276.1440
    650    651    652   1    112.7000    488.2728
    650    651    667   1    110.7000    313.8000
    650    651    668   1    110.7000    313.8000
    652    651    667   1    110.7000    313.8000
    652    651    668   1    110.7000    313.8000
    667    651    668   1    107.8000    276.1440
    651    652    653   1    112.7000    488.2728
    651    652    669   1    110.7000    313.8000
    651    652    670   1    110.7000    313.8000
    653    652    669   1    110.7000    313.8000
    653    652    670   1    110.7000    313.8000
    669    652    670   1    107.8000    276.1440
    652    653    654   1    112.7000    488.2728
    652    653    671   1    110.7000    313.8000
    652    653    672   1    110.7000    313.8000
    654    653    671   1    110.7000    313.8000
    654    653    672   1    110.7000    313.8000
    671    653    672   1    107.8000    276.1440
    653    654    655   1    112.7000    488.2728
    653    654    673   1    110.7000    313.8000
    653    654    674   1    110.7000    313.8000
    655    654    673   1    110.7000    313.8000
    655    654    674   1    110.7000    313.8000
    673    654    674   1    107.8000    276.1440
    654    655    656   1    112.7000    488.2728
    654    655    675   1    110.7000    313.8000
    654    655    676   1    110.7000    313.8000
    656    655    675   1    110.7000    313.8000
    656    655    676   1    110.7000    313.8000
    675    655    676   1    107.8000    276.1440
    655    656    657   1    112.7000    488.2728
    655    656    677   1    110.7000    313.8000
    655    656    678   1    110.7000    313.8000
    657    656    677   1    110.7000    313.8000
    657    656    678   1    110.7000    313.8000
    677    656    678   1    107.8000    276.1440
    656    657    658   1    109.5000    418.4000
    656    657    679   1    110.7000    313.8000
    656    657    680   1    110.7000    313.8000
    658    657    679   1    109.5000    292.8800
    658    657    680   1    109.5000    292.8800
    679    657    680   1    107.8000    276.1440
    657    658    659   1    116.9000    694.5440
    658    659    660   1    123.4000    694.5440
    658    659    661   1    111.4000    677.8080
    660    659    661   1    120.4000    669.4400
    627    661    659   1    111.1000    527.1840
    627    661    662   1    112.7000    488.2728
    627    661    663   1    112.7000    488.2728
    659    661    662   1    111.1000    527.1840
    659    661    663   1    111.1000    527.1840
    662    661    663   1    112.7000    488.2728
    661    662    681   1    110.7000    313.8000
    661    662    682   1    110.7000    313.8000
    661    662    683   1    110.7000    313.8000
    681    662    682   1    107.8000    276.1440
    681    662    683   1    107.8000    276.1440
    682    662    683   1    107.8000    276.1440
    661    663    684   1    110.7000    313.8000
    661    663    685   1    110.7000    313.8000
    661    663    697   1    112.7000    488.2728
    684    663    685   1    107.8000    276.1440
    684    663    697   1    110.7000    313.8000
    685    663    697   1    110.7000    313.8000
    687    686    700   1    110.7000    313.8000
    687    686    701   1    110.7000    313.8000
    687    686    702   1    110.7000    313.8000
    700    686    701   1    107.8000    276.1440
    700    686    702   1    107.8000    276.1440
    701    686    702   1    107.8000    276.1440
    686    687    688   1    112.7000    488.2728
    686    687    703   1    110.7000    313.8000
    686    687    704   1    110.7000    313.8000
    688    687    703   1    110.7000    313.8000
    688    687    704   1    110.7000    313.8000
    703    687    704   1    107.8000    276.1440
    687    688    689   1    112.7000    488.2728
    687    688    705   1    110.7000    313.8000
    687    688    706   1    110.7000    313.8000
    689    688    705   1    110.7000    313.8000
    689    688    706   1    110.7000    313.8000
    705    688    706   1    107.8000    276.1440
    688    689    690   1    112.7000    488.2728
    688    689    707   1    110.7000    313.8000
    688    689    708   1    110.7000    313.8000
    690    689    707   1    110.7000    313.8000
    690    689    708   1    110.7000    313.8000
    707    689    708   1    107.8000    276.1440
    689    690    691   1    112.7000    488.2728
    689    690    709   1    110.7000    313.8000
    689    690    710   1    110.7000    313.8000
    691    690    709   1    110.7000    313.8000
    691    690    710   1    110.7000    313.8000
    709    690    710   1    107.8000    276.1440
    690    691    692   1    112.7000    488.2728
    690    691    711   1    110.7000    313.8000
    690    691    712   1    110.7000    313.8000
    692    691    711   1    110.7000    313.8000
    692    691    712   1    110.7000    313.8000
    711    691    712   1    107.8000    276.1440
    691    692    693   1    112.7000    488.2728
    691    692    713   1    110.7000    313.8000
    691    692    714   1    110.7000    313.8000
    693    692    713   1    110.7000    313.8000
    693    692    714   1    110.7000    313.8000
    713    692    714   1    107.8000    276.1440
    692    693    694   1    109.5000    418.4000
    692    693    715   1    110.7000    313.8000
    692    693    716   1    110.7000    313.8000
    694    693    715   1    109.5000    292.8800
    694    693    716   1    109.5000    292.8800
    715    693    716   1    107.8000    276.1440
    693    694    695   1    116.9000    694.5440
    694    695    696   1    123.4000    694.5440
    694    695    697   1    111.4000    677.8080
    696    695    697   1    120.4000    669.4400
    663    697    695   1    111.1000    527.1840
    663    697    698   1    112.7000    488.2728
    663    697    699   1    112.7000    488.2728
    695    697    698   1    111.1000    527.1840
    695    697    699   1    111.1000    527.1840
    698    697    699   1    112.7000    488.2728
    697    698    717   1    110.7000    313.8000
    697    698    718   1    110.7000    313.8000
    697    698    719   1    110.7000    313.8000
    717    698    718   1    107.8000    276.1440
    717    698    719   1    107.8000    276.1440
    718    698    719   1    107.8000    276.1440
    697    699    720   1    110.7000    313.8000
    697    699    721   1    110.7000    313.8000
    697    699    722   1    110.7000    313.8000
    720    699    721   1    107.8000    276.1440
    720    699    722   1    107.8000    276.1440
    721    699    722   1    107.8000    276.1440

[ dihedrals ]
; Proper dihedrals
     15      1      2      3   5     0.00000     0.00000     1.25520  0.0
     15      1      2     18   5     0.00000     0.00000     1.25520  0.0
     15      1      2     19   5     0.00000     0.00000     1.25520  0.0
     16      1      2      3   5     0.00000     0.00000     1.25520  0.0
     16      1      2     18   5     0.00000     0.00000     1.25520  0.0
     16      1      2     19   5     0.00000     0.00000     1.25520  0.0
     17      1      2      3   5     0.00000     0.00000     1.25520  0.0
     17      1      2     18   5     0.00000     0.00000     1.25520  0.0
     17      1      2     19   5     0.00000     0.00000     1.25520  0.0
      1      2      3      4   5     4.74884    -0.63178     1.67360  0.0
      1      2      3     20   5     0.00000     0.00000     1.25520  0.0
      1      2      3     21   5     0.00000     0.00000     1.25520  0.0
     18      2      3      4   5     0.00000     0.00000     1.25520  0.0
     18      2      3     20   5     0.00000     0.00000     1.25520  0.0
     18      2      3     21   5     0.00000     0.00000     1.25520  0.0
     19      2      3      4   5     0.00000     0.00000     1.25520  0.0
     19      2      3     20   5     0.00000     0.00000     1.25520  0.0
     19      2      3     21   5     0.00000     0.00000     1.25520  0.0
      2      3      4      5   5     4.74884    -0.63178     1.67360  0.0
      2      3      4     22   5     0.00000     0.00000     1.25520  0.0
      2      3      4     23   5     0.00000     0.00000     1.25520  0.0
     20      3      4      5   5     0.00000     0.00000     1.25520  0.0
     20      3      4     22   5     0.00000     0.00000     1.25520  0.0
     20      3      4     23   5     0.00000     0.00000     1.25520  0.0
     21      3      4      5   5     0.00000     0.00000     1.25520  0.0
     21      3      4     22   5     0.00000     0.00000     1.25520  0.0
     21      3      4     23   5     0.00000     0.00000     1.25520  0.0
      3      4      5      6   5     4.74884    -0.63178     1.67360  0.0
      3      4      5     24   5     0.00000     0.00000     1.25520  0.0
      3      4      5     25   5     0.00000     0.00000     1.25520  0.0
     22      4      5      6   5     0.00000     0.00000     1.25520  0.0
     22      4      5     24   5     0.00000     0.00000     1.25520  0.0
     22      4      5     25   5     0.00000     0.00000     1.25520  0.0
     23      4      5      6   5     0.00000     0.00000     1.25520  0.0
     23      4      5     24   5     0.00000     0.00000     1.25520  0.0
     23      4      5     25   5     0.00000     0.00000     1.25520  0.0
      4      5      6      7   5     4.74884    -0.63178     1.67360  0.0
      4      5      6     26   5     0.00000     0.00000     1.25520  0.0
      4      5      6     27   5     0.00000     0.00000     1.25520  0.0
     24      5      6      7   5     0.00000     0.00000     1.25520  0.0
     24      5      6     26   5     0.00000     0.00000     1.25520  0.0
     24      5      6     27   5     0.00000     0.00000     1.25520  0.0
     25      5      6      7   5     0.00000     0.00000     1.25520  0.0
     25      5      6     26   5     0.00000     0.00000     1.25520  0.0
     25      5      6     27   5     0.00000     0.00000     1.25520  0.0
      5      6      7      8   5     4.74884    -0.63178     1.67360  0.0
      5      6      7     28   5     0.00000     0.00000     1.25520  0.0
      5      6      7     29   5     0.00000     0.00000     1.25520  0.0
     26      6      7      8   5     0.00000     0.00000     1.25520  0.0
     26      6      7     28   5     0.00000     0.00000     1.25520  0.0
     26      6      7     29   5     0.00000     0.00000     1.25520  0.0
     27      6      7      8   5     0.00000     0.00000     1.25520  0.0
     27      6      7     28   5     0.00000     0.00000     1.25520  0.0
     27      6      7     29   5     0.00000     0.00000     1.25520  0.0
      6      7      8      9   5     5.25092    -2.58990     2.28446  0.0
      6      7      8     30   5     0.00000     0.00000     1.25520  0.0
      6      7      8     31   5     0.00000     0.00000     1.25520  0.0
     28      7      8      9   5     0.00000     0.00000     1.95811  0.0
     28      7      8     30   5     0.00000     0.00000     1.25520  0.0
     28      7      8     31   5     0.00000     0.00000     1.25520  0.0
     29      7      8      9   5     0.00000     0.00000     1.95811  0.0
     29      7      8     30   5     0.00000     0.00000     1.25520  0.0
     29      7      8     31   5     0.00000     0.00000     1.25520  0.0
      7      8      9     10   5    -2.16731    -3.93296     0.98324  0.0
     30      8      9     10   5     0.00000     0.00000     0.67362  0.0
     31      8      9     10   5     0.00000     0.00000     0.67362  0.0
      8      9     10     11   5     0.00000    25.10400     0.00000  0.0
      8      9     10     12   5    13.65239    24.43456     0.00000  0.0
      9     10     12     13   5     0.00000     0.00000     3.07524  0.0
      9     10     12     14   5     0.00000     0.00000     3.07524  0.0
      9     10     12     37   5     0.00000     0.00000     0.00000  0.0
     11     10     12     13   5     0.00000     2.52295     0.00000  0.0
     11     10     12     14   5     0.00000     2.52295     0.00000  0.0
     11     10     12     37   5     0.00000     0.00000     0.00000  0.0
     10     12     13     32   5     0.00000     0.00000    -0.94140  0.0
     10     12     13     33   5     0.00000     0.00000    -0.94140  0.0
     10     12     13     34   5     0.00000     0.00000    -0.94140  0.0
     14     12     13     32   5     0.00000     0.00000     1.25520  0.0
     14     12     13     33   5     0.00000     0.00000     1.25520  0.0
     14     12     13     34   5     0.00000     0.00000     1.25520  0.0
     37     12     13     32   5     0.00000     0.00000     1.25520  0.0
     37     12     13     33   5     0.00000     0.00000     1.25520  0.0
     37     12     13     34   5     0.00000     0.00000     1.25520  0.0
     10     12     14     35   5     0.00000     0.00000    -0.94140  0.0
     10     12     14     36   5     0.00000     0.00000    -0.94140  0.0
     10     12     14     49   5    -8.00818    -1.52298     2.46438  0.0
     13     12     14     35   5     0.00000     0.00000     1.25520  0.0
     13     12     14     36   5     0.00000     0.00000     1.25520  0.0
     13     12     14     49   5     4.74884    -0.63178     1.67360  0.0
     37     12     14     35   5     0.00000     0.00000     1.25520  0.0
     37     12     14     36   5     0.00000     0.00000     1.25520  0.0
     37     12     14     49   5     0.00000     0.00000     1.25520  0.0
     12     14     49     47   5    -8.00818    -1.52298     2.46438  0.0
     12     14     49     50   5     4.74884    -0.63178     1.67360  0.0
     12     14     49     51   5     4.74884    -0.63178     1.67360  0.0
     35     14     49     47   5     0.00000     0.00000    -0.94140  0.0
     35     14     49     50   5     0.00000     0.00000     1.25520  0.0
     35     14     49     51   5     0.00000     0.00000     1.25520  0.0
     36     14     49     47   5     0.00000     0.00000    -0.94140  0.0
     36     14     49     50   5     0.00000     0.00000     1.25520  0.0
     36     14     49     51   5     0.00000     0.00000     1.25520  0.0
     52     38     39     40   5     0.00000     0.00000     1.25520  0.0
     52     38     39     55   5     0.00000     0.00000     1.25520  0.0
     52     38     39     56   5     0.00000     0.00000     1.25520  0.0
     53     38     39     40   5     0.00000     0.00000     1.25520  0.0
     53     38     39     55   5     0.00000     0.00000     1.25520  0.0
     53     38     39     56   5     0.00000     0.00000     1.25520  0.0
     54     38     39     40   5     0.00000     0.00000     1.25520  0.0
     54     38     39     55   5     0.00000     0.00000     1.25520  0.0
     54     38     39     56   5     0.00000     0.00000     1.25520  0.0
     38     39     40     41   5     4.74884    -0.63178     1.67360  0.0
     38     39     40     57   5     0.00000     0.00000     1.25520  0.0
     38     39     40     58   5     0.00000     0.00000     1.25520  0.0
     55     39     40     41   5     0.00000     0.00000     1.25520  0.0
     55     39     40     57   5     0.00000     0.00000     1.25520  0.0
     55     39     40     58   5     0.00000     0.00000     1.25520  0.0
     56     39     40     41   5     0.00000     0.00000     1.25520  0.0
     56     39     40     57   5     0.00000     0.00000     1.25520  0.0
     56     39     40     58   5     0.00000     0.00000     1.25520  0.0
     39     40     41     42   5     4.74884    -0.63178     1.67360  0.0
     39     40     41     59   5     0.00000     0.00000     1.25520  0.0
     39     40     41     60   5     0.00000     0.00000     1.25520  0.0
     57     40     41     42   5     0.00000     0.00000     1.25520  0.0
     57     40     41     59   5     0.00000     0.00000     1.25520  0.0
     57     40     41     60   5     0.00000     0.00000     1.25520  0.0
     58     40     41     42   5     0.00000     0.00000     1.25520  0.0
     58     40     41     59   5     0.00000     0.00000     1.25520  0.0
     58     40     41     60   5     0.00000     0.00000     1.25520  0.0
     40     41     42     43   5     4.74884    -0.63178     1.67360  0.0
     40     41     42     61   5     0.00000     0.00000     1.25520  0.0
     40     41     42     62   5     0.00000     0.00000     1.25520  0.0
     59     41     42     43   5     0.00000     0.00000     1.25520  0.0
     59     41     42     61   5     0.00000     0.00000     1.25520  0.0
     59     41     42     62   5     0.00000     0.00000     1.25520  0.0
     60     41     42     43   5     0.00000     0.00000     1.25520  0.0
     60     41     42     61   5     0.00000     0.00000     1.25520  0.0
     60     41     42     62   5     0.00000     0.00000     1.25520  0.0
     41     42     43     44   5     4.74884    -0.63178     1.67360  0.0
     41     42     43     63   5     0.00000     0.00000     1.25520  0.0
     41     42     43     64   5     0.00000     0.00000     1.25520  0.0
     61     42     43     44   5     0.00000     0.00000     1.25520  0.0
     61     42     43     63   5     0.00000     0.00000     1.25520  0.0
     61     42     43     64   5     0.00000     0.00000     1.25520  0.0
     62     42     43     44   5     0.00000     0.00000     1.25520  0.0
     62     42     43     63   5     0.00000     0.00000     1.25520  0.0
     62     42     43     64   5     0.00000     0.00000     1.25520  0.0
     42     43     44     45   5     4.74884    -0.63178     1.67360  0.0
     42     43     44     65   5     0.00000     0.00000     1.25520  0.0
     42     43     44     66   5     0.00000     0.00000     1.25520  0.0
     63     43     44     45   5     0.00000     0.00000     1.25520  0.0
     63     43     44     65   5     0.00000     0.00000     1.25520  0.0
     63     43     44     66   5     0.00000     0.00000     1.25520  0.0
     64     43     44     45   5     0.00000     0.00000     1.25520  0.0
     64     43     44     65   5     0.00000     0.00000     1.25520  0.0
     64     43     44     66   5     0.00000     0.00000     1.25520  0.0
     43     44     45     46   5     5.25092    -2.58990     2.28446  0.0
     43     44     45     67   5     0.00000     0.00000     1.25520  0.0
     43     44     45     68   5     0.00000     0.00000     1.25520  0.0
     65     44     45     46   5     0.00000     0.00000     1.95811  0.0
     65     44     45     67   5     0.00000     0.00000     1.25520  0.0
     65     44     45     68   5     0.00000     0.00000     1.25520  0.0
     66     44     45     46   5     0.00000     0.00000     1.95811  0.0
     66     44     45     67   5     0.00000     0.00000     1.25520  0.0
     66     44     45     68   5     0.00000     0.00000     1.25520  0.0
     44     45     46     47   5    -2.16731    -3.93296     0.98324  0.0
     67     45     46     47   5     0.00000     0.00000     0.67362  0.0
     68     45     46     47   5     0.00000     0.00000     0.67362  0.0
     45     46     47     48   5     0.00000    25.10400     0.00000  0.0
     45     46     47     49   5    13.65239    24.43456     0.00000  0.0
     46     47     49     14   5     0.00000     0.00000     3.07524  0.0
     46     47     49     50   5     0.00000     0.00000     3.07524  0.0
     46     47     49     51   5     0.00000     0.00000     3.07524  0.0
     48     47     49     14   5     0.00000     2.52295     0.00000  0.0
     48     47     49     50   5     0.00000     2.52295     0.00000  0.0
     48     47     49     51   5     0.00000     2.52295     0.00000  0.0
     14     49     50     69   5     0.00000     0.00000     1.25520  0.0
     14     49     50     70   5     0.00000     0.00000     1.25520  0.0
     14     49     50     71   5     0.00000     0.00000     1.25520  0.0
     47     49     50     69   5     0.00000     0.00000    -0.94140  0.0
     47     49     50     70   5     0.00000     0.00000    -0.94140  0.0
     47     49     50     71   5     0.00000     0.00000    -0.94140  0.0
     51     49     50     69   5     0.00000     0.00000     1.25520  0.0
     51     49     50     70   5     0.00000     0.00000     1.25520  0.0
     51     49     50     71   5     0.00000     0.00000     1.25520  0.0
     14     49     51     72   5     0.00000     0.00000     1.25520  0.0
     14     49     51     73   5     0.00000     0.00000     1.25520  0.0
     14     49     51     85   5     4.74884    -0.63178     1.67360  0.0
     47     49     51     72   5     0.00000     0.00000    -0.94140  0.0
     47     49     51     73   5     0.00000     0.00000    -0.94140  0.0
     47     49     51     85   5    -8.00818    -1.52298     2.46438  0.0
     50     49     51     72   5     0.00000     0.00000     1.25520  0.0
     50     49     51     73   5     0.00000     0.00000     1.25520  0.0
     50     49     51     85   5     4.74884    -0.63178     1.67360  0.0
     49     51     85     83   5    -8.00818    -1.52298     2.46438  0.0
     49     51     85     86   5     4.74884    -0.63178     1.67360  0.0
     49     51     85     87   5     4.74884    -0.63178     1.67360  0.0
     72     51     85     83   5     0.00000     0.00000    -0.94140  0.0
     72     51     85     86   5     0.00000     0.00000     1.25520  0.0
     72     51     85     87   5     0.00000     0.00000     1.25520  0.0
     73     51     85     83   5     0.00000     0.00000    -0.94140  0.0
     73     51     85     86   5     0.00000     0.00000     1.25520  0.0
     73     51     85     87   5     0.00000     0.00000     1.25520  0.0
     88     74     75     76   5     0.00000     0.00000     1.25520  0.0
     88     74     75     91   5     0.00000     0.00000     1.25520  0.0
     88     74     75     92   5     0.00000     0.00000     1.25520  0.0
     89     74     75     76   5     0.00000     0.00000     1.25520  0.0
     89     74     75     91   5     0.00000     0.00000     1.25520  0.0
     89     74     75     92   5     0.00000     0.00000     1.25520  0.0
     90     74     75     76   5     0.00000     0.00000     1.25520  0.0
     90     74     75     91   5     0.00000     0.00000     1.25520  0.0
     90     74     75     92   5     0.00000     0.00000     1.25520  0.0
     74     75     76     77   5     4.74884    -0.63178     1.67360  0.0
     74     75     76     93   5     0.00000     0.00000     1.25520  0.0
     74     75     76     94   5     0.00000     0.00000     1.25520  0.0
     91     75     76     77   5     0.00000     0.00000     1.25520  0.0
     91     75     76     93   5     0.00000     0.00000     1.25520  0.0
     91     75     76     94   5     0.00000     0.00000     1.25520  0.0
     92     75     76     77   5     0.00000     0.00000     1.25520  0.0
     92     75     76     93   5     0.00000     0.00000     1.25520  0.0
     92     75     76     94   5     0.00000     0.00000     1.25520  0.0
     75     76     77     78   5     4.74884    -0.63178     1.67360  0.0
     75     76     77     95   5     0.00000     0.00000     1.25520  0.0
     75     76     77     96   5     0.00000     0.00000     1.25520  0.0
     93     76     77     78   5     0.00000     0.00000     1.25520  0.0
     93     76     77     95   5     0.00000     0.00000     1.25520  0.0
     93     76     77     96   5     0.00000     0.00000     1.25520  0.0
     94     76     77     78   5     0.00000     0.00000     1.25520  0.0
     94     76     77     95   5     0.00000     0.00000     1.25520  0.0
     94     76     77     96   5     0.00000     0.00000     1.25520  0.0
     76     77     78     79   5     4.74884    -0.63178     1.67360  0.0
     76     77     78     97   5     0.00000     0.00000     1.25520  0.0
     76     77     78     98   5     0.00000     0.00000     1.25520  0.0
     95     77     78     79   5     0.00000     0.00000     1.25520  0.0
     95     77     78     97   5     0.00000     0.00000     1.25520  0.0
     95     77     78     98   5     0.00000     0.00000     1.25520  0.0
     96     77     78     79   5     0.00000     0.00000     1.25520  0.0
     96     77     78     97   5     0.00000     0.00000     1.25520  0.0
     96     77     78     98   5     0.00000     0.00000     1.25520  0.0
     77     78     79     80   5     4.74884    -0.63178     1.67360  0.0
     77     78     79     99   5     0.00000     0.00000     1.25520  0.0
     77     78     79    100   5     0.00000     0.00000     1.25520  0.0
     97     78     79     80   5     0.00000     0.00000     1.25520  0.0
     97     78     79     99   5     0.00000     0.00000     1.25520  0.0
     97     78     79    100   5     0.00000     0.00000     1.25520  0.0
     98     78     79     80   5     0.00000     0.00000     1.25520  0.0
     98     78     79     99   5     0.00000     0.00000     1.25520  0.0
     98     78     79    100   5     0.00000     0.00000     1.25520  0.0
     78     79     80     81   5     4.74884    -0.63178     1.67360  0.0
     78     79     80    101   5     0.00000     0.00000     1.25520  0.0
     78     79     80    102   5     0.00000     0.00000     1.25520  0.0
     99     79     80     81   5     0.00000     0.00000     1.25520  0.0
     99     79     80    101   5     0.00000     0.00000     1.25520  0.0
     99     79     80    102   5     0.00000     0.00000     1.25520  0.0
    100     79     80     81   5     0.00000     0.00000     1.25520  0.0
    100     79     80    101   5     0.00000     0.00000     1.25520  0.0
    100     79     80    102   5     0.00000     0.00000     1.25520  0.0
     79     80     81     82   5     5.25092    -2.58990     2.28446  0.0
     79     80     81    103   5     0.00000     0.00000     1.25520  0.0
     79     80     81    104   5     0.00000     0.00000     1.25520  0.0
    101     80     81     82   5     0.00000     0.00000     1.95811  0.0
    101     80     81    103   5     0.00000     0.00000     1.25520  0.0
    101     80     81    104   5     0.00000     0.00000     1.25520  0.0
    102     80     81     82   5     0.00000     0.00000     1.95811  0.0
    102     80     81    103   5     0.00000     0.00000     1.25520  0.0
    102     80     81    104   5     0.00000     0.00000     1.25520  0.0
     80     81     82     83   5    -2.16731    -3.93296     0.98324  0.0
    103     81     82     83   5     0.00000     0.00000     0.67362  0.0
    104     81     82     83   5     0.00000     0.00000     0.67362  0.0
     81     82     83     84   5     0.00000    25.10400     0.00000  0.0
     81     82     83     85   5    13.65239    24.43456     0.00000  0.0
     82     83     85     51   5     0.00000     0.00000     3.07524  0.0
     82     83     85     86   5     0.00000     0.00000     3.07524  0.0
     82     83     85     87   5     0.00000     0.00000     3.07524  0.0
     84     83     85     51   5     0.00000     2.52295     0.00000  0.0
     84     83     85     86   5     0.00000     2.52295     0.00000  0.0
     84     83     85     87   5     0.00000     2.52295     0.00000  0.0
     51     85     86    105   5     0.00000     0.00000     1.25520  0.0
     51     85     86    106   5     0.00000     0.00000     1.25520  0.0
     51     85     86    107   5     0.00000     0.00000     1.25520  0.0
     83     85     86    105   5     0.00000     0.00000    -0.94140  0.0
     83     85     86    106   5     0.00000     0.00000    -0.94140  0.0
     83     85     86    107   5     0.00000     0.00000    -0.94140  0.0
     87     85     86    105   5     0.00000     0.00000     1.25520  0.0
     87     85     86    106   5     0.00000     0.00000     1.25520  0.0
     87     85     86    107   5     0.00000     0.00000     1.25520  0.0
     51     85     87    108   5     0.00000     0.00000     1.25520  0.0
     51     85     87    109   5     0.00000     0.00000     1.25520  0.0
     51     85     87    121   5     4.74884    -0.63178     1.67360  0.0
     83     85     87    108   5     0.00000     0.00000    -0.94140  0.0
     83     85     87    109   5     0.00000     0.00000    -0.94140  0.0
     83     85     87    121   5    -8.00818    -1.52298     2.46438  0.0
     86     85     87    108   5     0.00000     0.00000     1.25520  0.0
     86     85     87    109   5     0.00000     0.00000     1.25520  0.0
     86     85     87    121   5     4.74884    -0.63178     1.67360  0.0
     85     87    121    119   5    -8.00818    -1.52298     2.46438  0.0
     85     87    121    122   5     4.74884    -0.63178     1.67360  0.0
     85     87    121    123   5     4.74884    -0.63178     1.67360  0.0
    108     87    121    119   5     0.00000     0.00000    -0.94140  0.0
    108     87    121    122   5     0.00000     0.00000     1.25520  0.0
    108     87    121    123   5     0.00000     0.00000     1.25520  0.0
    109     87    121    119   5     0.00000     0.00000    -0.94140  0.0
    109     87    121    122   5     0.00000     0.00000     1.25520  0.0
    109     87    121    123   5     0.00000     0.00000     1.25520  0.0
    124    110    111    112   5     0.00000     0.00000     1.25520  0.0
    124    110    111    127   5     0.00000     0.00000     1.25520  0.0
    124    110    111    128   5     0.00000     0.00000     1.25520  0.0
    125    110    111    112   5     0.00000     0.00000     1.25520  0.0
    125    110    111    127   5     0.00000     0.00000     1.25520  0.0
    125    110    111    128   5     0.00000     0.00000     1.25520  0.0
    126    110    111    112   5     0.00000     0.00000     1.25520  0.0
    126    110    111    127   5     0.00000     0.00000     1.25520  0.0
    126    110    111    128   5     0.00000     0.00000     1.25520  0.0
    110    111    112    113   5     4.74884    -0.63178     1.67360  0.0
    110    111    112    129   5     0.00000     0.00000     1.25520  0.0
    110    111    112    130   5     0.00000     0.00000     1.25520  0.0
    127    111    112    113   5     0.00000     0.00000     1.25520  0.0
    127    111    112    129   5     0.00000     0.00000     1.25520  0.0
    127    111    112    130   5     0.00000     0.00000     1.25520  0.0
    128    111    112    113   5     0.00000     0.00000     1.25520  0.0
    128    111    112    129   5     0.00000     0.00000     1.25520  0.0
    128    111    112    130   5     0.00000     0.00000     1.25520  0.0
    111    112    113    114   5     4.74884    -0.63178     1.67360  0.0
    111    112    113    131   5     0.00000     0.00000     1.25520  0.0
    111    112    113    132   5     0.00000     0.00000     1.25520  0.0
    129    112    113    114   5     0.00000     0.00000     1.25520  0.0
    129    112    113    131   5     0.00000     0.00000     1.25520  0.0
    129    112    113    132   5     0.00000     0.00000     1.25520  0.0
    130    112    113    114   5     0.00000     0.00000     1.25520  0.0
    130    112    113    131   5     0.00000     0.00000     1.25520  0.0
    130    112    113    132   5     0.00000     0.00000     1.25520  0.0
    112    113    114    115   5     4.74884    -0.63178     1.67360  0.0
    112    113    114    133   5     0.00000     0.00000     1.25520  0.0
    112    113    114    134   5     0.00000     0.00000     1.25520  0.0
    131    113    114    115   5     0.00000     0.00000     1.25520  0.0
    131    113    114    133   5     0.00000     0.00000     1.25520  0.0
    131    113    114    134   5     0.00000     0.00000     1.25520  0.0
    132    113    114    115   5     0.00000     0.00000     1.25520  0.0
    132    113    114    133   5     0.00000     0.00000     1.25520  0.0
    132    113    114    134   5     0.00000     0.00000     1.25520  0.0
    113    114    115    116   5     4.74884    -0.63178     1.67360  0.0
    113    114    115    135   5     0.00000     0.00000     1.25520  0.0
    113    114    115    136   5     0.00000     0.00000     1.25520  0.0
    133    114    115    116   5     0.00000     0.00000     1.25520  0.0
    133    114    115    135   5     0.00000     0.00000     1.25520  0.0
    133    114    115    136   5     0.00000     0.00000     1.25520  0.0
    134    114    115    116   5     0.00000     0.00000     1.25520  0.0
    134    114    115    135   5     0.00000     0.00000     1.25520  0.0
    134    114    115    136   5     0.00000     0.00000     1.25520  0.0
    114    115    116    117   5     4.74884    -0.63178     1.67360  0.0
    114    115    116    137   5     0.00000     0.00000     1.25520  0.0
    114    115    116    138   5     0.00000     0.00000     1.25520  0.0
    135    115    116    117   5     0.00000     0.00000     1.25520  0.0
    135    115    116    137   5     0.00000     0.00000     1.25520  0.0
    135    115    116    138   5     0.00000     0.00000     1.25520  0.0
    136    115    116    117   5     0.00000     0.00000     1.25520  0.0
    136    115    116    137   5     0.00000     0.00000     1.25520  0.0
    136    115    116    138   5     0.00000     0.00000     1.25520  0.0
    115    116    117    118   5     5.25092    -2.58990     2.28446  0.0
    115    116    117    139   5     0.00000     0.00000     1.25520  0.0
    115    116    117    140   5     0.00000     0.00000     1.25520  0.0
    137    116    117    118   5     0.00000     0.00000     1.95811  0.0
    137    116    117    139   5     0.00000     0.00000     1.25520  0.0
    137    116    117    140   5     0.00000     0.00000     1.25520  0.0
    138    116    117    118   5     0.00000     0.00000     1.95811  0.0
    138    116    117    139   5     0.00000     0.00000     1.25520  0.0
    138    116    117    140   5     0.00000     0.00000     1.25520  0.0
    116    117    118    119   5    -2.16731    -3.93296     0.98324  0.0
    139    117    118    119   5     0.00000     0.00000     0.67362  0.0
    140    117    118    119   5     0.00000     0.00000     0.67362  0.0
    117    118    119    120   5     0.00000    25.10400     0.00000  0.0
    117    118    119    121   5    13.65239    24.43456     0.00000  0.0
    118    119    121     87   5     0.00000     0.00000     3.07524  0.0
    118    119    121    122   5     0.00000     0.00000     3.07524  0.0
    118    119    121    123   5     0.00000     0.00000     3.07524  0.0
    120    119    121     87   5     0.00000     2.52295     0.00000  0.0
    120    119    121    122   5     0.00000     2.52295     0.00000  0.0
    120    119    121    123   5     0.00000     2.52295     0.00000  0.0
     87    121    122    141   5     0.00000     0.00000     1.25520  0.0
     87    121    122    142   5     0.00000     0.00000     1.25520  0.0
     87    121    122    143   5     0.00000     0.00000     1.25520  0.0
    119    121    122    141   5     0.00000     0.00000    -0.94140  0.0
    119    121    122    142   5     0.00000     0.00000    -0.94140  0.0
    119    121    122    143   5     0.00000     0.00000    -0.94140  0.0
    123    121    122    141   5     0.00000     0.00000     1.25520  0.0
    123    121    122    142   5     0.00000     0.00000     1.25520  0.0
    123    121    122    143   5     0.00000     0.00000     1.25520  0.0
     87    121    123    144   5     0.00000     0.00000     1.25520  0.0
     87    121    123    145   5     0.00000     0.00000     1.25520  0.0
     87    121    123    157   5     4.74884    -0.63178     1.67360  0.0
    119    121    123    144   5     0.00000     0.00000    -0.94140  0.0
    119    121    123    145   5     0.00000     0.00000    -0.94140  0.0
    119    121    123    157   5    -8.00818    -1.52298     2.46438  0.0
    122    121    123    144   5     0.00000     0.00000     1.25520  0.0
    122    121    123    145   5     0.00000     0.00000     1.25520  0.0
    122    121    123    157   5     4.74884    -0.63178     1.67360  0.0
    121    123    157    155   5    -8.00818    -1.52298     2.46438  0.0
    121    123    157    158   5     4.74884    -0.63178     1.67360  0.0
    121    123    157    159   5     4.74884    -0.63178     1.67360  0.0
    144    123    157    155   5     0.00000     0.00000    -0.94140  0.0
    144    123    157    158   5     0.00000     0.00000     1.25520  0.0
    144    123    157    159   5     0.00000     0.00000     1.25520  0.0
    145    123    157    155   5     0.00000     0.00000    -0.94140  0.0
    145    123    157    158   5     0.00000     0.00000     1.25520  0.0
    145    123    157    159   5     0.00000     0.00000     1.25520  0.0
    160    146    147    148   5     0.00000     0.00000     1.25520  0.0
    160    146    147    163   5     0.00000     0.00000     1.25520  0.0
    160    146    147    164   5     0.00000     0.00000     1.25520  0.0
    161    146    147    148   5     0.00000     0.00000     1.25520  0.0
    161    146    147    163   5     0.00000     0.00000     1.25520  0.0
    161    146    147    164   5     0.00000     0.00000     1.25520  0.0
    162    146    147    148   5     0.00000     0.00000     1.25520  0.0
    162    146    147    163   5     0.00000     0.00000     1.25520  0.0
    162    146    147    164   5     0.00000     0.00000     1.25520  0.0
    146    147    148    149   5     4.74884    -0.63178     1.67360  0.0
    146    147    148    165   5     0.00000     0.00000     1.25520  0.0
    146    147    148    166   5     0.00000     0.00000     1.25520  0.0
    163    147    148    149   5     0.00000     0.00000     1.25520  0.0
    163    147    148    165   5     0.00000     0.00000     1.25520  0.0
    163    147    148    166   5     0.00000     0.00000     1.25520  0.0
    164    147    148    149   5     0.00000     0.00000     1.25520  0.0
    164    147    148    165   5     0.00000     0.00000     1.25520  0.0
    164    147    148    166   5     0.00000     0.00000     1.25520  0.0
    147    148    149    150   5     4.74884    -0.63178     1.67360  0.0
    147    148    149    167   5     0.00000     0.00000     1.25520  0.0
    147    148    149    168   5     0.00000     0.00000     1.25520  0.0
    165    148    149    150   5     0.00000     0.00000     1.25520  0.0
    165    148    149    167   5     0.00000     0.00000     1.25520  0.0
    165    148    149    168   5     0.00000     0.00000     1.25520  0.0
    166    148    149    150   5     0.00000     0.00000     1.25520  0.0
    166    148    149    167   5     0.00000     0.00000     1.25520  0.0
    166    148    149    168   5     0.00000     0.00000     1.25520  0.0
    148    149    150    151   5     4.74884    -0.63178     1.67360  0.0
    148    149    150    169   5     0.00000     0.00000     1.25520  0.0
    148    149    150    170   5     0.00000     0.00000     1.25520  0.0
    167    149    150    151   5     0.00000     0.00000     1.25520  0.0
    167    149    150    169   5     0.00000     0.00000     1.25520  0.0
    167    149    150    170   5     0.00000     0.00000     1.25520  0.0
    168    149    150    151   5     0.00000     0.00000     1.25520  0.0
    168    149    150    169   5     0.00000     0.00000     1.25520  0.0
    168    149    150    170   5     0.00000     0.00000     1.25520  0.0
    149    150    151    152   5     4.74884    -0.63178     1.67360  0.0
    149    150    151    171   5     0.00000     0.00000     1.25520  0.0
    149    150    151    172   5     0.00000     0.00000     1.25520  0.0
    169    150    151    152   5     0.00000     0.00000     1.25520  0.0
    169    150    151    171   5     0.00000     0.00000     1.25520  0.0
    169    150    151    172   5     0.00000     0.00000     1.25520  0.0
    170    150    151    152   5     0.00000     0.00000     1.25520  0.0
    170    150    151    171   5     0.00000     0.00000     1.25520  0.0
    170    150    151    172   5     0.00000     0.00000     1.25520  0.0
    150    151    152    153   5     4.74884    -0.63178     1.67360  0.0
    150    151    152    173   5     0.00000     0.00000     1.25520  0.0
    150    151    152    174   5     0.00000     0.00000     1.25520  0.0
    171    151    152    153   5     0.00000     0.00000     1.25520  0.0
    171    151    152    173   5     0.00000     0.00000     1.25520  0.0
    171    151    152    174   5     0.00000     0.00000     1.25520  0.0
    172    151    152    153   5     0.00000     0.00000     1.25520  0.0
    172    151    152    173   5     0.00000     0.00000     1.25520  0.0
    172    151    152    174   5     0.00000     0.00000     1.25520  0.0
    151    152    153    154   5     5.25092    -2.58990     2.28446  0.0
    151    152    153    175   5     0.00000     0.00000     1.25520  0.0
    151    152    153    176   5     0.00000     0.00000     1.25520  0.0
    173    152    153    154   5     0.00000     0.00000     1.95811  0.0
    173    152    153    175   5     0.00000     0.00000     1.25520  0.0
    173    152    153    176   5     0.00000     0.00000     1.25520  0.0
    174    152    153    154   5     0.00000     0.00000     1.95811  0.0
    174    152    153    175   5     0.00000     0.00000     1.25520  0.0
    174    152    153    176   5     0.00000     0.00000     1.25520  0.0
    152    153    154    155   5    -2.16731    -3.93296     0.98324  0.0
    175    153    154    155   5     0.00000     0.00000     0.67362  0.0
    176    153    154    155   5     0.00000     0.00000     0.67362  0.0
    153    154    155    156   5     0.00000    25.10400     0.00000  0.0
    153    154    155    157   5    13.65239    24.43456     0.00000  0.0
    154    155    157    123   5     0.00000     0.00000     3.07524  0.0
    154    155    157    158   5     0.00000     0.00000     3.07524  0.0
    154    155    157    159   5     0.00000     0.00000     3.07524  0.0
    156    155    157    123   5     0.00000     2.52295     0.00000  0.0
    156    155    157    158   5     0.00000     2.52295     0.00000  0.0
    156    155    157    159   5     0.00000     2.52295     0.00000  0.0
    123    157    158    177   5     0.00000     0.00000     1.25520  0.0
    123    157    158    178   5     0.00000     0.00000     1.25520  0.0
    123    157    158    179   5     0.00000     0.00000     1.25520  0.0
    155    157    158    177   5     0.00000     0.00000    -0.94140  0.0
    155    157    158    178   5     0.00000     0.00000    -0.94140  0.0
    155    157    158    179   5     0.00000     0.00000    -0.94140  0.0
    159    157    158    177   5     0.00000     0.00000     1.25520  0.0
    159    157    158    178   5     0.00000     0.00000     1.25520  0.0
    159    157    158    179   5     0.00000     0.00000     1.25520  0.0
    123    157    159    180   5     0.00000     0.00000     1.25520  0.0
    123    157    159    181   5     0.00000     0.00000     1.25520  0.0
    123    157    159    193   5     4.74884    -0.63178     1.67360  0.0
    155    157    159    180   5     0.00000     0.00000    -0.94140  0.0
    155    157    159    181   5     0.00000     0.00000    -0.94140  0.0
    155    157    159    193   5    -8.00818    -1.52298     2.46438  0.0
    158    157    159    180   5     0.00000     0.00000     1.25520  0.0
    158    157    159    181   5     0.00000     0.00000     1.25520  0.0
    158    157    159    193   5     4.74884    -0.63178     1.67360  0.0
    157    159    193    191   5    -8.00818    -1.52298     2.46438  0.0
    157    159    193    194   5     4.74884    -0.63178     1.67360  0.0
    157    159    193    195   5     4.74884    -0.63178     1.67360  0.0
    180    159    193    191   5     0.00000     0.00000    -0.94140  0.0
    180    159    193    194   5     0.00000     0.00000     1.25520  0.0
    180    159    193    195   5     0.00000     0.00000     1.25520  0.0
    181    159    193    191   5     0.00000     0.00000    -0.94140  0.0
    181    159    193    194   5     0.00000     0.00000     1.25520  0.0
    181    159    193    195   5     0.00000     0.00000     1.25520  0.0
    196    182    183    184   5     0.00000     0.00000     1.25520  0.0
    196    182    183    199   5     0.00000     0.00000     1.25520  0.0
    196    182    183    200   5     0.00000     0.00000     1.25520  0.0
    197    182    183    184   5     0.00000     0.00000     1.25520  0.0
    197    182    183    199   5     0.00000     0.00000     1.25520  0.0
    197    182    183    200   5     0.00000     0.00000     1.25520  0.0
    198    182    183    184   5     0.00000     0.00000     1.25520  0.0
    198    182    183    199   5     0.00000     0.00000     1.25520  0.0
    198    182    183    200   5     0.00000     0.00000     1.25520  0.0
    182    183    184    185   5     4.74884    -0.63178     1.67360  0.0
    182    183    184    201   5     0.00000     0.00000     1.25520  0.0
    182    183    184    202   5     0.00000     0.00000     1.25520  0.0
    199    183    184    185   5     0.00000     0.00000     1.25520  0.0
    199    183    184    201   5     0.00000     0.00000     1.25520  0.0
    199    183    184    202   5     0.00000     0.00000     1.25520  0.0
    200    183    184    185   5     0.00000     0.00000     1.25520  0.0
    200    183    184    201   5     0.00000     0.00000     1.25520  0.0
    200    183    184    202   5     0.00000     0.00000     1.25520  0.0
    183    184    185    186   5     4.74884    -0.63178     1.67360  0.0
    183    184    185    203   5     0.00000     0.00000     1.25520  0.0
    183    184    185    204   5     0.00000     0.00000     1.25520  0.0
    201    184    185    186   5     0.00000     0.00000     1.25520  0.0
    201    184    185    203   5     0.00000     0.00000     1.25520  0.0
    201    184    185    204   5     0.00000     0.00000     1.25520  0.0
    202    184    185    186   5     0.00000     0.00000     1.25520  0.0
    202    184    185    203   5     0.00000     0.00000     1.25520  0.0
    202    184    185    204   5     0.00000     0.00000     1.25520  0.0
    184    185    186    187   5     4.74884    -0.63178     1.67360  0.0
    184    185    186    205   5     0.00000     0.00000     1.25520  0.0
    184    185    186    206   5     0.00000     0.00000     1.25520  0.0
    203    185    186    187   5     0.00000     0.00000     1.25520  0.0
    203    185    186    205   5     0.00000     0.00000     1.25520  0.0
    203    185    186    206   5     0.00000     0.00000     1.25520  0.0
    204    185    186    187   5     0.00000     0.00000     1.25520  0.0
    204    185    186    205   5     0.00000     0.00000     1.25520  0.0
    204    185    186    206   5     0.00000     0.00000     1.25520  0.0
    185    186    187    188   5     4.74884    -0.63178     1.67360  0.0
    185    186    187    207   5     0.00000     0.00000     1.25520  0.0
    185    186    187    208   5     0.00000     0.00000     1.25520  0.0
    205    186    187    188   5     0.00000     0.00000     1.25520  0.0
    205    186    187    207   5     0.00000     0.00000     1.25520  0.0
    205    186    187    208   5     0.00000     0.00000     1.25520  0.0
    206    186    187    188   5     0.00000     0.00000     1.25520  0.0
    206    186    187    207   5     0.00000     0.00000     1.25520  0.0
    206    186    187    208   5     0.00000     0.00000     1.25520  0.0
    186    187    188    189   5     4.74884    -0.63178     1.67360  0.0
    186    187    188    209   5     0.00000     0.00000     1.25520  0.0
    186    187    188    210   5     0.00000     0.00000     1.25520  0.0
    207    187    188    189   5     0.00000     0.00000     1.25520  0.0
    207    187    188    209   5     0.00000     0.00000     1.25520  0.0
    207    187    188    210   5     0.00000     0.00000     1.25520  0.0
    208    187    188    189   5     0.00000     0.00000     1.25520  0.0
    208    187    188    209   5     0.00000     0.00000     1.25520  0.0
    208    187    188    210   5     0.00000     0.00000     1.25520  0.0
    187    188    189    190   5     5.25092    -2.58990     2.28446  0.0
    187    188    189    211   5     0.00000     0.00000     1.25520  0.0
    187    188    189    212   5     0.00000     0.00000     1.25520  0.0
    209    188    189    190   5     0.00000     0.00000     1.95811  0.0
    209    188    189    211   5     0.00000     0.00000     1.25520  0.0
    209    188    189    212   5     0.00000     0.00000     1.25520  0.0
    210    188    189    190   5     0.00000     0.00000     1.95811  0.0
    210    188    189    211   5     0.00000     0.00000     1.25520  0.0
    210    188    189    212   5     0.00000     0.00000     1.25520  0.0
    188    189    190    191   5    -2.16731    -3.93296     0.98324  0.0
    211    189    190    191   5     0.00000     0.00000     0.67362  0.0
    212    189    190    191   5     0.00000     0.00000     0.67362  0.0
    189    190    191    192   5     0.00000    25.10400     0.00000  0.0
    189    190    191    193   5    13.65239    24.43456     0.00000  0.0
    190    191    193    159   5     0.00000     0.00000     3.07524  0.0
    190    191    193    194   5     0.00000     0.00000     3.07524  0.0
    190    191    193    195   5     0.00000     0.00000     3.07524  0.0
    192    191    193    159   5     0.00000     2.52295     0.00000  0.0
    192    191    193    194   5     0.00000     2.52295     0.00000  0.0
    192    191    193    195   5     0.00000     2.52295     0.00000  0.0
    159    193    194    213   5     0.00000     0.00000     1.25520  0.0
    159    193    194    214   5     0.00000     0.00000     1.25520  0.0
    159    193    194    215   5     0.00000     0.00000     1.25520  0.0
    191    193    194    213   5     0.00000     0.00000    -0.94140  0.0
    191    193    194    214   5     0.00000     0.00000    -0.94140  0.0
    191    193    194    215   5     0.00000     0.00000    -0.94140  0.0
    195    193    194    213   5     0.00000     0.00000     1.25520  0.0
    195    193    194    214   5     0.00000     0.00000     1.25520  0.0
    195    193    194    215   5     0.00000     0.00000     1.25520  0.0
    159    193    195    216   5     0.00000     0.00000     1.25520  0.0
    159    193    195    217   5     0.00000     0.00000     1.25520  0.0
    159    193    195    229   5     4.74884    -0.63178     1.67360  0.0
    191    193    195    216   5     0.00000     0.00000    -0.94140  0.0
    191    193    195    217   5     0.00000     0.00000    -0.94140  0.0
    191    193    195    229   5    -8.00818    -1.52298     2.46438  0.0
    194    193    195    216   5     0.00000     0.00000     1.25520  0.0
    194    193    195    217   5     0.00000     0.00000     1.25520  0.0
    194    193    195    229   5     4.74884    -0.63178     1.67360  0.0
    193    195    229    227   5    -8.00818    -1.52298     2.46438  0.0
    193    195    229    230   5     4.74884    -0.63178     1.67360  0.0
    193    195    229    231   5     4.74884    -0.63178     1.67360  0.0
    216    195    229    227   5     0.00000     0.00000    -0.94140  0.0
    216    195    229    230   5     0.00000     0.00000     1.25520  0.0
    216    195    229    231   5     0.00000     0.00000     1.25520  0.0
    217    195    229    227   5     0.00000     0.00000    -0.94140  0.0
    217    195    229    230   5     0.00000     0.00000     1.25520  0.0
    217    195    229    231   5     0.00000     0.00000     1.25520  0.0
    232    218    219    220   5     0.00000     0.00000     1.25520  0.0
    232    218    219    235   5     0.00000     0.00000     1.25520  0.0
    232    218    219    236   5     0.00000     0.00000     1.25520  0.0
    233    218    219    220   5     0.00000     0.00000     1.25520  0.0
    233    218    219    235   5     0.00000     0.00000     1.25520  0.0
    233    218    219    236   5     0.00000     0.00000     1.25520  0.0
    234    218    219    220   5     0.00000     0.00000     1.25520  0.0
    234    218    219    235   5     0.00000     0.00000     1.25520  0.0
    234    218    219    236   5     0.00000     0.00000     1.25520  0.0
    218    219    220    221   5     4.74884    -0.63178     1.67360  0.0
    218    219    220    237   5     0.00000     0.00000     1.25520  0.0
    218    219    220    238   5     0.00000     0.00000     1.25520  0.0
    235    219    220    221   5     0.00000     0.00000     1.25520  0.0
    235    219    220    237   5     0.00000     0.00000     1.25520  0.0
    235    219    220    238   5     0.00000     0.00000     1.25520  0.0
    236    219    220    221   5     0.00000     0.00000     1.25520  0.0
    236    219    220    237   5     0.00000     0.00000     1.25520  0.0
    236    219    220    238   5     0.00000     0.00000     1.25520  0.0
    219    220    221    222   5     4.74884    -0.63178     1.67360  0.0
    219    220    221    239   5     0.00000     0.00000     1.25520  0.0
    219    220    221    240   5     0.00000     0.00000     1.25520  0.0
    237    220    221    222   5     0.00000     0.00000     1.25520  0.0
    237    220    221    239   5     0.00000     0.00000     1.25520  0.0
    237    220    221    240   5     0.00000     0.00000     1.25520  0.0
    238    220    221    222   5     0.00000     0.00000     1.25520  0.0
    238    220    221    239   5     0.00000     0.00000     1.25520  0.0
    238    220    221    240   5     0.00000     0.00000     1.25520  0.0
    220    221    222    223   5     4.74884    -0.63178     1.67360  0.0
    220    221    222    241   5     0.00000     0.00000     1.25520  0.0
    220    221    222    242   5     0.00000     0.00000     1.25520  0.0
    239    221    222    223   5     0.00000     0.00000     1.25520  0.0
    239    221    222    241   5     0.00000     0.00000     1.25520  0.0
    239    221    222    242   5     0.00000     0.00000     1.25520  0.0
    240    221    222    223   5     0.00000     0.00000     1.25520  0.0
    240    221    222    241   5     0.00000     0.00000     1.25520  0.0
    240    221    222    242   5     0.00000     0.00000     1.25520  0.0
    221    222    223    224   5     4.74884    -0.63178     1.67360  0.0
    221    222    223    243   5     0.00000     0.00000     1.25520  0.0
    221    222    223    244   5     0.00000     0.00000     1.25520  0.0
    241    222    223    224   5     0.00000     0.00000     1.25520  0.0
    241    222    223    243   5     0.00000     0.00000     1.25520  0.0
    241    222    223    244   5     0.00000     0.00000     1.25520  0.0
    242    222    223    224   5     0.00000     0.00000     1.25520  0.0
    242    222    223    243   5     0.00000     0.00000     1.25520  0.0
    242    222    223    244   5     0.00000     0.00000     1.25520  0.0
    222    223    224    225   5     4.74884    -0.63178     1.67360  0.0
    222    223    224    245   5     0.00000     0.00000     1.25520  0.0
    222    223    224    246   5     0.00000     0.00000     1.25520  0.0
    243    223    224    225   5     0.00000     0.00000     1.25520  0.0
    243    223    224    245   5     0.00000     0.00000     1.25520  0.0
    243    223    224    246   5     0.00000     0.00000     1.25520  0.0
    244    223    224    225   5     0.00000     0.00000     1.25520  0.0
    244    223    224    245   5     0.00000     0.00000     1.25520  0.0
    244    223    224    246   5     0.00000     0.00000     1.25520  0.0
    223    224    225    226   5     5.25092    -2.58990     2.28446  0.0
    223    224    225    247   5     0.00000     0.00000     1.25520  0.0
    223    224    225    248   5     0.00000     0.00000     1.25520  0.0
    245    224    225    226   5     0.00000     0.00000     1.95811  0.0
    245    224    225    247   5     0.00000     0.00000     1.25520  0.0
    245    224    225    248   5     0.00000     0.00000     1.25520  0.0
    246    224    225    226   5     0.00000     0.00000     1.95811  0.0
    246    224    225    247   5     0.00000     0.00000     1.25520  0.0
    246    224    225    248   5     0.00000     0.00000     1.25520  0.0
    224    225    226    227   5    -2.16731    -3.93296     0.98324  0.0
    247    225    226    227   5     0.00000     0.00000     0.67362  0.0
    248    225    226    227   5     0.00000     0.00000     0.67362  0.0
    225    226    227    228   5     0.00000    25.10400     0.00000  0.0
    225    226    227    229   5    13.65239    24.43456     0.00000  0.0
    226    227    229    195   5     0.00000     0.00000     3.07524  0.0
    226    227    229    230   5     0.00000     0.00000     3.07524  0.0
    226    227    229    231   5     0.00000     0.00000     3.07524  0.0
    228    227    229    195   5     0.00000     2.52295     0.00000  0.0
    228    227    229    230   5     0.00000     2.52295     0.00000  0.0
    228    227    229    231   5     0.00000     2.52295     0.00000  0.0
    195    229    230    249   5     0.00000     0.00000     1.25520  0.0
    195    229    230    250   5     0.00000     0.00000     1.25520  0.0
    195    229    230    251   5     0.00000     0.00000     1.25520  0.0
    227    229    230    249   5     0.00000     0.00000    -0.94140  0.0
    227    229    230    250   5     0.00000     0.00000    -0.94140  0.0
    227    229    230    251   5     0.00000     0.00000    -0.94140  0.0
    231    229    230    249   5     0.00000     0.00000     1.25520  0.0
    231    229    230    250   5     0.00000     0.00000     1.25520  0.0
    231    229    230    251   5     0.00000     0.00000     1.25520  0.0
    195    229    231    252   5     0.00000     0.00000     1.25520  0.0
    195    229    231    253   5     0.00000     0.00000     1.25520  0.0
    195    229    231    265   5     4.74884    -0.63178     1.67360  0.0
    227    229    231    252   5     0.00000     0.00000    -0.94140  0.0
    227    229    231    253   5     0.00000     0.00000    -0.94140  0.0
    227    229    231    265   5    -8.00818    -1.52298     2.46438  0.0
    230    229    231    252   5     0.00000     0.00000     1.25520  0.0
    230    229    231    253   5     0.00000     0.00000     1.25520  0.0
    230    229    231    265   5     4.74884    -0.63178     1.67360  0.0
    229    231    265    263   5    -8.00818    -1.52298     2.46438  0.0
    229    231    265    266   5     4.74884    -0.63178     1.67360  0.0
    229    231    265    267   5     4.74884    -0.63178     1.67360  0.0
    252    231    265    263   5     0.00000     0.00000    -0.94140  0.0
    252    231    265    266   5     0.00000     0.00000     1.25520  0.0
    252    231    265    267   5     0.00000     0.00000     1.25520  0.0
    253    231    265    263   5     0.00000     0.00000    -0.94140  0.0
    253    231    265    266   5     0.00000     0.00000     1.25520  0.0
    253    231    265    267   5     0.00000     0.00000     1.25520  0.0
    268    254    255    256   5     0.00000     0.00000     1.25520  0.0
    268    254    255    271   5     0.00000     0.00000     1.25520  0.0
    268    254    255    272   5     0.00000     0.00000     1.25520  0.0
    269    254    255    256   5     0.00000     0.00000     1.25520  0.0
    269    254    255    271   5     0.00000     0.00000     1.25520  0.0
    269    254    255    272   5     0.00000     0.00000     1.25520  0.0
    270    254    255    256   5     0.00000     0.00000     1.25520  0.0
    270    254    255    271   5     0.00000     0.00000     1.25520  0.0
    270    254    255    272   5     0.00000     0.00000     1.25520  0.0
    254    255    256    257   5     4.74884    -0.63178     1.67360  0.0
    254    255    256    273   5     0.00000     0.00000     1.25520  0.0
    254    255    256    274   5     0.00000     0.00000     1.25520  0.0
    271    255    256    257   5     0.00000     0.00000     1.25520  0.0
    271    255    256    273   5     0.00000     0.00000     1.25520  0.0
    271    255    256    274   5     0.00000     0.00000     1.25520  0.0
    272    255    256    257   5     0.00000     0.00000     1.25520  0.0
    272    255    256    273   5     0.00000     0.00000     1.25520  0.0
    272    255    256    274   5     0.00000     0.00000     1.25520  0.0
    255    256    257    258   5     4.74884    -0.63178     1.67360  0.0
    255    256    257    275   5     0.00000     0.00000     1.25520  0.0
    255    256    257    276   5     0.00000     0.00000     1.25520  0.0
    273    256    257    258   5     0.00000     0.00000     1.25520  0.0
    273    256    257    275   5     0.00000     0.00000     1.25520  0.0
    273    256    257    276   5     0.00000     0.00000     1.25520  0.0
    274    256    257    258   5     0.00000     0.00000     1.25520  0.0
    274    256    257    275   5     0.00000     0.00000     1.25520  0.0
    274    256    257    276   5     0.00000     0.00000     1.25520  0.0
    256    257    258    259   5     4.74884    -0.63178     1.67360  0.0
    256    257    258    277   5     0.00000     0.00000     1.25520  0.0
    256    257    258    278   5     0.00000     0.00000     1.25520  0.0
    275    257    258    259   5     0.00000     0.00000     1.25520  0.0
    275    257    258    277   5     0.00000     0.00000     1.25520  0.0
    275    257    258    278   5     0.00000     0.00000     1.25520  0.0
    276    257    258    259   5     0.00000     0.00000     1.25520  0.0
    276    257    258    277   5     0.00000     0.00000     1.25520  0.0
    276    257    258    278   5     0.00000     0.00000     1.25520  0.0
    257    258    259    260   5     4.74884    -0.63178     1.67360  0.0
    257    258    259    279   5     0.00000     0.00000     1.25520  0.0
    257    258    259    280   5     0.00000     0.00000     1.25520  0.0
    277    258    259    260   5     0.00000     0.00000     1.25520  0.0
    277    258    259    279   5     0.00000     0.00000     1.25520  0.0
    277    258    259    280   5     0.00000     0.00000     1.25520  0.0
    278    258    259    260   5     0.00000     0.00000     1.25520  0.0
    278    258    259    279   5     0.00000     0.00000     1.25520  0.0
    278    258    259    280   5     0.00000     0.00000     1.25520  0.0
    258    259    260    261   5     4.74884    -0.63178     1.67360  0.0
    258    259    260    281   5     0.00000     0.00000     1.25520  0.0
    258    259    260    282   5     0.00000     0.00000     1.25520  0.0
    279    259    260    261   5     0.00000     0.00000     1.25520  0.0
    279    259    260    281   5     0.00000     0.00000     1.25520  0.0
    279    259    260    282   5     0.00000     0.00000     1.25520  0.0
    280    259    260    261   5     0.00000     0.00000     1.25520  0.0
    280    259    260    281   5     0.00000     0.00000     1.25520  0.0
    280    259    260    282   5     0.00000     0.00000     1.25520  0.0
    259    260    261    262   5     5.25092    -2.58990     2.28446  0.0
    259    260    261    283   5     0.00000     0.00000     1.25520  0.0
    259    260    261    284   5     0.00000     0.00000     1.25520  0.0
    281    260    261    262   5     0.00000     0.00000     1.95811  0.0
    281    260    261    283   5     0.00000     0.00000     1.25520  0.0
    281    260    261    284   5     0.00000     0.00000     1.25520  0.0
    282    260    261    262   5     0.00000     0.00000     1.95811  0.0
    282    260    261    283   5     0.00000     0.00000     1.25520  0.0
    282    260    261    284   5     0.00000     0.00000     1.25520  0.0
    260    261    262    263   5    -2.16731    -3.93296     0.98324  0.0
    283    261    262    263   5     0.00000     0.00000     0.67362  0.0
    284    261    262    263   5     0.00000     0.00000     0.67362  0.0
    261    262    263    264   5     0.00000    25.10400     0.00000  0.0
    261    262    263    265   5    13.65239    24.43456     0.00000  0.0
    262    263    265    231   5     0.00000     0.00000     3.07524  0.0
    262    263    265    266   5     0.00000     0.00000     3.07524  0.0
    262    263    265    267   5     0.00000     0.00000     3.07524  0.0
    264    263    265    231   5     0.00000     2.52295     0.00000  0.0
    264    263    265    266   5     0.00000     2.52295     0.00000  0.0
    264    263    265    267   5     0.00000     2.52295     0.00000  0.0
    231    265    266    285   5     0.00000     0.00000     1.25520  0.0
    231    265    266    286   5     0.00000     0.00000     1.25520  0.0
    231    265    266    287   5     0.00000     0.00000     1.25520  0.0
    263    265    266    285   5     0.00000     0.00000    -0.94140  0.0
    263    265    266    286   5     0.00000     0.00000    -0.94140  0.0
    263    265    266    287   5     0.00000     0.00000    -0.94140  0.0
    267    265    266    285   5     0.00000     0.00000     1.25520  0.0
    267    265    266    286   5     0.00000     0.00000     1.25520  0.0
    267    265    266    287   5     0.00000     0.00000     1.25520  0.0
    231    265    267    288   5     0.00000     0.00000     1.25520  0.0
    231    265    267    289   5     0.00000     0.00000     1.25520  0.0
    231    265    267    301   5     4.74884    -0.63178     1.67360  0.0
    263    265    267    288   5     0.00000     0.00000    -0.94140  0.0
    263    265    267    289   5     0.00000     0.00000    -0.94140  0.0
    263    265    267    301   5    -8.00818    -1.52298     2.46438  0.0
    266    265    267    288   5     0.00000     0.00000     1.25520  0.0
    266    265    267    289   5     0.00000     0.00000     1.25520  0.0
    266    265    267    301   5     4.74884    -0.63178     1.67360  0.0
    265    267    301    299   5    -8.00818    -1.52298     2.46438  0.0
    265    267    301    302   5     4.74884    -0.63178     1.67360  0.0
    265    267    301    303   5     4.74884    -0.63178     1.67360  0.0
    288    267    301    299   5     0.00000     0.00000    -0.94140  0.0
    288    267    301    302   5     0.00000     0.00000     1.25520  0.0
    288    267    301    303   5     0.00000     0.00000     1.25520  0.0
    289    267    301    299   5     0.00000     0.00000    -0.94140  0.0
    289    267    301    302   5     0.00000     0.00000     1.25520  0.0
    289    267    301    303   5     0.00000     0.00000     1.25520  0.0
    304    290    291    292   5     0.00000     0.00000     1.25520  0.0
    304    290    291    307   5     0.00000     0.00000     1.25520  0.0
    304    290    291    308   5     0.00000     0.00000     1.25520  0.0
    305    290    291    292   5     0.00000     0.00000     1.25520  0.0
    305    290    291    307   5     0.00000     0.00000     1.25520  0.0
    305    290    291    308   5     0.00000     0.00000     1.25520  0.0
    306    290    291    292   5     0.00000     0.00000     1.25520  0.0
    306    290    291    307   5     0.00000     0.00000     1.25520  0.0
    306    290    291    308   5     0.00000     0.00000     1.25520  0.0
    290    291    292    293   5     4.74884    -0.63178     1.67360  0.0
    290    291    292    309   5     0.00000     0.00000     1.25520  0.0
    290    291    292    310   5     0.00000     0.00000     1.25520  0.0
    307    291    292    293   5     0.00000     0.00000     1.25520  0.0
    307    291    292    309   5     0.00000     0.00000     1.25520  0.0
    307    291    292    310   5     0.00000     0.00000     1.25520  0.0
    308    291    292    293   5     0.00000     0.00000     1.25520  0.0
    308    291    292    309   5     0.00000     0.00000     1.25520  0.0
    308    291    292    310   5     0.00000     0.00000     1.25520  0.0
    291    292    293    294   5     4.74884    -0.63178     1.67360  0.0
    291    292    293    311   5     0.00000     0.00000     1.25520  0.0
    291    292    293    312   5     0.00000     0.00000     1.25520  0.0
    309    292    293    294   5     0.00000     0.00000     1.25520  0.0
    309    292    293    311   5     0.00000     0.00000     1.25520  0.0
    309    292    293    312   5     0.00000     0.00000     1.25520  0.0
    310    292    293    294   5     0.00000     0.00000     1.25520  0.0
    310    292    293    311   5     0.00000     0.00000     1.25520  0.0
    310    292    293    312   5     0.00000     0.00000     1.25520  0.0
    292    293    294    295   5     4.74884    -0.63178     1.67360  0.0
    292    293    294    313   5     0.00000     0.00000     1.25520  0.0
    292    293    294    314   5     0.00000     0.00000     1.25520  0.0
    311    293    294    295   5     0.00000     0.00000     1.25520  0.0
    311    293    294    313   5     0.00000     0.00000     1.25520  0.0
    311    293    294    314   5     0.00000     0.00000     1.25520  0.0
    312    293    294    295   5     0.00000     0.00000     1.25520  0.0
    312    293    294    313   5     0.00000     0.00000     1.25520  0.0
    312    293    294    314   5     0.00000     0.00000     1.25520  0.0
    293    294    295    296   5     4.74884    -0.63178     1.67360  0.0
    293    294    295    315   5     0.00000     0.00000     1.25520  0.0
    293    294    295    316   5     0.00000     0.00000     1.25520  0.0
    313    294    295    296   5     0.00000     0.00000     1.25520  0.0
    313    294    295    315   5     0.00000     0.00000     1.25520  0.0
    313    294    295    316   5     0.00000     0.00000     1.25520  0.0
    314    294    295    296   5     0.00000     0.00000     1.25520  0.0
    314    294    295    315   5     0.00000     0.00000     1.25520  0.0
    314    294    295    316   5     0.00000     0.00000     1.25520  0.0
    294    295    296    297   5     4.74884    -0.63178     1.67360  0.0
    294    295    296    317   5     0.00000     0.00000     1.25520  0.0
    294    295    296    318   5     0.00000     0.00000     1.25520  0.0
    315    295    296    297   5     0.00000     0.00000     1.25520  0.0
    315    295    296    317   5     0.00000     0.00000     1.25520  0.0
    315    295    296    318   5     0.00000     0.00000     1.25520  0.0
    316    295    296    297   5     0.00000     0.00000     1.25520  0.0
    316    295    296    317   5     0.00000     0.00000     1.25520  0.0
    316    295    296    318   5     0.00000     0.00000     1.25520  0.0
    295    296    297    298   5     5.25092    -2.58990     2.28446  0.0
    295    296    297    319   5     0.00000     0.00000     1.25520  0.0
    295    296    297    320   5     0.00000     0.00000     1.25520  0.0
    317    296    297    298   5     0.00000     0.00000     1.95811  0.0
    317    296    297    319   5     0.00000     0.00000     1.25520  0.0
    317    296    297    320   5     0.00000     0.00000     1.25520  0.0
    318    296    297    298   5     0.00000     0.00000     1.95811  0.0
    318    296    297    319   5     0.00000     0.00000     1.25520  0.0
    318    296    297    320   5     0.00000     0.00000     1.25520  0.0
    296    297    298    299   5    -2.16731    -3.93296     0.98324  0.0
    319    297    298    299   5     0.00000     0.00000     0.67362  0.0
    320    297    298    299   5     0.00000     0.00000     0.67362  0.0
    297    298    299    300   5     0.00000    25.10400     0.00000  0.0
    297    298    299    301   5    13.65239    24.43456     0.00000  0.0
    298    299    301    267   5     0.00000     0.00000     3.07524  0.0
    298    299    301    302   5     0.00000     0.00000     3.07524  0.0
    298    299    301    303   5     0.00000     0.00000     3.07524  0.0
    300    299    301    267   5     0.00000     2.52295     0.00000  0.0
    300    299    301    302   5     0.00000     2.52295     0.00000  0.0
    300    299    301    303   5     0.00000     2.52295     0.00000  0.0
    267    301    302    321   5     0.00000     0.00000     1.25520  0.0
    267    301    302    322   5     0.00000     0.00000     1.25520  0.0
    267    301    302    323   5     0.00000     0.00000     1.25520  0.0
    299    301    302    321   5     0.00000     0.00000    -0.94140  0.0
    299    301    302    322   5     0.00000     0.00000    -0.94140  0.0
    299    301    302    323   5     0.00000     0.00000    -0.94140  0.0
    303    301    302    321   5     0.00000     0.00000     1.25520  0.0
    303    301    302    322   5     0.00000     0.00000     1.25520  0.0
    303    301    302    323   5     0.00000     0.00000     1.25520  0.0
    267    301    303    324   5     0.00000     0.00000     1.25520  0.0
    267    301    303    325   5     0.00000     0.00000     1.25520  0.0
    267    301    303    337   5     4.74884    -0.63178     1.67360  0.0
    299    301    303    324   5     0.00000     0.00000    -0.94140  0.0
    299    301    303    325   5     0.00000     0.00000    -0.94140  0.0
    299    301    303    337   5    -8.00818    -1.52298     2.46438  0.0
    302    301    303    324   5     0.00000     0.00000     1.25520  0.0
    302    301    303    325   5     0.00000     0.00000     1.25520  0.0
    302    301    303    337   5     4.74884    -0.63178     1.67360  0.0
    301    303    337    335   5    -8.00818    -1.52298     2.46438  0.0
    301    303    337    338   5     4.74884    -0.63178     1.67360  0.0
    301    303    337    339   5     4.74884    -0.63178     1.67360  0.0
    324    303    337    335   5     0.00000     0.00000    -0.94140  0.0
    324    303    337    338   5     0.00000     0.00000     1.25520  0.0
    324    303    337    339   5     0.00000     0.00000     1.25520  0.0
    325    303    337    335   5     0.00000     0.00000    -0.94140  0.0
    325    303    337    338   5     0.00000     0.00000     1.25520  0.0
    325    303    337    339   5     0.00000     0.00000     1.25520  0.0
    340    326    327    328   5     0.00000     0.00000     1.25520  0.0
    340    326    327    343   5     0.00000     0.00000     1.25520  0.0
    340    326    327    344   5     0.00000     0.00000     1.25520  0.0
    341    326    327    328   5     0.00000     0.00000     1.25520  0.0
    341    326    327    343   5     0.00000     0.00000     1.25520  0.0
    341    326    327    344   5     0.00000     0.00000     1.25520  0.0
    342    326    327    328   5     0.00000     0.00000     1.25520  0.0
    342    326    327    343   5     0.00000     0.00000     1.25520  0.0
    342    326    327    344   5     0.00000     0.00000     1.25520  0.0
    326    327    328    329   5     4.74884    -0.63178     1.67360  0.0
    326    327    328    345   5     0.00000     0.00000     1.25520  0.0
    326    327    328    346   5     0.00000     0.00000     1.25520  0.0
    343    327    328    329   5     0.00000     0.00000     1.25520  0.0
    343    327    328    345   5     0.00000     0.00000     1.25520  0.0
    343    327    328    346   5     0.00000     0.00000     1.25520  0.0
    344    327    328    329   5     0.00000     0.00000     1.25520  0.0
    344    327    328    345   5     0.00000     0.00000     1.25520  0.0
    344    327    328    346   5     0.00000     0.00000     1.25520  0.0
    327    328    329    330   5     4.74884    -0.63178     1.67360  0.0
    327    328    329    347   5     0.00000     0.00000     1.25520  0.0
    327    328    329    348   5     0.00000     0.00000     1.25520  0.0
    345    328    329    330   5     0.00000     0.00000     1.25520  0.0
    345    328    329    347   5     0.00000     0.00000     1.25520  0.0
    345    328    329    348   5     0.00000     0.00000     1.25520  0.0
    346    328    329    330   5     0.00000     0.00000     1.25520  0.0
    346    328    329    347   5     0.00000     0.00000     1.25520  0.0
    346    328    329    348   5     0.00000     0.00000     1.25520  0.0
    328    329    330    331   5     4.74884    -0.63178     1.67360  0.0
    328    329    330    349   5     0.00000     0.00000     1.25520  0.0
    328    329    330    350   5     0.00000     0.00000     1.25520  0.0
    347    329    330    331   5     0.00000     0.00000     1.25520  0.0
    347    329    330    349   5     0.00000     0.00000     1.25520  0.0
    347    329    330    350   5     0.00000     0.00000     1.25520  0.0
    348    329    330    331   5     0.00000     0.00000     1.25520  0.0
    348    329    330    349   5     0.00000     0.00000     1.25520  0.0
    348    329    330    350   5     0.00000     0.00000     1.25520  0.0
    329    330    331    332   5     4.74884    -0.63178     1.67360  0.0
    329    330    331    351   5     0.00000     0.00000     1.25520  0.0
    329    330    331    352   5     0.00000     0.00000     1.25520  0.0
    349    330    331    332   5     0.00000     0.00000     1.25520  0.0
    349    330    331    351   5     0.00000     0.00000     1.25520  0.0
    349    330    331    352   5     0.00000     0.00000     1.25520  0.0
    350    330    331    332   5     0.00000     0.00000     1.25520  0.0
    350    330    331    351   5     0.00000     0.00000     1.25520  0.0
    350    330    331    352   5     0.00000     0.00000     1.25520  0.0
    330    331    332    333   5     4.74884    -0.63178     1.67360  0.0
    330    331    332    353   5     0.00000     0.00000     1.25520  0.0
    330    331    332    354   5     0.00000     0.00000     1.25520  0.0
    351    331    332    333   5     0.00000     0.00000     1.25520  0.0
    351    331    332    353   5     0.00000     0.00000     1.25520  0.0
    351    331    332    354   5     0.00000     0.00000     1.25520  0.0
    352    331    332    333   5     0.00000     0.00000     1.25520  0.0
    352    331    332    353   5     0.00000     0.00000     1.25520  0.0
    352    331    332    354   5     0.00000     0.00000     1.25520  0.0
    331    332    333    334   5     5.25092    -2.58990     2.28446  0.0
    331    332    333    355   5     0.00000     0.00000     1.25520  0.0
    331    332    333    356   5     0.00000     0.00000     1.25520  0.0
    353    332    333    334   5     0.00000     0.00000     1.95811  0.0
    353    332    333    355   5     0.00000     0.00000     1.25520  0.0
    353    332    333    356   5     0.00000     0.00000     1.25520  0.0
    354    332    333    334   5     0.00000     0.00000     1.95811  0.0
    354    332    333    355   5     0.00000     0.00000     1.25520  0.0
    354    332    333    356   5     0.00000     0.00000     1.25520  0.0
    332    333    334    335   5    -2.16731    -3.93296     0.98324  0.0
    355    333    334    335   5     0.00000     0.00000     0.67362  0.0
    356    333    334    335   5     0.00000     0.00000     0.67362  0.0
    333    334    335    336   5     0.00000    25.10400     0.00000  0.0
    333    334    335    337   5    13.65239    24.43456     0.00000  0.0
    334    335    337    303   5     0.00000     0.00000     3.07524  0.0
    334    335    337    338   5     0.00000     0.00000     3.07524  0.0
    334    335    337    339   5     0.00000     0.00000     3.07524  0.0
    336    335    337    303   5     0.00000     2.52295     0.00000  0.0
    336    335    337    338   5     0.00000     2.52295     0.00000  0.0
    336    335    337    339   5     0.00000     2.52295     0.00000  0.0
    303    337    338    357   5     0.00000     0.00000     1.25520  0.0
    303    337    338    358   5     0.00000     0.00000     1.25520  0.0
    303    337    338    359   5     0.00000     0.00000     1.25520  0.0
    335    337    338    357   5     0.00000     0.00000    -0.94140  0.0
    335    337    338    358   5     0.00000     0.00000    -0.94140  0.0
    335    337    338    359   5     0.00000     0.00000    -0.94140  0.0
    339    337    338    357   5     0.00000     0.00000     1.25520  0.0
    339    337    338    358   5     0.00000     0.00000     1.25520  0.0
    339    337    338    359   5     0.00000     0.00000     1.25520  0.0
    303    337    339    360   5     0.00000     0.00000     1.25520  0.0
    303    337    339    361   5     0.00000     0.00000     1.25520  0.0
    303    337    339    373   5     4.74884    -0.63178     1.67360  0.0
    335    337    339    360   5     0.00000     0.00000    -0.94140  0.0
    335    337    339    361   5     0.00000     0.00000    -0.94140  0.0
    335    337    339    373   5    -8.00818    -1.52298     2.46438  0.0
    338    337    339    360   5     0.00000     0.00000     1.25520  0.0
    338    337    339    361   5     0.00000     0.00000     1.25520  0.0
    338    337    339    373   5     4.74884    -0.63178     1.67360  0.0
    337    339    373    371   5    -8.00818    -1.52298     2.46438  0.0
    337    339    373    374   5     4.74884    -0.63178     1.67360  0.0
    337    339    373    375   5     4.74884    -0.63178     1.67360  0.0
    360    339    373    371   5     0.00000     0.00000    -0.94140  0.0
    360    339    373    374   5     0.00000     0.00000     1.25520  0.0
    360    339    373    375   5     0.00000     0.00000     1.25520  0.0
    361    339    373    371   5     0.00000     0.00000    -0.94140  0.0
    361    339    373    374   5     0.00000     0.00000     1.25520  0.0
    361    339    373    375   5     0.00000     0.00000     1.25520  0.0
    376    362    363    364   5     0.00000     0.00000     1.25520  0.0
    376    362    363    379   5     0.00000     0.00000     1.25520  0.0
    376    362    363    380   5     0.00000     0.00000     1.25520  0.0
    377    362    363    364   5     0.00000     0.00000     1.25520  0.0
    377    362    363    379   5     0.00000     0.00000     1.25520  0.0
    377    362    363    380   5     0.00000     0.00000     1.25520  0.0
    378    362    363    364   5     0.00000     0.00000     1.25520  0.0
    378    362    363    379   5     0.00000     0.00000     1.25520  0.0
    378    362    363    380   5     0.00000     0.00000     1.25520  0.0
    362    363    364    365   5     4.74884    -0.63178     1.67360  0.0
    362    363    364    381   5     0.00000     0.00000     1.25520  0.0
    362    363    364    382   5     0.00000     0.00000     1.25520  0.0
    379    363    364    365   5     0.00000     0.00000     1.25520  0.0
    379    363    364    381   5     0.00000     0.00000     1.25520  0.0
    379    363    364    382   5     0.00000     0.00000     1.25520  0.0
    380    363    364    365   5     0.00000     0.00000     1.25520  0.0
    380    363    364    381   5     0.00000     0.00000     1.25520  0.0
    380    363    364    382   5     0.00000     0.00000     1.25520  0.0
    363    364    365    366   5     4.74884    -0.63178     1.67360  0.0
    363    364    365    383   5     0.00000     0.00000     1.25520  0.0
    363    364    365    384   5     0.00000     0.00000     1.25520  0.0
    381    364    365    366   5     0.00000     0.00000     1.25520  0.0
    381    364    365    383   5     0.00000     0.00000     1.25520  0.0
    381    364    365    384   5     0.00000     0.00000     1.25520  0.0
    382    364    365    366   5     0.00000     0.00000     1.25520  0.0
    382    364    365    383   5     0.00000     0.00000     1.25520  0.0
    382    364    365    384   5     0.00000     0.00000     1.25520  0.0
    364    365    366    367   5     4.74884    -0.63178     1.67360  0.0
    364    365    366    385   5     0.00000     0.00000     1.25520  0.0
    364    365    366    386   5     0.00000     0.00000     1.25520  0.0
    383    365    366    367   5     0.00000     0.00000     1.25520  0.0
    383    365    366    385   5     0.00000     0.00000     1.25520  0.0
    383    365    366    386   5     0.00000     0.00000     1.25520  0.0
    384    365    366    367   5     0.00000     0.00000     1.25520  0.0
    384    365    366    385   5     0.00000     0.00000     1.25520  0.0
    384    365    366    386   5     0.00000     0.00000     1.25520  0.0
    365    366    367    368   5     4.74884    -0.63178     1.67360  0.0
    365    366    367    387   5     0.00000     0.00000     1.25520  0.0
    365    366    367    388   5     0.00000     0.00000     1.25520  0.0
    385    366    367    368   5     0.00000     0.00000     1.25520  0.0
    385    366    367    387   5     0.00000     0.00000     1.25520  0.0
    385    366    367    388   5     0.00000     0.00000     1.25520  0.0
    386    366    367    368   5     0.00000     0.00000     1.25520  0.0
    386    366    367    387   5     0.00000     0.00000     1.25520  0.0
    386    366    367    388   5     0.00000     0.00000     1.25520  0.0
    366    367    368    369   5     4.74884    -0.63178     1.67360  0.0
    366    367    368    389   5     0.00000     0.00000     1.25520  0.0
    366    367    368    390   5     0.00000     0.00000     1.25520  0.0
    387    367    368    369   5     0.00000     0.00000     1.25520  0.0
    387    367    368    389   5     0.00000     0.00000     1.25520  0.0
    387    367    368    390   5     0.00000     0.00000     1.25520  0.0
    388    367    368    369   5     0.00000     0.00000     1.25520  0.0
    388    367    368    389   5     0.00000     0.00000     1.25520  0.0
    388    367    368    390   5     0.00000     0.00000     1.25520  0.0
    367    368    369    370   5     5.25092    -2.58990     2.28446  0.0
    367    368    369    391   5     0.00000     0.00000     1.25520  0.0
    367    368    369    392   5     0.00000     0.00000     1.25520  0.0
    389    368    369    370   5     0.00000     0.00000     1.95811  0.0
    389    368    369    391   5     0.00000     0.00000     1.25520  0.0
    389    368    369    392   5     0.00000     0.00000     1.25520  0.0
    390    368    369    370   5     0.00000     0.00000     1.95811  0.0
    390    368    369    391   5     0.00000     0.00000     1.25520  0.0
    390    368    369    392   5     0.00000     0.00000     1.25520  0.0
    368    369    370    371   5    -2.16731    -3.93296     0.98324  0.0
    391    369    370    371   5     0.00000     0.00000     0.67362  0.0
    392    369    370    371   5     0.00000     0.00000     0.67362  0.0
    369    370    371    372   5     0.00000    25.10400     0.00000  0.0
    369    370    371    373   5    13.65239    24.43456     0.00000  0.0
    370    371    373    339   5     0.00000     0.00000     3.07524  0.0
    370    371    373    374   5     0.00000     0.00000     3.07524  0.0
    370    371    373    375   5     0.00000     0.00000     3.07524  0.0
    372    371    373    339   5     0.00000     2.52295     0.00000  0.0
    372    371    373    374   5     0.00000     2.52295     0.00000  0.0
    372    371    373    375   5     0.00000     2.52295     0.00000  0.0
    339    373    374    393   5     0.00000     0.00000     1.25520  0.0
    339    373    374    394   5     0.00000     0.00000     1.25520  0.0
    339    373    374    395   5     0.00000     0.00000     1.25520  0.0
    371    373    374    393   5     0.00000     0.00000    -0.94140  0.0
    371    373    374    394   5     0.00000     0.00000    -0.94140  0.0
    371    373    374    395   5     0.00000     0.00000    -0.94140  0.0
    375    373    374    393   5     0.00000     0.00000     1.25520  0.0
    375    373    374    394   5     0.00000     0.00000     1.25520  0.0
    375    373    374    395   5     0.00000     0.00000     1.25520  0.0
    339    373    375    396   5     0.00000     0.00000     1.25520  0.0
    339    373    375    397   5     0.00000     0.00000     1.25520  0.0
    339    373    375    409   5     4.74884    -0.63178     1.67360  0.0
    371    373    375    396   5     0.00000     0.00000    -0.94140  0.0
    371    373    375    397   5     0.00000     0.00000    -0.94140  0.0
    371    373    375    409   5    -8.00818    -1.52298     2.46438  0.0
    374    373    375    396   5     0.00000     0.00000     1.25520  0.0
    374    373    375    397   5     0.00000     0.00000     1.25520  0.0
    374    373    375    409   5     4.74884    -0.63178     1.67360  0.0
    373    375    409    407   5    -8.00818    -1.52298     2.46438  0.0
    373    375    409    410   5     4.74884    -0.63178     1.67360  0.0
    373    375    409    411   5     4.74884    -0.63178     1.67360  0.0
    396    375    409    407   5     0.00000     0.00000    -0.94140  0.0
    396    375    409    410   5     0.00000     0.00000     1.25520  0.0
    396    375    409    411   5     0.00000     0.00000     1.25520  0.0
    397    375    409    407   5     0.00000     0.00000    -0.94140  0.0
    397    375    409    410   5     0.00000     0.00000     1.25520  0.0
    397    375    409    411   5     0.00000     0.00000     1.25520  0.0
    412    398    399    400   5     0.00000     0.00000     1.25520  0.0
    412    398    399    415   5     0.00000     0.00000     1.25520  0.0
    412    398    399    416   5     0.00000     0.00000     1.25520  0.0
    413    398    399    400   5     0.00000     0.00000     1.25520  0.0
    413    398    399    415   5     0.00000     0.00000     1.25520  0.0
    413    398    399    416   5     0.00000     0.00000     1.25520  0.0
    414    398    399    400   5     0.00000     0.00000     1.25520  0.0
    414    398    399    415   5     0.00000     0.00000     1.25520  0.0
    414    398    399    416   5     0.00000     0.00000     1.25520  0.0
    398    399    400    401   5     4.74884    -0.63178     1.67360  0.0
    398    399    400    417   5     0.00000     0.00000     1.25520  0.0
    398    399    400    418   5     0.00000     0.00000     1.25520  0.0
    415    399    400    401   5     0.00000     0.00000     1.25520  0.0
    415    399    400    417   5     0.00000     0.00000     1.25520  0.0
    415    399    400    418   5     0.00000     0.00000     1.25520  0.0
    416    399    400    401   5     0.00000     0.00000     1.25520  0.0
    416    399    400    417   5     0.00000     0.00000     1.25520  0.0
    416    399    400    418   5     0.00000     0.00000     1.25520  0.0
    399    400    401    402   5     4.74884    -0.63178     1.67360  0.0
    399    400    401    419   5     0.00000     0.00000     1.25520  0.0
    399    400    401    420   5     0.00000     0.00000     1.25520  0.0
    417    400    401    402   5     0.00000     0.00000     1.25520  0.0
    417    400    401    419   5     0.00000     0.00000     1.25520  0.0
    417    400    401    420   5     0.00000     0.00000     1.25520  0.0
    418    400    401    402   5     0.00000     0.00000     1.25520  0.0
    418    400    401    419   5     0.00000     0.00000     1.25520  0.0
    418    400    401    420   5     0.00000     0.00000     1.25520  0.0
    400    401    402    403   5     4.74884    -0.63178     1.67360  0.0
    400    401    402    421   5     0.00000     0.00000     1.25520  0.0
    400    401    402    422   5     0.00000     0.00000     1.25520  0.0
    419    401    402    403   5     0.00000     0.00000     1.25520  0.0
    419    401    402    421   5     0.00000     0.00000     1.25520  0.0
    419    401    402    422   5     0.00000     0.00000     1.25520  0.0
    420    401    402    403   5     0.00000     0.00000     1.25520  0.0
    420    401    402    421   5     0.00000     0.00000     1.25520  0.0
    420    401    402    422   5     0.00000     0.00000     1.25520  0.0
    401    402    403    404   5     4.74884    -0.63178     1.67360  0.0
    401    402    403    423   5     0.00000     0.00000     1.25520  0.0
    401    402    403    424   5     0.00000     0.00000     1.25520  0.0
    421    402    403    404   5     0.00000     0.00000     1.25520  0.0
    421    402    403    423   5     0.00000     0.00000     1.25520  0.0
    421    402    403    424   5     0.00000     0.00000     1.25520  0.0
    422    402    403    404   5     0.00000     0.00000     1.25520  0.0
    422    402    403    423   5     0.00000     0.00000     1.25520  0.0
    422    402    403    424   5     0.00000     0.00000     1.25520  0.0
    402    403    404    405   5     4.74884    -0.63178     1.67360  0.0
    402    403    404    425   5     0.00000     0.00000     1.25520  0.0
    402    403    404    426   5     0.00000     0.00000     1.25520  0.0
    423    403    404    405   5     0.00000     0.00000     1.25520  0.0
    423    403    404    425   5     0.00000     0.00000     1.25520  0.0
    423    403    404    426   5     0.00000     0.00000     1.25520  0.0
    424    403    404    405   5     0.00000     0.00000     1.25520  0.0
    424    403    404    425   5     0.00000     0.00000     1.25520  0.0
    424    403    404    426   5     0.00000     0.00000     1.25520  0.0
    403    404    405    406   5     5.25092    -2.58990     2.28446  0.0
    403    404    405    427   5     0.00000     0.00000     1.25520  0.0
    403    404    405    428   5     0.00000     0.00000     1.25520  0.0
    425    404    405    406   5     0.00000     0.00000     1.95811  0.0
    425    404    405    427   5     0.00000     0.00000     1.25520  0.0
    425    404    405    428   5     0.00000     0.00000     1.25520  0.0
    426    404    405    406   5     0.00000     0.00000     1.95811  0.0
    426    404    405    427   5     0.00000     0.00000     1.25520  0.0
    426    404    405    428   5     0.00000     0.00000     1.25520  0.0
    404    405    406    407   5    -2.16731    -3.93296     0.98324  0.0
    427    405    406    407   5     0.00000     0.00000     0.67362  0.0
    428    405    406    407   5     0.00000     0.00000     0.67362  0.0
    405    406    407    408   5     0.00000    25.10400     0.00000  0.0
    405    406    407    409   5    13.65239    24.43456     0.00000  0.0
    406    407    409    375   5     0.00000     0.00000     3.07524  0.0
    406    407    409    410   5     0.00000     0.00000     3.07524  0.0
    406    407    409    411   5     0.00000     0.00000     3.07524  0.0
    408    407    409    375   5     0.00000     2.52295     0.00000  0.0
    408    407    409    410   5     0.00000     2.52295     0.00000  0.0
    408    407    409    411   5     0.00000     2.52295     0.00000  0.0
    375    409    410    429   5     0.00000     0.00000     1.25520  0.0
    375    409    410    430   5     0.00000     0.00000     1.25520  0.0
    375    409    410    431   5     0.00000     0.00000     1.25520  0.0
    407    409    410    429   5     0.00000     0.00000    -0.94140  0.0
    407    409    410    430   5     0.00000     0.00000    -0.94140  0.0
    407    409    410    431   5     0.00000     0.00000    -0.94140  0.0
    411    409    410    429   5     0.00000     0.00000     1.25520  0.0
    411    409    410    430   5     0.00000     0.00000     1.25520  0.0
    411    409    410    431   5     0.00000     0.00000     1.25520  0.0
    375    409    411    432   5     0.00000     0.00000     1.25520  0.0
    375    409    411    433   5     0.00000     0.00000     1.25520  0.0
    375    409    411    445   5     4.74884    -0.63178     1.67360  0.0
    407    409    411    432   5     0.00000     0.00000    -0.94140  0.0
    407    409    411    433   5     0.00000     0.00000    -0.94140  0.0
    407    409    411    445   5    -8.00818    -1.52298     2.46438  0.0
    410    409    411    432   5     0.00000     0.00000     1.25520  0.0
    410    409    411    433   5     0.00000     0.00000     1.25520  0.0
    410    409    411    445   5     4.74884    -0.63178     1.67360  0.0
    409    411    445    443   5    -8.00818    -1.52298     2.46438  0.0
    409    411    445    446   5     4.74884    -0.63178     1.67360  0.0
    409    411    445    447   5     4.74884    -0.63178     1.67360  0.0
    432    411    445    443   5     0.00000     0.00000    -0.94140  0.0
    432    411    445    446   5     0.00000     0.00000     1.25520  0.0
    432    411    445    447   5     0.00000     0.00000     1.25520  0.0
    433    411    445    443   5     0.00000     0.00000    -0.94140  0.0
    433    411    445    446   5     0.00000     0.00000     1.25520  0.0
    433    411    445    447   5     0.00000     0.00000     1.25520  0.0
    448    434    435    436   5     0.00000     0.00000     1.25520  0.0
    448    434    435    451   5     0.00000     0.00000     1.25520  0.0
    448    434    435    452   5     0.00000     0.00000     1.25520  0.0
    449    434    435    436   5     0.00000     0.00000     1.25520  0.0
    449    434    435    451   5     0.00000     0.00000     1.25520  0.0
    449    434    435    452   5     0.00000     0.00000     1.25520  0.0
    450    434    435    436   5     0.00000     0.00000     1.25520  0.0
    450    434    435    451   5     0.00000     0.00000     1.25520  0.0
    450    434    435    452   5     0.00000     0.00000     1.25520  0.0
    434    435    436    437   5     4.74884    -0.63178     1.67360  0.0
    434    435    436    453   5     0.00000     0.00000     1.25520  0.0
    434    435    436    454   5     0.00000     0.00000     1.25520  0.0
    451    435    436    437   5     0.00000     0.00000     1.25520  0.0
    451    435    436    453   5     0.00000     0.00000     1.25520  0.0
    451    435    436    454   5     0.00000     0.00000     1.25520  0.0
    452    435    436    437   5     0.00000     0.00000     1.25520  0.0
    452    435    436    453   5     0.00000     0.00000     1.25520  0.0
    452    435    436    454   5     0.00000     0.00000     1.25520  0.0
    435    436    437    438   5     4.74884    -0.63178     1.67360  0.0
    435    436    437    455   5     0.00000     0.00000     1.25520  0.0
    435    436    437    456   5     0.00000     0.00000     1.25520  0.0
    453    436    437    438   5     0.00000     0.00000     1.25520  0.0
    453    436    437    455   5     0.00000     0.00000     1.25520  0.0
    453    436    437    456   5     0.00000     0.00000     1.25520  0.0
    454    436    437    438   5     0.00000     0.00000     1.25520  0.0
    454    436    437    455   5     0.00000     0.00000     1.25520  0.0
    454    436    437    456   5     0.00000     0.00000     1.25520  0.0
    436    437    438    439   5     4.74884    -0.63178     1.67360  0.0
    436    437    438    457   5     0.00000     0.00000     1.25520  0.0
    436    437    438    458   5     0.00000     0.00000     1.25520  0.0
    455    437    438    439   5     0.00000     0.00000     1.25520  0.0
    455    437    438    457   5     0.00000     0.00000     1.25520  0.0
    455    437    438    458   5     0.00000     0.00000     1.25520  0.0
    456    437    438    439   5     0.00000     0.00000     1.25520  0.0
    456    437    438    457   5     0.00000     0.00000     1.25520  0.0
    456    437    438    458   5     0.00000     0.00000     1.25520  0.0
    437    438    439    440   5     4.74884    -0.63178     1.67360  0.0
    437    438    439    459   5     0.00000     0.00000     1.25520  0.0
    437    438    439    460   5     0.00000     0.00000     1.25520  0.0
    457    438    439    440   5     0.00000     0.00000     1.25520  0.0
    457    438    439    459   5     0.00000     0.00000     1.25520  0.0
    457    438    439    460   5     0.00000     0.00000     1.25520  0.0
    458    438    439    440   5     0.00000     0.00000     1.25520  0.0
    458    438    439    459   5     0.00000     0.00000     1.25520  0.0
    458    438    439    460   5     0.00000     0.00000     1.25520  0.0
    438    439    440    441   5     4.74884    -0.63178     1.67360  0.0
    438    439    440    461   5     0.00000     0.00000     1.25520  0.0
    438    439    440    462   5     0.00000     0.00000     1.25520  0.0
    459    439    440    441   5     0.00000     0.00000     1.25520  0.0
    459    439    440    461   5     0.00000     0.00000     1.25520  0.0
    459    439    440    462   5     0.00000     0.00000     1.25520  0.0
    460    439    440    441   5     0.00000     0.00000     1.25520  0.0
    460    439    440    461   5     0.00000     0.00000     1.25520  0.0
    460    439    440    462   5     0.00000     0.00000     1.25520  0.0
    439    440    441    442   5     5.25092    -2.58990     2.28446  0.0
    439    440    441    463   5     0.00000     0.00000     1.25520  0.0
    439    440    441    464   5     0.00000     0.00000     1.25520  0.0
    461    440    441    442   5     0.00000     0.00000     1.95811  0.0
    461    440    441    463   5     0.00000     0.00000     1.25520  0.0
    461    440    441    464   5     0.00000     0.00000     1.25520  0.0
    462    440    441    442   5     0.00000     0.00000     1.95811  0.0
    462    440    441    463   5     0.00000     0.00000     1.25520  0.0
    462    440    441    464   5     0.00000     0.00000     1.25520  0.0
    440    441    442    443   5    -2.16731    -3.93296     0.98324  0.0
    463    441    442    443   5     0.00000     0.00000     0.67362  0.0
    464    441    442    443   5     0.00000     0.00000     0.67362  0.0
    441    442    443    444   5     0.00000    25.10400     0.00000  0.0
    441    442    443    445   5    13.65239    24.43456     0.00000  0.0
    442    443    445    411   5     0.00000     0.00000     3.07524  0.0
    442    443    445    446   5     0.00000     0.00000     3.07524  0.0
    442    443    445    447   5     0.00000     0.00000     3.07524  0.0
    444    443    445    411   5     0.00000     2.52295     0.00000  0.0
    444    443    445    446   5     0.00000     2.52295     0.00000  0.0
    444    443    445    447   5     0.00000     2.52295     0.00000  0.0
    411    445    446    465   5     0.00000     0.00000     1.25520  0.0
    411    445    446    466   5     0.00000     0.00000     1.25520  0.0
    411    445    446    467   5     0.00000     0.00000     1.25520  0.0
    443    445    446    465   5     0.00000     0.00000    -0.94140  0.0
    443    445    446    466   5     0.00000     0.00000    -0.94140  0.0
    443    445    446    467   5     0.00000     0.00000    -0.94140  0.0
    447    445    446    465   5     0.00000     0.00000     1.25520  0.0
    447    445    446    466   5     0.00000     0.00000     1.25520  0.0
    447    445    446    467   5     0.00000     0.00000     1.25520  0.0
    411    445    447    468   5     0.00000     0.00000     1.25520  0.0
    411    445    447    469   5     0.00000     0.00000     1.25520  0.0
    411    445    447    481   5     4.74884    -0.63178     1.67360  0.0
    443    445    447    468   5     0.00000     0.00000    -0.94140  0.0
    443    445    447    469   5     0.00000     0.00000    -0.94140  0.0
    443    445    447    481   5    -8.00818    -1.52298     2.46438  0.0
    446    445    447    468   5     0.00000     0.00000     1.25520  0.0
    446    445    447    469   5     0.00000     0.00000     1.25520  0.0
    446    445    447    481   5     4.74884    -0.63178     1.67360  0.0
    445    447    481    479   5    -8.00818    -1.52298     2.46438  0.0
    445    447    481    482   5     4.74884    -0.63178     1.67360  0.0
    445    447    481    483   5     4.74884    -0.63178     1.67360  0.0
    468    447    481    479   5     0.00000     0.00000    -0.94140  0.0
    468    447    481    482   5     0.00000     0.00000     1.25520  0.0
    468    447    481    483   5     0.00000     0.00000     1.25520  0.0
    469    447    481    479   5     0.00000     0.00000    -0.94140  0.0
    469    447    481    482   5     0.00000     0.00000     1.25520  0.0
    469    447    481    483   5     0.00000     0.00000     1.25520  0.0
    484    470    471    472   5     0.00000     0.00000     1.25520  0.0
    484    470    471    487   5     0.00000     0.00000     1.25520  0.0
    484    470    471    488   5     0.00000     0.00000     1.25520  0.0
    485    470    471    472   5     0.00000     0.00000     1.25520  0.0
    485    470    471    487   5     0.00000     0.00000     1.25520  0.0
    485    470    471    488   5     0.00000     0.00000     1.25520  0.0
    486    470    471    472   5     0.00000     0.00000     1.25520  0.0
    486    470    471    487   5     0.00000     0.00000     1.25520  0.0
    486    470    471    488   5     0.00000     0.00000     1.25520  0.0
    470    471    472    473   5     4.74884    -0.63178     1.67360  0.0
    470    471    472    489   5     0.00000     0.00000     1.25520  0.0
    470    471    472    490   5     0.00000     0.00000     1.25520  0.0
    487    471    472    473   5     0.00000     0.00000     1.25520  0.0
    487    471    472    489   5     0.00000     0.00000     1.25520  0.0
    487    471    472    490   5     0.00000     0.00000     1.25520  0.0
    488    471    472    473   5     0.00000     0.00000     1.25520  0.0
    488    471    472    489   5     0.00000     0.00000     1.25520  0.0
    488    471    472    490   5     0.00000     0.00000     1.25520  0.0
    471    472    473    474   5     4.74884    -0.63178     1.67360  0.0
    471    472    473    491   5     0.00000     0.00000     1.25520  0.0
    471    472    473    492   5     0.00000     0.00000     1.25520  0.0
    489    472    473    474   5     0.00000     0.00000     1.25520  0.0
    489    472    473    491   5     0.00000     0.00000     1.25520  0.0
    489    472    473    492   5     0.00000     0.00000     1.25520  0.0
    490    472    473    474   5     0.00000     0.00000     1.25520  0.0
    490    472    473    491   5     0.00000     0.00000     1.25520  0.0
    490    472    473    492   5     0.00000     0.00000     1.25520  0.0
    472    473    474    475   5     4.74884    -0.63178     1.67360  0.0
    472    473    474    493   5     0.00000     0.00000     1.25520  0.0
    472    473    474    494   5     0.00000     0.00000     1.25520  0.0
    491    473    474    475   5     0.00000     0.00000     1.25520  0.0
    491    473    474    493   5     0.00000     0.00000     1.25520  0.0
    491    473    474    494   5     0.00000     0.00000     1.25520  0.0
    492    473    474    475   5     0.00000     0.00000     1.25520  0.0
    492    473    474    493   5     0.00000     0.00000     1.25520  0.0
    492    473    474    494   5     0.00000     0.00000     1.25520  0.0
    473    474    475    476   5     4.74884    -0.63178     1.67360  0.0
    473    474    475    495   5     0.00000     0.00000     1.25520  0.0
    473    474    475    496   5     0.00000     0.00000     1.25520  0.0
    493    474    475    476   5     0.00000     0.00000     1.25520  0.0
    493    474    475    495   5     0.00000     0.00000     1.25520  0.0
    493    474    475    496   5     0.00000     0.00000     1.25520  0.0
    494    474    475    476   5     0.00000     0.00000     1.25520  0.0
    494    474    475    495   5     0.00000     0.00000     1.25520  0.0
    494    474    475    496   5     0.00000     0.00000     1.25520  0.0
    474    475    476    477   5     4.74884    -0.63178     1.67360  0.0
    474    475    476    497   5     0.00000     0.00000     1.25520  0.0
    474    475    476    498   5     0.00000     0.00000     1.25520  0.0
    495    475    476    477   5     0.00000     0.00000     1.25520  0.0
    495    475    476    497   5     0.00000     0.00000     1.25520  0.0
    495    475    476    498   5     0.00000     0.00000     1.25520  0.0
    496    475    476    477   5     0.00000     0.00000     1.25520  0.0
    496    475    476    497   5     0.00000     0.00000     1.25520  0.0
    496    475    476    498   5     0.00000     0.00000     1.25520  0.0
    475    476    477    478   5     5.25092    -2.58990     2.28446  0.0
    475    476    477    499   5     0.00000     0.00000     1.25520  0.0
    475    476    477    500   5     0.00000     0.00000     1.25520  0.0
    497    476    477    478   5     0.00000     0.00000     1.95811  0.0
    497    476    477    499   5     0.00000     0.00000     1.25520  0.0
    497    476    477    500   5     0.00000     0.00000     1.25520  0.0
    498    476    477    478   5     0.00000     0.00000     1.95811  0.0
    498    476    477    499   5     0.00000     0.00000     1.25520  0.0
    498    476    477    500   5     0.00000     0.00000     1.25520  0.0
    476    477    478    479   5    -2.16731    -3.93296     0.98324  0.0
    499    477    478    479   5     0.00000     0.00000     0.67362  0.0
    500    477    478    479   5     0.00000     0.00000     0.67362  0.0
    477    478    479    480   5     0.00000    25.10400     0.00000  0.0
    477    478    479    481   5    13.65239    24.43456     0.00000  0.0
    478    479    481    447   5     0.00000     0.00000     3.07524  0.0
    478    479    481    482   5     0.00000     0.00000     3.07524  0.0
    478    479    481    483   5     0.00000     0.00000     3.07524  0.0
    480    479    481    447   5     0.00000     2.52295     0.00000  0.0
    480    479    481    482   5     0.00000     2.52295     0.00000  0.0
    480    479    481    483   5     0.00000     2.52295     0.00000  0.0
    447    481    482    501   5     0.00000     0.00000     1.25520  0.0
    447    481    482    502   5     0.00000     0.00000     1.25520  0.0
    447    481    482    503   5     0.00000     0.00000     1.25520  0.0
    479    481    482    501   5     0.00000     0.00000    -0.94140  0.0
    479    481    482    502   5     0.00000     0.00000    -0.94140  0.0
    479    481    482    503   5     0.00000     0.00000    -0.94140  0.0
    483    481    482    501   5     0.00000     0.00000     1.25520  0.0
    483    481    482    502   5     0.00000     0.00000     1.25520  0.0
    483    481    482    503   5     0.00000     0.00000     1.25520  0.0
    447    481    483    504   5     0.00000     0.00000     1.25520  0.0
    447    481    483    505   5     0.00000     0.00000     1.25520  0.0
    447    481    483    517   5     4.74884    -0.63178     1.67360  0.0
    479    481    483    504   5     0.00000     0.00000    -0.94140  0.0
    479    481    483    505   5     0.00000     0.00000    -0.94140  0.0
    479    481    483    517   5    -8.00818    -1.52298     2.46438  0.0
    482    481    483    504   5     0.00000     0.00000     1.25520  0.0
    482    481    483    505   5     0.00000     0.00000     1.25520  0.0
    482    481    483    517   5     4.74884    -0.63178     1.67360  0.0
    481    483    517    515   5    -8.00818    -1.52298     2.46438  0.0
    481    483    517    518   5     4.74884    -0.63178     1.67360  0.0
    481    483    517    519   5     4.74884    -0.63178     1.67360  0.0
    504    483    517    515   5     0.00000     0.00000    -0.94140  0.0
    504    483    517    518   5     0.00000     0.00000     1.25520  0.0
    504    483    517    519   5     0.00000     0.00000     1.25520  0.0
    505    483    517    515   5     0.00000     0.00000    -0.94140  0.0
    505    483    517    518   5     0.00000     0.00000     1.25520  0.0
    505    483    517    519   5     0.00000     0.00000     1.25520  0.0
    520    506    507    508   5     0.00000     0.00000     1.25520  0.0
    520    506    507    523   5     0.00000     0.00000     1.25520  0.0
    520    506    507    524   5     0.00000     0.00000     1.25520  0.0
    521    506    507    508   5     0.00000     0.00000     1.25520  0.0
    521    506    507    523   5     0.00000     0.00000     1.25520  0.0
    521    506    507    524   5     0.00000     0.00000     1.25520  0.0
    522    506    507    508   5     0.00000     0.00000     1.25520  0.0
    522    506    507    523   5     0.00000     0.00000     1.25520  0.0
    522    506    507    524   5     0.00000     0.00000     1.25520  0.0
    506    507    508    509   5     4.74884    -0.63178     1.67360  0.0
    506    507    508    525   5     0.00000     0.00000     1.25520  0.0
    506    507    508    526   5     0.00000     0.00000     1.25520  0.0
    523    507    508    509   5     0.00000     0.00000     1.25520  0.0
    523    507    508    525   5     0.00000     0.00000     1.25520  0.0
    523    507    508    526   5     0.00000     0.00000     1.25520  0.0
    524    507    508    509   5     0.00000     0.00000     1.25520  0.0
    524    507    508    525   5     0.00000     0.00000     1.25520  0.0
    524    507    508    526   5     0.00000     0.00000     1.25520  0.0
    507    508    509    510   5     4.74884    -0.63178     1.67360  0.0
    507    508    509    527   5     0.00000     0.00000     1.25520  0.0
    507    508    509    528   5     0.00000     0.00000     1.25520  0.0
    525    508    509    510   5     0.00000     0.00000     1.25520  0.0
    525    508    509    527   5     0.00000     0.00000     1.25520  0.0
    525    508    509    528   5     0.00000     0.00000     1.25520  0.0
    526    508    509    510   5     0.00000     0.00000     1.25520  0.0
    526    508    509    527   5     0.00000     0.00000     1.25520  0.0
    526    508    509    528   5     0.00000     0.00000     1.25520  0.0
    508    509    510    511   5     4.74884    -0.63178     1.67360  0.0
    508    509    510    529   5     0.00000     0.00000     1.25520  0.0
    508    509    510    530   5     0.00000     0.00000     1.25520  0.0
    527    509    510    511   5     0.00000     0.00000     1.25520  0.0
    527    509    510    529   5     0.00000     0.00000     1.25520  0.0
    527    509    510    530   5     0.00000     0.00000     1.25520  0.0
    528    509    510    511   5     0.00000     0.00000     1.25520  0.0
    528    509    510    529   5     0.00000     0.00000     1.25520  0.0
    528    509    510    530   5     0.00000     0.00000     1.25520  0.0
    509    510    511    512   5     4.74884    -0.63178     1.67360  0.0
    509    510    511    531   5     0.00000     0.00000     1.25520  0.0
    509    510    511    532   5     0.00000     0.00000     1.25520  0.0
    529    510    511    512   5     0.00000     0.00000     1.25520  0.0
    529    510    511    531   5     0.00000     0.00000     1.25520  0.0
    529    510    511    532   5     0.00000     0.00000     1.25520  0.0
    530    510    511    512   5     0.00000     0.00000     1.25520  0.0
    530    510    511    531   5     0.00000     0.00000     1.25520  0.0
    530    510    511    532   5     0.00000     0.00000     1.25520  0.0
    510    511    512    513   5     4.74884    -0.63178     1.67360  0.0
    510    511    512    533   5     0.00000     0.00000     1.25520  0.0
    510    511    512    534   5     0.00000     0.00000     1.25520  0.0
    531    511    512    513   5     0.00000     0.00000     1.25520  0.0
    531    511    512    533   5     0.00000     0.00000     1.25520  0.0
    531    511    512    534   5     0.00000     0.00000     1.25520  0.0
    532    511    512    513   5     0.00000     0.00000     1.25520  0.0
    532    511    512    533   5     0.00000     0.00000     1.25520  0.0
    532    511    512    534   5     0.00000     0.00000     1.25520  0.0
    511    512    513    514   5     5.25092    -2.58990     2.28446  0.0
    511    512    513    535   5     0.00000     0.00000     1.25520  0.0
    511    512    513    536   5     0.00000     0.00000     1.25520  0.0
    533    512    513    514   5     0.00000     0.00000     1.95811  0.0
    533    512    513    535   5     0.00000     0.00000     1.25520  0.0
    533    512    513    536   5     0.00000     0.00000     1.25520  0.0
    534    512    513    514   5     0.00000     0.00000     1.95811  0.0
    534    512    513    535   5     0.00000     0.00000     1.25520  0.0
    534    512    513    536   5     0.00000     0.00000     1.25520  0.0
    512    513    514    515   5    -2.16731    -3.93296     0.98324  0.0
    535    513    514    515   5     0.00000     0.00000     0.67362  0.0
    536    513    514    515   5     0.00000     0.00000     0.67362  0.0
    513    514    515    516   5     0.00000    25.10400     0.00000  0.0
    513    514    515    517   5    13.65239    24.43456     0.00000  0.0
    514    515    517    483   5     0.00000     0.00000     3.07524  0.0
    514    515    517    518   5     0.00000     0.00000     3.07524  0.0
    514    515    517    519   5     0.00000     0.00000     3.07524  0.0
    516    515    517    483   5     0.00000     2.52295     0.00000  0.0
    516    515    517    518   5     0.00000     2.52295     0.00000  0.0
    516    515    517    519   5     0.00000     2.52295     0.00000  0.0
    483    517    518    537   5     0.00000     0.00000     1.25520  0.0
    483    517    518    538   5     0.00000     0.00000     1.25520  0.0
    483    517    518    539   5     0.00000     0.00000     1.25520  0.0
    515    517    518    537   5     0.00000     0.00000    -0.94140  0.0
    515    517    518    538   5     0.00000     0.00000    -0.94140  0.0
    515    517    518    539   5     0.00000     0.00000    -0.94140  0.0
    519    517    518    537   5     0.00000     0.00000     1.25520  0.0
    519    517    518    538   5     0.00000     0.00000     1.25520  0.0
    519    517    518    539   5     0.00000     0.00000     1.25520  0.0
    483    517    519    540   5     0.00000     0.00000     1.25520  0.0
    483    517    519    541   5     0.00000     0.00000     1.25520  0.0
    483    517    519    553   5     4.74884    -0.63178     1.67360  0.0
    515    517    519    540   5     0.00000     0.00000    -0.94140  0.0
    515    517    519    541   5     0.00000     0.00000    -0.94140  0.0
    515    517    519    553   5    -8.00818    -1.52298     2.46438  0.0
    518    517    519    540   5     0.00000     0.00000     1.25520  0.0
    518    517    519    541   5     0.00000     0.00000     1.25520  0.0
    518    517    519    553   5     4.74884    -0.63178     1.67360  0.0
    517    519    553    551   5    -8.00818    -1.52298     2.46438  0.0
    517    519    553    554   5     4.74884    -0.63178     1.67360  0.0
    517    519    553    555   5     4.74884    -0.63178     1.67360  0.0
    540    519    553    551   5     0.00000     0.00000    -0.94140  0.0
    540    519    553    554   5     0.00000     0.00000     1.25520  0.0
    540    519    553    555   5     0.00000     0.00000     1.25520  0.0
    541    519    553    551   5     0.00000     0.00000    -0.94140  0.0
    541    519    553    554   5     0.00000     0.00000     1.25520  0.0
    541    519    553    555   5     0.00000     0.00000     1.25520  0.0
    556    542    543    544   5     0.00000     0.00000     1.25520  0.0
    556    542    543    559   5     0.00000     0.00000     1.25520  0.0
    556    542    543    560   5     0.00000     0.00000     1.25520  0.0
    557    542    543    544   5     0.00000     0.00000     1.25520  0.0
    557    542    543    559   5     0.00000     0.00000     1.25520  0.0
    557    542    543    560   5     0.00000     0.00000     1.25520  0.0
    558    542    543    544   5     0.00000     0.00000     1.25520  0.0
    558    542    543    559   5     0.00000     0.00000     1.25520  0.0
    558    542    543    560   5     0.00000     0.00000     1.25520  0.0
    542    543    544    545   5     4.74884    -0.63178     1.67360  0.0
    542    543    544    561   5     0.00000     0.00000     1.25520  0.0
    542    543    544    562   5     0.00000     0.00000     1.25520  0.0
    559    543    544    545   5     0.00000     0.00000     1.25520  0.0
    559    543    544    561   5     0.00000     0.00000     1.25520  0.0
    559    543    544    562   5     0.00000     0.00000     1.25520  0.0
    560    543    544    545   5     0.00000     0.00000     1.25520  0.0
    560    543    544    561   5     0.00000     0.00000     1.25520  0.0
    560    543    544    562   5     0.00000     0.00000     1.25520  0.0
    543    544    545    546   5     4.74884    -0.63178     1.67360  0.0
    543    544    545    563   5     0.00000     0.00000     1.25520  0.0
    543    544    545    564   5     0.00000     0.00000     1.25520  0.0
    561    544    545    546   5     0.00000     0.00000     1.25520  0.0
    561    544    545    563   5     0.00000     0.00000     1.25520  0.0
    561    544    545    564   5     0.00000     0.00000     1.25520  0.0
    562    544    545    546   5     0.00000     0.00000     1.25520  0.0
    562    544    545    563   5     0.00000     0.00000     1.25520  0.0
    562    544    545    564   5     0.00000     0.00000     1.25520  0.0
    544    545    546    547   5     4.74884    -0.63178     1.67360  0.0
    544    545    546    565   5     0.00000     0.00000     1.25520  0.0
    544    545    546    566   5     0.00000     0.00000     1.25520  0.0
    563    545    546    547   5     0.00000     0.00000     1.25520  0.0
    563    545    546    565   5     0.00000     0.00000     1.25520  0.0
    563    545    546    566   5     0.00000     0.00000     1.25520  0.0
    564    545    546    547   5     0.00000     0.00000     1.25520  0.0
    564    545    546    565   5     0.00000     0.00000     1.25520  0.0
    564    545    546    566   5     0.00000     0.00000     1.25520  0.0
    545    546    547    548   5     4.74884    -0.63178     1.67360  0.0
    545    546    547    567   5     0.00000     0.00000     1.25520  0.0
    545    546    547    568   5     0.00000     0.00000     1.25520  0.0
    565    546    547    548   5     0.00000     0.00000     1.25520  0.0
    565    546    547    567   5     0.00000     0.00000     1.25520  0.0
    565    546    547    568   5     0.00000     0.00000     1.25520  0.0
    566    546    547    548   5     0.00000     0.00000     1.25520  0.0
    566    546    547    567   5     0.00000     0.00000     1.25520  0.0
    566    546    547    568   5     0.00000     0.00000     1.25520  0.0
    546    547    548    549   5     4.74884    -0.63178     1.67360  0.0
    546    547    548    569   5     0.00000     0.00000     1.25520  0.0
    546    547    548    570   5     0.00000     0.00000     1.25520  0.0
    567    547    548    549   5     0.00000     0.00000     1.25520  0.0
    567    547    548    569   5     0.00000     0.00000     1.25520  0.0
    567    547    548    570   5     0.00000     0.00000     1.25520  0.0
    568    547    548    549   5     0.00000     0.00000     1.25520  0.0
    568    547    548    569   5     0.00000     0.00000     1.25520  0.0
    568    547    548    570   5     0.00000     0.00000     1.25520  0.0
    547    548    549    550   5     5.25092    -2.58990     2.28446  0.0
    547    548    549    571   5     0.00000     0.00000     1.25520  0.0
    547    548    549    572   5     0.00000     0.00000     1.25520  0.0
    569    548    549    550   5     0.00000     0.00000     1.95811  0.0
    569    548    549    571   5     0.00000     0.00000     1.25520  0.0
    569    548    549    572   5     0.00000     0.00000     1.25520  0.0
    570    548    549    550   5     0.00000     0.00000     1.95811  0.0
    570    548    549    571   5     0.00000     0.00000     1.25520  0.0
    570    548    549    572   5     0.00000     0.00000     1.25520  0.0
    548    549    550    551   5    -2.16731    -3.93296     0.98324  0.0
    571    549    550    551   5     0.00000     0.00000     0.67362  0.0
    572    549    550    551   5     0.00000     0.00000     0.67362  0.0
    549    550    551    552   5     0.00000    25.10400     0.00000  0.0
    549    550    551    553   5    13.65239    24.43456     0.00000  0.0
    550    551    553    519   5     0.00000     0.00000     3.07524  0.0
    550    551    553    554   5     0.00000     0.00000     3.07524  0.0
    550    551    553    555   5     0.00000     0.00000     3.07524  0.0
    552    551    553    519   5     0.00000     2.52295     0.00000  0.0
    552    551    553    554   5     0.00000     2.52295     0.00000  0.0
    552    551    553    555   5     0.00000     2.52295     0.00000  0.0
    519    553    554    573   5     0.00000     0.00000     1.25520  0.0
    519    553    554    574   5     0.00000     0.00000     1.25520  0.0
    519    553    554    575   5     0.00000     0.00000     1.25520  0.0
    551    553    554    573   5     0.00000     0.00000    -0.94140  0.0
    551    553    554    574   5     0.00000     0.00000    -0.94140  0.0
    551    553    554    575   5     0.00000     0.00000    -0.94140  0.0
    555    553    554    573   5     0.00000     0.00000     1.25520  0.0
    555    553    554    574   5     0.00000     0.00000     1.25520  0.0
    555    553    554    575   5     0.00000     0.00000     1.25520  0.0
    519    553    555    576   5     0.00000     0.00000     1.25520  0.0
    519    553    555    577   5     0.00000     0.00000     1.25520  0.0
    519    553    555    589   5     4.74884    -0.63178     1.67360  0.0
    551    553    555    576   5     0.00000     0.00000    -0.94140  0.0
    551    553    555    577   5     0.00000     0.00000    -0.94140  0.0
    551    553    555    589   5    -8.00818    -1.52298     2.46438  0.0
    554    553    555    576   5     0.00000     0.00000     1.25520  0.0
    554    553    555    577   5     0.00000     0.00000     1.25520  0.0
    554    553    555    589   5     4.74884    -0.63178     1.67360  0.0
    553    555    589    587   5    -8.00818    -1.52298     2.46438  0.0
    553    555    589    590   5     4.74884    -0.63178     1.67360  0.0
    553    555    589    591   5     4.74884    -0.63178     1.67360  0.0
    576    555    589    587   5     0.00000     0.00000    -0.94140  0.0
    576    555    589    590   5     0.00000     0.00000     1.25520  0.0
    576    555    589    591   5     0.00000     0.00000     1.25520  0.0
    577    555    589    587   5     0.00000     0.00000    -0.94140  0.0
    577    555    589    590   5     0.00000     0.00000     1.25520  0.0
    577    555    589    591   5     0.00000     0.00000     1.25520  0.0
    592    578    579    580   5     0.00000     0.00000     1.25520  0.0
    592    578    579    595   5     0.00000     0.00000     1.25520  0.0
    592    578    579    596   5     0.00000     0.00000     1.25520  0.0
    593    578    579    580   5     0.00000     0.00000     1.25520  0.0
    593    578    579    595   5     0.00000     0.00000     1.25520  0.0
    593    578    579    596   5     0.00000     0.00000     1.25520  0.0
    594    578    579    580   5     0.00000     0.00000     1.25520  0.0
    594    578    579    595   5     0.00000     0.00000     1.25520  0.0
    594    578    579    596   5     0.00000     0.00000     1.25520  0.0
    578    579    580    581   5     4.74884    -0.63178     1.67360  0.0
    578    579    580    597   5     0.00000     0.00000     1.25520  0.0
    578    579    580    598   5     0.00000     0.00000     1.25520  0.0
    595    579    580    581   5     0.00000     0.00000     1.25520  0.0
    595    579    580    597   5     0.00000     0.00000     1.25520  0.0
    595    579    580    598   5     0.00000     0.00000     1.25520  0.0
    596    579    580    581   5     0.00000     0.00000     1.25520  0.0
    596    579    580    597   5     0.00000     0.00000     1.25520  0.0
    596    579    580    598   5     0.00000     0.00000     1.25520  0.0
    579    580    581    582   5     4.74884    -0.63178     1.67360  0.0
    579    580    581    599   5     0.00000     0.00000     1.25520  0.0
    579    580    581    600   5     0.00000     0.00000     1.25520  0.0
    597    580    581    582   5     0.00000     0.00000     1.25520  0.0
    597    580    581    599   5     0.00000     0.00000     1.25520  0.0
    597    580    581    600   5     0.00000     0.00000     1.25520  0.0
    598    580    581    582   5     0.00000     0.00000     1.25520  0.0
    598    580    581    599   5     0.00000     0.00000     1.25520  0.0
    598    580    581    600   5     0.00000     0.00000     1.25520  0.0
    580    581    582    583   5     4.74884    -0.63178     1.67360  0.0
    580    581    582    601   5     0.00000     0.00000     1.25520  0.0
    580    581    582    602   5     0.00000     0.00000     1.25520  0.0
    599    581    582    583   5     0.00000     0.00000     1.25520  0.0
    599    581    582    601   5     0.00000     0.00000     1.25520  0.0
    599    581    582    602   5     0.00000     0.00000     1.25520  0.0
    600    581    582    583   5     0.00000     0.00000     1.25520  0.0
    600    581    582    601   5     0.00000     0.00000     1.25520  0.0
    600    581    582    602   5     0.00000     0.00000     1.25520  0.0
    581    582    583    584   5     4.74884    -0.63178     1.67360  0.0
    581    582    583    603   5     0.00000     0.00000     1.25520  0.0
    581    582    583    604   5     0.00000     0.00000     1.25520  0.0
    601    582    583    584   5     0.00000     0.00000     1.25520  0.0
    601    582    583    603   5     0.00000     0.00000     1.25520  0.0
    601    582    583    604   5     0.00000     0.00000     1.25520  0.0
    602    582    583    584   5     0.00000     0.00000     1.25520  0.0
    602    582    583    603   5     0.00000     0.00000     1.25520  0.0
    602    582    583    604   5     0.00000     0.00000     1.25520  0.0
    582    583    584    585   5     4.74884    -0.63178     1.67360  0.0
    582    583    584    605   5     0.00000     0.00000     1.25520  0.0
    582    583    584    606   5     0.00000     0.00000     1.25520  0.0
    603    583    584    585   5     0.00000     0.00000     1.25520  0.0
    603    583    584    605   5     0.00000     0.00000     1.25520  0.0
    603    583    584    606   5     0.00000     0.00000     1.25520  0.0
    604    583    584    585   5     0.00000     0.00000     1.25520  0.0
    604    583    584    605   5     0.00000     0.00000     1.25520  0.0
    604    583    584    606   5     0.00000     0.00000     1.25520  0.0
    583    584    585    586   5     5.25092    -2.58990     2.28446  0.0
    583    584    585    607   5     0.00000     0.00000     1.25520  0.0
    583    584    585    608   5     0.00000     0.00000     1.25520  0.0
    605    584    585    586   5     0.00000     0.00000     1.95811  0.0
    605    584    585    607   5     0.00000     0.00000     1.25520  0.0
    605    584    585    608   5     0.00000     0.00000     1.25520  0.0
    606    584    585    586   5     0.00000     0.00000     1.95811  0.0
    606    584    585    607   5     0.00000     0.00000     1.25520  0.0
    606    584    585    608   5     0.00000     0.00000     1.25520  0.0
    584    585    586    587   5    -2.16731    -3.93296     0.98324  0.0
    607    585    586    587   5     0.00000     0.00000     0.67362  0.0
    608    585    586    587   5     0.00000     0.00000     0.67362  0.0
    585    586    587    588   5     0.00000    25.10400     0.00000  0.0
    585    586    587    589   5    13.65239    24.43456     0.00000  0.0
    586    587    589    555   5     0.00000     0.00000     3.07524  0.0
    586    587    589    590   5     0.00000     0.00000     3.07524  0.0
    586    587    589    591   5     0.00000     0.00000     3.07524  0.0
    588    587    589    555   5     0.00000     2.52295     0.00000  0.0
    588    587    589    590   5     0.00000     2.52295     0.00000  0.0
    588    587    589    591   5     0.00000     2.52295     0.00000  0.0
    555    589    590    609   5     0.00000     0.00000     1.25520  0.0
    555    589    590    610   5     0.00000     0.00000     1.25520  0.0
    555    589    590    611   5     0.00000     0.00000     1.25520  0.0
    587    589    590    609   5     0.00000     0.00000    -0.94140  0.0
    587    589    590    610   5     0.00000     0.00000    -0.94140  0.0
    587    589    590    611   5     0.00000     0.00000    -0.94140  0.0
    591    589    590    609   5     0.00000     0.00000     1.25520  0.0
    591    589    590    610   5     0.00000     0.00000     1.25520  0.0
    591    589    590    611   5     0.00000     0.00000     1.25520  0.0
    555    589    591    612   5     0.00000     0.00000     1.25520  0.0
    555    589    591    613   5     0.00000     0.00000     1.25520  0.0
    555    589    591    625   5     4.74884    -0.63178     1.67360  0.0
    587    589    591    612   5     0.00000     0.00000    -0.94140  0.0
    587    589    591    613   5     0.00000     0.00000    -0.94140  0.0
    587    589    591    625   5    -8.00818    -1.52298     2.46438  0.0
    590    589    591    612   5     0.00000     0.00000     1.25520  0.0
    590    589    591    613   5     0.00000     0.00000     1.25520  0.0
    590    589    591    625   5     4.74884    -0.63178     1.67360  0.0
    589    591    625    623   5    -8.00818    -1.52298     2.46438  0.0
    589    591    625    626   5     4.74884    -0.63178     1.67360  0.0
    589    591    625    627   5     4.74884    -0.63178     1.67360  0.0
    612    591    625    623   5     0.00000     0.00000    -0.94140  0.0
    612    591    625    626   5     0.00000     0.00000     1.25520  0.0
    612    591    625    627   5     0.00000     0.00000     1.25520  0.0
    613    591    625    623   5     0.00000     0.00000    -0.94140  0.0
    613    591    625    626   5     0.00000     0.00000     1.25520  0.0
    613    591    625    627   5     0.00000     0.00000     1.25520  0.0
    628    614    615    616   5     0.00000     0.00000     1.25520  0.0
    628    614    615    631   5     0.00000     0.00000     1.25520  0.0
    628    614    615    632   5     0.00000     0.00000     1.25520  0.0
    629    614    615    616   5     0.00000     0.00000     1.25520  0.0
    629    614    615    631   5     0.00000     0.00000     1.25520  0.0
    629    614    615    632   5     0.00000     0.00000     1.25520  0.0
    630    614    615    616   5     0.00000     0.00000     1.25520  0.0
    630    614    615    631   5     0.00000     0.00000     1.25520  0.0
    630    614    615    632   5     0.00000     0.00000     1.25520  0.0
    614    615    616    617   5     4.74884    -0.63178     1.67360  0.0
    614    615    616    633   5     0.00000     0.00000     1.25520  0.0
    614    615    616    634   5     0.00000     0.00000     1.25520  0.0
    631    615    616    617   5     0.00000     0.00000     1.25520  0.0
    631    615    616    633   5     0.00000     0.00000     1.25520  0.0
    631    615    616    634   5     0.00000     0.00000     1.25520  0.0
    632    615    616    617   5     0.00000     0.00000     1.25520  0.0
    632    615    616    633   5     0.00000     0.00000     1.25520  0.0
    632    615    616    634   5     0.00000     0.00000     1.25520  0.0
    615    616    617    618   5     4.74884    -0.63178     1.67360  0.0
    615    616    617    635   5     0.00000     0.00000     1.25520  0.0
    615    616    617    636   5     0.00000     0.00000     1.25520  0.0
    633    616    617    618   5     0.00000     0.00000     1.25520  0.0
    633    616    617    635   5     0.00000     0.00000     1.25520  0.0
    633    616    617    636   5     0.00000     0.00000     1.25520  0.0
    634    616    617    618   5     0.00000     0.00000     1.25520  0.0
    634    616    617    635   5     0.00000     0.00000     1.25520  0.0
    634    616    617    636   5     0.00000     0.00000     1.25520  0.0
    616    617    618    619   5     4.74884    -0.63178     1.67360  0.0
    616    617    618    637   5     0.00000     0.00000     1.25520  0.0
    616    617    618    638   5     0.00000     0.00000     1.25520  0.0
    635    617    618    619   5     0.00000     0.00000     1.25520  0.0
    635    617    618    637   5     0.00000     0.00000     1.25520  0.0
    635    617    618    638   5     0.00000     0.00000     1.25520  0.0
    636    617    618    619   5     0.00000     0.00000     1.25520  0.0
    636    617    618    637   5     0.00000     0.00000     1.25520  0.0
    636    617    618    638   5     0.00000     0.00000     1.25520  0.0
    617    618    619    620   5     4.74884    -0.63178     1.67360  0.0
    617    618    619    639   5     0.00000     0.00000     1.25520  0.0
    617    618    619    640   5     0.00000     0.00000     1.25520  0.0
    637    618    619    620   5     0.00000     0.00000     1.25520  0.0
    637    618    619    639   5     0.00000     0.00000     1.25520  0.0
    637    618    619    640   5     0.00000     0.00000     1.25520  0.0
    638    618    619    620   5     0.00000     0.00000     1.25520  0.0
    638    618    619    639   5     0.00000     0.00000     1.25520  0.0
    638    618    619    640   5     0.00000     0.00000     1.25520  0.0
    618    619    620    621   5     4.74884    -0.63178     1.67360  0.0
    618    619    620    641   5     0.00000     0.00000     1.25520  0.0
    618    619    620    642   5     0.00000     0.00000     1.25520  0.0
    639    619    620    621   5     0.00000     0.00000     1.25520  0.0
    639    619    620    641   5     0.00000     0.00000     1.25520  0.0
    639    619    620    642   5     0.00000     0.00000     1.25520  0.0
    640    619    620    621   5     0.00000     0.00000     1.25520  0.0
    640    619    620    641   5     0.00000     0.00000     1.25520  0.0
    640    619    620    642   5     0.00000     0.00000     1.25520  0.0
    619    620    621    622   5     5.25092    -2.58990     2.28446  0.0
    619    620    621    643   5     0.00000     0.00000     1.25520  0.0
    619    620    621    644   5     0.00000     0.00000     1.25520  0.0
    641    620    621    622   5     0.00000     0.00000     1.95811  0.0
    641    620    621    643   5     0.00000     0.00000     1.25520  0.0
    641    620    621    644   5     0.00000     0.00000     1.25520  0.0
    642    620    621    622   5     0.00000     0.00000     1.95811  0.0
    642    620    621    643   5     0.00000     0.00000     1.25520  0.0
    642    620    621    644   5     0.00000     0.00000     1.25520  0.0
    620    621    622    623   5    -2.16731    -3.93296     0.98324  0.0
    643    621    622    623   5     0.00000     0.00000     0.67362  0.0
    644    621    622    623   5     0.00000     0.00000     0.67362  0.0
    621    622    623    624   5     0.00000    25.10400     0.00000  0.0
    621    622    623    625   5    13.65239    24.43456     0.00000  0.0
    622    623    625    591   5     0.00000     0.00000     3.07524  0.0
    622    623    625    626   5     0.00000     0.00000     3.07524  0.0
    622    623    625    627   5     0.00000     0.00000     3.07524  0.0
    624    623    625    591   5     0.00000     2.52295     0.00000  0.0
    624    623    625    626   5     0.00000     2.52295     0.00000  0.0
    624    623    625    627   5     0.00000     2.52295     0.00000  0.0
    591    625    626    645   5     0.00000     0.00000     1.25520  0.0
    591    625    626    646   5     0.00000     0.00000     1.25520  0.0
    591    625    626    647   5     0.00000     0.00000     1.25520  0.0
    623    625    626    645   5     0.00000     0.00000    -0.94140  0.0
    623    625    626    646   5     0.00000     0.00000    -0.94140  0.0
    623    625    626    647   5     0.00000     0.00000    -0.94140  0.0
    627    625    626    645   5     0.00000     0.00000     1.25520  0.0
    627    625    626    646   5     0.00000     0.00000     1.25520  0.0
    627    625    626    647   5     0.00000     0.00000     1.25520  0.0
    591    625    627    648   5     0.00000     0.00000     1.25520  0.0
    591    625    627    649   5     0.00000     0.00000     1.25520  0.0
    591    625    627    661   5     4.74884    -0.63178     1.67360  0.0
    623    625    627    648   5     0.00000     0.00000    -0.94140  0.0
    623    625    627    649   5     0.00000     0.00000    -0.94140  0.0
    623    625    627    661   5    -8.00818    -1.52298     2.46438  0.0
    626    625    627    648   5     0.00000     0.00000     1.25520  0.0
    626    625    627    649   5     0.00000     0.00000     1.25520  0.0
    626    625    627    661   5     4.74884    -0.63178     1.67360  0.0
    625    627    661    659   5    -8.00818    -1.52298     2.46438  0.0
    625    627    661    662   5     4.74884    -0.63178     1.67360  0.0
    625    627    661    663   5     4.74884    -0.63178     1.67360  0.0
    648    627    661    659   5     0.00000     0.00000    -0.94140  0.0
    648    627    661    662   5     0.00000     0.00000     1.25520  0.0
    648    627    661    663   5     0.00000     0.00000     1.25520  0.0
    649    627    661    659   5     0.00000     0.00000    -0.94140  0.0
    649    627    661    662   5     0.00000     0.00000     1.25520  0.0
    649    627    661    663   5     0.00000     0.00000     1.25520  0.0
    664    650    651    652   5     0.00000     0.00000     1.25520  0.0
    664    650    651    667   5     0.00000     0.00000     1.25520  0.0
    664    650    651    668   5     0.00000     0.00000     1.25520  0.0
    665    650    651    652   5     0.00000     0.00000     1.25520  0.0
    665    650    651    667   5     0.00000     0.00000     1.25520  0.0
    665    650    651    668   5     0.00000     0.00000     1.25520  0.0
    666    650    651    652   5     0.00000     0.00000     1.25520  0.0
    666    650    651    667   5     0.00000     0.00000     1.25520  0.0
    666    650    651    668   5     0.00000     0.00000     1.25520  0.0
    650    651    652    653   5     4.74884    -0.63178     1.67360  0.0
    650    651    652    669   5     0.00000     0.00000     1.25520  0.0
    650    651    652    670   5     0.00000     0.00000     1.25520  0.0
    667    651    652    653   5     0.00000     0.00000     1.25520  0.0
    667    651    652    669   5     0.00000     0.00000     1.25520  0.0
    667    651    652    670   5     0.00000     0.00000     1.25520  0.0
    668    651    652    653   5     0.00000     0.00000     1.25520  0.0
    668    651    652    669   5     0.00000     0.00000     1.25520  0.0
    668    651    652    670   5     0.00000     0.00000     1.25520  0.0
    651    652    653    654   5     4.74884    -0.63178     1.67360  0.0
    651    652    653    671   5     0.00000     0.00000     1.25520  0.0
    651    652    653    672   5     0.00000     0.00000     1.25520  0.0
    669    652    653    654   5     0.00000     0.00000     1.25520  0.0
    669    652    653    671   5     0.00000     0.00000     1.25520  0.0
    669    652    653    672   5     0.00000     0.00000     1.25520  0.0
    670    652    653    654   5     0.00000     0.00000     1.25520  0.0
    670    652    653    671   5     0.00000     0.00000     1.25520  0.0
    670    652    653    672   5     0.00000     0.00000     1.25520  0.0
    652    653    654    655   5     4.74884    -0.63178     1.67360  0.0
    652    653    654    673   5     0.00000     0.00000     1.25520  0.0
    652    653    654    674   5     0.00000     0.00000     1.25520  0.0
    671    653    654    655   5     0.00000     0.00000     1.25520  0.0
    671    653    654    673   5     0.00000     0.00000     1.25520  0.0
    671    653    654    674   5     0.00000     0.00000     1.25520  0.0
    672    653    654    655   5     0.00000     0.00000     1.25520  0.0
    672    653    654    673   5     0.00000     0.00000     1.25520  0.0
    672    653    654    674   5     0.00000     0.00000     1.25520  0.0
    653    654    655    656   5     4.74884    -0.63178     1.67360  0.0
    653    654    655    675   5     0.00000     0.00000     1.25520  0.0
    653    654    655    676   5     0.00000     0.00000     1.25520  0.0
    673    654    655    656   5     0.00000     0.00000     1.25520  0.0
    673    654    655    675   5     0.00000     0.00000     1.25520  0.0
    673    654    655    676   5     0.00000     0.00000     1.25520  0.0
    674    654    655    656   5     0.00000     0.00000     1.25520  0.0
    674    654    655    675   5     0.00000     0.00000     1.25520  0.0
    674    654    655    676   5     0.00000     0.00000     1.25520  0.0
    654    655    656    657   5     4.74884    -0.63178     1.67360  0.0
    654    655    656    677   5     0.00000     0.00000     1.25520  0.0
    654    655    656    678   5     0.00000     0.00000     1.25520  0.0
    675    655    656    657   5     0.00000     0.00000     1.25520  0.0
    675    655    656    677   5     0.00000     0.00000     1.25520  0.0
    675    655    656    678   5     0.00000     0.00000     1.25520  0.0
    676    655    656    657   5     0.00000     0.00000     1.25520  0.0
    676    655    656    677   5     0.00000     0.00000     1.25520  0.0
    676    655    656    678   5     0.00000     0.00000     1.25520  0.0
    655    656    657    658   5     5.25092    -2.58990     2.28446  0.0
    655    656    657    679   5     0.00000     0.00000     1.25520  0.0
    655    656    657    680   5     0.00000     0.00000     1.25520  0.0
    677    656    657    658   5     0.00000     0.00000     1.95811  0.0
    677    656    657    679   5     0.00000     0.00000     1.25520  0.0
    677    656    657    680   5     0.00000     0.00000     1.25520  0.0
    678    656    657    658   5     0.00000     0.00000     1.95811  0.0
    678    656    657    679   5     0.00000     0.00000     1.25520  0.0
    678    656    657    680   5     0.00000     0.00000     1.25520  0.0
    656    657    658    659   5    -2.16731    -3.93296     0.98324  0.0
    679    657    658    659   5     0.00000     0.00000     0.67362  0.0
    680    657    658    659   5     0.00000     0.00000     0.67362  0.0
    657    658    659    660   5     0.00000    25.10400     0.00000  0.0
    657    658    659    661   5    13.65239    24.43456     0.00000  0.0
    658    659    661    627   5     0.00000     0.00000     3.07524  0.0
    658    659    661    662   5     0.00000     0.00000     3.07524  0.0
    658    659    661    663   5     0.00000     0.00000     3.07524  0.0
    660    659    661    627   5     0.00000     2.52295     0.00000  0.0
    660    659    661    662   5     0.00000     2.52295     0.00000  0.0
    660    659    661    663   5     0.00000     2.52295     0.00000  0.0
    627    661    662    681   5     0.00000     0.00000     1.25520  0.0
    627    661    662    682   5     0.00000     0.00000     1.25520  0.0
    627    661    662    683   5     0.00000     0.00000     1.25520  0.0
    659    661    662    681   5     0.00000     0.00000    -0.94140  0.0
    659    661    662    682   5     0.00000     0.00000    -0.94140  0.0
    659    661    662    683   5     0.00000     0.00000    -0.94140  0.0
    663    661    662    681   5     0.00000     0.00000     1.25520  0.0
    663    661    662    682   5     0.00000     0.00000     1.25520  0.0
    663    661    662    683   5     0.00000     0.00000     1.25520  0.0
    627    661    663    684   5     0.00000     0.00000     1.25520  0.0
    627    661    663    685   5     0.00000     0.00000     1.25520  0.0
    627    661    663    697   5     4.74884    -0.63178     1.67360  0.0
    659    661    663    684   5     0.00000     0.00000    -0.94140  0.0
    659    661    663    685   5     0.00000     0.00000    -0.94140  0.0
    659    661    663    697   5    -8.00818    -1.52298     2.46438  0.0
    662    661    663    684   5     0.00000     0.00000     1.25520  0.0
    662    661    663    685   5     0.00000     0.00000     1.25520  0.0
    662    661    663    697   5     4.74884    -0.63178     1.67360  0.0
    661    663    697    695   5    -8.00818    -1.52298     2.46438  0.0
    661    663    697    698   5     4.74884    -0.63178     1.67360  0.0
    661    663    697    699   5     4.74884    -0.63178     1.67360  0.0
    684    663    697    695   5     0.00000     0.00000    -0.94140  0.0
    684    663    697    698   5     0.00000     0.00000     1.25520  0.0
    684    663    697    699   5     0.00000     0.00000     1.25520  0.0
    685    663    697    695   5     0.00000     0.00000    -0.94140  0.0
    685    663    697    698   5     0.00000     0.00000     1.25520  0.0
    685    663    697    699   5     0.00000     0.00000     1.25520  0.0
    700    686    687    688   5     0.00000     0.00000     1.25520  0.0
    700    686    687    703   5     0.00000     0.00000     1.25520  0.0
    700    686    687    704   5     0.00000     0.00000     1.25520  0.0
    701    686    687    688   5     0.00000     0.00000     1.25520  0.0
    701    686    687    703   5     0.00000     0.00000     1.25520  0.0
    701    686    687    704   5     0.00000     0.00000     1.25520  0.0
    702    686    687    688   5     0.00000     0.00000     1.25520  0.0
    702    686    687    703   5     0.00000     0.00000     1.25520  0.0
    702    686    687    704   5     0.00000     0.00000     1.25520  0.0
    686    687    688    689   5     4.74884    -0.63178     1.67360  0.0
    686    687    688    705   5     0.00000     0.00000     1.25520  0.0
    686    687    688    706   5     0.00000     0.00000     1.25520  0.0
    703    687    688    689   5     0.00000     0.00000     1.25520  0.0
    703    687    688    705   5     0.00000     0.00000     1.25520  0.0
    703    687    688    706   5     0.00000     0.00000     1.25520  0.0
    704    687    688    689   5     0.00000     0.00000     1.25520  0.0
    704    687    688    705   5     0.00000     0.00000     1.25520  0.0
    704    687    688    706   5     0.00000     0.00000     1.25520  0.0
    687    688    689    690   5     4.74884    -0.63178     1.67360  0.0
    687    688    689    707   5     0.00000     0.00000     1.25520  0.0
    687    688    689    708   5     0.00000     0.00000     1.25520  0.0
    705    688    689    690   5     0.00000     0.00000     1.25520  0.0
    705    688    689    707   5     0.00000     0.00000     1.25520  0.0
    705    688    689    708   5     0.00000     0.00000     1.25520  0.0
    706    688    689    690   5     0.00000     0.00000     1.25520  0.0
    706    688    689    707   5     0.00000     0.00000     1.25520  0.0
    706    688    689    708   5     0.00000     0.00000     1.25520  0.0
    688    689    690    691   5     4.74884    -0.63178     1.67360  0.0
    688    689    690    709   5     0.00000     0.00000     1.25520  0.0
    688    689    690    710   5     0.00000     0.00000     1.25520  0.0
    707    689    690    691   5     0.00000     0.00000     1.25520  0.0
    707    689    690    709   5     0.00000     0.00000     1.25520  0.0
    707    689    690    710   5     0.00000     0.00000     1.25520  0.0
    708    689    690    691   5     0.00000     0.00000     1.25520  0.0
    708    689    690    709   5     0.00000     0.00000     1.25520  0.0
    708    689    690    710   5     0.00000     0.00000     1.25520  0.0
    689    690    691    692   5     4.74884    -0.63178     1.67360  0.0
    689    690    691    711   5     0.00000     0.00000     1.25520  0.0
    689    690    691    712   5     0.00000     0.00000     1.25520  0.0
    709    690    691    692   5     0.00000     0.00000     1.25520  0.0
    709    690    691    711   5     0.00000     0.00000     1.25520  0.0
    709    690    691    712   5     0.00000     0.00000     1.25520  0.0
    710    690    691    692   5     0.00000     0.00000     1.25520  0.0
    710    690    691    711   5     0.00000     0.00000     1.25520  0.0
    710    690    691    712   5     0.00000     0.00000     1.25520  0.0
    690    691    692    693   5     4.74884    -0.63178     1.67360  0.0
    690    691    692    713   5     0.00000     0.00000     1.25520  0.0
    690    691    692    714   5     0.00000     0.00000     1.25520  0.0
    711    691    692    693   5     0.00000     0.00000     1.25520  0.0
    711    691    692    713   5     0.00000     0.00000     1.25520  0.0
    711    691    692    714   5     0.00000     0.00000     1.25520  0.0
    712    691    692    693   5     0.00000     0.00000     1.25520  0.0
    712    691    692    713   5     0.00000     0.00000     1.25520  0.0
    712    691    692    714   5     0.00000     0.00000     1.25520  0.0
    691    692    693    694   5     5.25092    -2.58990     2.28446  0.0
    691    692    693    715   5     0.00000     0.00000     1.25520  0.0
    691    692    693    716   5     0.00000     0.00000     1.25520  0.0
    713    692    693    694   5     0.00000     0.00000     1.95811  0.0
    713    692    693    715   5     0.00000     0.00000     1.25520  0.0
    713    692    693    716   5     0.00000     0.00000     1.25520  0.0
    714    692    693    694   5     0.00000     0.00000     1.95811  0.0
    714    692    693    715   5     0.00000     0.00000     1.25520  0.0
    714    692    693    716   5     0.00000     0.00000     1.25520  0.0
    692    693    694    695   5    -2.16731    -3.93296     0.98324  0.0
    715    693    694    695   5     0.00000     0.00000     0.67362  0.0
    716    693    694    695   5     0.00000     0.00000     0.67362  0.0
    693    694    695    696   5     0.00000    25.10400     0.00000  0.0
    693    694    695    697   5    13.65239    24.43456     0.00000  0.0
    694    695    697    663   5     0.00000     0.00000     3.07524  0.0
    694    695    697    698   5     0.00000     0.00000     3.07524  0.0
    694    695    697    699   5     0.00000     0.00000     3.07524  0.0
    696    695    697    663   5     0.00000     2.52295     0.00000  0.0
    696    695    697    698   5     0.00000     2.52295     0.00000  0.0
    696    695    697    699   5     0.00000     2.52295     0.00000  0.0
    663    697    698    717   5     0.00000     0.00000     1.25520  0.0
    663    697    698    718   5     0.00000     0.00000     1.25520  0.0
    663    697    698    719   5     0.00000     0.00000     1.25520  0.0
    695    697    698    717   5     0.00000     0.00000    -0.94140  0.0
    695    697    698    718   5     0.00000     0.00000    -0.94140  0.0
    695    697    698    719   5     0.00000     0.00000    -0.94140  0.0
    699    697    698    717   5     0.00000     0.00000     1.25520  0.0
    699    697    698    718   5     0.00000     0.00000     1.25520  0.0
    699    697    698    719   5     0.00000     0.00000     1.25520  0.0
    663    697    699    720   5     0.00000     0.00000     1.25520  0.0
    663    697    699    721   5     0.00000     0.00000     1.25520  0.0
    663    697    699    722   5     0.00000     0.00000     1.25520  0.0
    695    697    699    720   5     0.00000     0.00000    -0.94140  0.0
    695    697    699    721   5     0.00000     0.00000    -0.94140  0.0
    695    697    699    722   5     0.00000     0.00000    -0.94140  0.0
    698    697    699    720   5     0.00000     0.00000     1.25520  0.0
    698    697    699    721   5     0.00000     0.00000     1.25520  0.0
    698    697    699    722   5     0.00000     0.00000     1.25520  0.0

[ dihedrals ]
; Improper dihedrals
; h   i   j   k   funct
      9     11     10     12   5     0.00000    87.86400     0.00000  0.0
     46     48     47     49   5     0.00000    87.86400     0.00000  0.0
     82     84     83     85   5     0.00000    87.86400     0.00000  0.0
    118    120    119    121   5     0.00000    87.86400     0.00000  0.0
    154    156    155    157   5     0.00000    87.86400     0.00000  0.0
    190    192    191    193   5     0.00000    87.86400     0.00000  0.0
    226    228    227    229   5     0.00000    87.86400     0.00000  0.0
    262    264    263    265   5     0.00000    87.86400     0.00000  0.0
    298    300    299    301   5     0.00000    87.86400     0.00000  0.0
    334    336    335    337   5     0.00000    87.86400     0.00000  0.0
    370    372    371    373   5     0.00000    87.86400     0.00000  0.0
    406    408    407    409   5     0.00000    87.86400     0.00000  0.0
    442    444    443    445   5     0.00000    87.86400     0.00000  0.0
    478    480    479    481   5     0.00000    87.86400     0.00000  0.0
    514    516    515    517   5     0.00000    87.86400     0.00000  0.0
    550    552    551    553   5     0.00000    87.86400     0.00000  0.0
    586    588    587    589   5     0.00000    87.86400     0.00000  0.0
    622    624    623    625   5     0.00000    87.86400     0.00000  0.0
    658    660    659    661   5     0.00000    87.86400     0.00000  0.0
    694    696    695    697   5     0.00000    87.86400     0.00000  0.0
