Control file title. For DL_FIELD 4.10
49818
    1MOL     C1    1   1.653   3.754   1.514 -0.4438  0.2464 -0.2299
    1MOL     C2    2   1.527   3.822   1.465  0.6929 -0.6577  0.4799
    1MOL     C3    3   1.466   3.765   1.337  0.4518 -0.5923 -1.1577
    1MOL     C4    4   1.451   3.616   1.332 -0.1107 -0.2862 -0.3416
    1MOL     C5    5   1.331   3.558   1.413  0.3595  0.3569 -0.0708
    1MOL     C6    6   1.205   3.643   1.375 -0.2074  0.7257 -0.4450
    1MOL     C7    7   1.074   3.578   1.442  0.0108 -0.0871  0.1509
    1MOL     C8    8   0.958   3.680   1.447 -0.0363  0.9195 -0.1317
    1MOL     O9    9   0.986   3.799   1.519 -0.0939 -0.2819 -0.5236
    1MOL    C10   10   0.890   3.849   1.605  0.5468  0.0760 -0.0574
    1MOL    O11   11   0.780   3.799   1.623 -0.0226  0.6431 -0.5777
    1MOL    C12   12   0.939   3.972   1.676  0.2404 -0.3975  0.1765
    1MOL    C13   13   1.064   3.932   1.755  0.3531  0.5424  0.2599
    1MOL    C14   14   0.963   4.091   1.580 -0.3722 -0.1917 -0.3909
    1MOL    H15   15   1.661   3.805   1.610  1.5495 -0.2555 -0.1196
    1MOL    H16   16   1.743   3.779   1.459  0.6132 -0.6297  1.0814
    1MOL    H17   17   1.640   3.649   1.542  0.4921  0.2040  0.0583
    1MOL    H18   18   1.551   3.928   1.458 -1.3791 -0.1142  1.3125
    1MOL    H19   19   1.452   3.828   1.544  0.3628  0.0534  0.1179
    1MOL    H20   20   1.384   3.823   1.295  0.7734  2.0141  1.6693
    1MOL    H21   21   1.548   3.788   1.269  1.4379 -0.9101 -0.1010
    1MOL    H22   22   1.425   3.602   1.227 -2.9385  1.9406 -0.0080
    1MOL    H23   23   1.540   3.560   1.360 -2.1207 -2.0310  3.0036
    1MOL    H24   24   1.358   3.580   1.517  2.0336 -0.8847 -0.2136
    1MOL    H25   25   1.316   3.452   1.392  0.3249  0.1941  0.7510
    1MOL    H26   26   1.205   3.645   1.266 -0.0918  0.1848 -0.4561
    1MOL    H27   27   1.211   3.747   1.407 -1.0298  0.5654  0.2657
    1MOL    H28   28   1.093   3.554   1.547 -2.6717  0.7160  0.8661
    1MOL    H29   29   1.046   3.489   1.386 -0.3476  0.2158 -0.1552
    1MOL    H30   30   0.867   3.633   1.484  0.7766 -2.1061 -1.7879
    1MOL    H31   31   0.931   3.698   1.343  0.3250  0.5435 -0.2935
    1MOL    H32   32   1.147   3.894   1.694  0.4737 -0.5977  1.1177
    1MOL    H33   33   1.108   4.009   1.820  1.0394  1.4667 -1.2725
    1MOL    H34   34   1.041   3.861   1.834 -0.1420  0.3583 -0.0491
    1MOL    H35   35   1.019   4.041   1.501  0.8379 -1.7350  1.4323
    1MOL    H36   36   1.034   4.154   1.633 -1.4971  2.3748 -1.8259
    1MOL    H37   37   0.863   4.002   1.748  2.2539  0.3758  2.0184
    1MOL    C38   38   0.523   4.224   2.614  0.1716  0.1568 -0.0858
    1MOL    C39   39   0.530   4.273   2.469 -0.0657 -0.3227  0.2650
    1MOL    C40   40   0.628   4.198   2.381 -0.8502  0.4404  0.8369
    1MOL    C41   41   0.647   4.261   2.241 -0.4136  0.0213  0.4908
    1MOL    C42   42   0.757   4.187   2.164  0.2523  0.9037 -0.3977
    1MOL    C43   43   0.766   4.240   2.019 -0.0167 -0.5686 -0.1010
    1MOL    C44   44   0.660   4.185   1.921  0.3588  0.6742 -0.0920
    1MOL    C45   45   0.640   4.290   1.806 -0.1966 -0.2805  1.3734
    1MOL    O46   46   0.747   4.263   1.711 -0.6154  0.7682 -0.2945
    1MOL    C47   47   0.731   4.186   1.606  0.6031  0.0986 -0.6717
    1MOL    O48   48   0.631   4.117   1.584  0.4247  0.1753 -0.3169
    1MOL    C49   49   0.850   4.182   1.510 -0.2053 -0.0836  0.1626
    1MOL    C50   50   0.806   4.098   1.381  0.0453 -0.6435  0.1121
    1MOL    C51   51   0.911   4.318   1.481 -0.0923 -0.1497  0.0685
    1MOL    H52   52   0.625   4.198   2.643  0.5313 -0.0817 -1.5548
    1MOL    H53   53   0.474   4.127   2.629  0.1460  0.3907  1.4558
    1MOL    H54   54   0.473   4.289   2.685 -2.3280 -1.3153 -0.4421
    1MOL    H55   55   0.562   4.377   2.469 -0.4707 -0.1858 -1.1294
    1MOL    H56   56   0.435   4.271   2.415  0.5259  2.5609 -0.9719
    1MOL    H57   57   0.726   4.184   2.426 -0.0036 -1.9115 -1.5975
    1MOL    H58   58   0.594   4.094   2.377 -0.4779  0.4041 -3.3655
    1MOL    H59   59   0.670   4.367   2.253 -1.4956  0.2551  0.5195
    1MOL    H60   60   0.555   4.265   2.183  0.0721 -1.7424 -0.4606
    1MOL    H61   61   0.852   4.207   2.213 -0.7839 -0.6971  2.4382
    1MOL    H62   62   0.734   4.081   2.160 -0.0928  0.9348  0.4972
    1MOL    H63   63   0.761   4.349   2.026 -0.3818 -0.5763 -0.2364
    1MOL    H64   64   0.857   4.223   1.962 -1.9034 -1.6585 -2.8759
    1MOL    H65   65   0.566   4.170   1.975 -0.0354 -2.8228 -1.6657
    1MOL    H66   66   0.680   4.089   1.874  0.7595 -0.2149  1.8132
    1MOL    H67   67   0.643   4.394   1.839 -0.3081 -0.1041  0.8267
    1MOL    H68   68   0.556   4.272   1.740 -0.3557 -1.9879  2.0215
    1MOL    H69   69   0.730   4.146   1.320  1.1983  1.0167 -0.0562
    1MOL    H70   70   0.893   4.077   1.318 -0.3522 -1.8433 -0.0563
    1MOL    H71   71   0.773   3.998   1.406 -0.9153 -0.6337 -1.0496
    1MOL    H72   72   1.013   4.295   1.449  0.2109 -0.5969  1.3226
    1MOL    H73   73   0.919   4.366   1.579  0.9132 -0.8166  0.3165
    1MOL    C74   74   0.518   3.766   1.415 -0.0024  0.3589 -0.4853
    1MOL    C75   75   0.553   3.808   1.265 -0.3267 -0.2529 -0.7423
    1MOL    C76   76   0.503   3.948   1.219 -0.4984 -0.4460 -0.1239
    1MOL    C77   77   0.538   3.971   1.075 -0.1534 -0.3761 -0.0125
    1MOL    C78   78   0.477   4.104   1.010  0.3946 -0.5146  0.3011
    1MOL    C79   79   0.552   4.226   1.051  0.0735 -0.1843  0.0631
    1MOL    C80   80   0.693   4.226   0.996  0.2249  0.4553  0.3520
    1MOL    C81   81   0.763   4.364   1.016 -0.5726 -0.0640 -0.1627
    1MOL    O82   82   0.755   4.401   1.155 -0.1681  0.3056 -0.0882
    1MOL    C83   83   0.862   4.379   1.233 -0.2777  0.2685 -0.0502
    1MOL    O84   84   0.971   4.328   1.200 -0.1371  0.0228 -0.3281
    1MOL    C85   85   0.837   4.417   1.382  0.5149 -0.3899  0.0876
    1MOL    C86   86   0.682   4.411   1.415  0.1215  0.1352 -0.2992
    1MOL    C87   87   0.867   4.564   1.403  0.0230  0.8360 -0.0551
    1MOL    H88   88   0.540   3.850   1.480  1.3196 -1.6051  1.6860
    1MOL    H89   89   0.580   3.682   1.448 -2.3332 -0.7795  1.1645
    1MOL    H90   90   0.414   3.749   1.446 -0.1418  2.3876  0.2041
    1MOL    H91   91   0.498   3.743   1.197 -1.1554 -0.2714 -0.0609
    1MOL    H92   92   0.661   3.797   1.260 -0.0101  2.1324  0.1448
    1MOL    H93   93   0.395   3.943   1.232 -0.1656 -2.7451  2.0819
    1MOL    H94   94   0.546   4.026   1.281  0.1590 -0.7971 -0.1351
    1MOL    H95   95   0.506   3.888   1.012 -0.2842 -0.2599 -0.1012
    1MOL    H96   96   0.646   3.975   1.059 -0.2680 -1.6868 -1.2085
    1MOL    H97   97   0.462   4.092   0.902 -0.8202  0.8628  0.3011
    1MOL    H98   98   0.382   4.123   1.060  0.6351  2.6159 -0.2893
    1MOL    H99   99   0.502   4.320   1.026 -0.9097 -1.3374 -2.3947
    1MOL   H100  100   0.560   4.226   1.160 -1.4756 -1.2699  0.1863
    1MOL   H101  101   0.758   4.150   1.039 -1.0068 -1.8277 -1.6638
    1MOL   H102  102   0.671   4.202   0.892 -0.9622  2.2117  0.1618
    1MOL   H103  103   0.704   4.435   0.958 -0.0092 -0.0913 -0.7745
    1MOL   H104  104   0.867   4.361   0.984  0.0082 -3.0829  1.8418
    1MOL   H105  105   0.636   4.317   1.384 -1.8464  1.4498 -1.4652
    1MOL   H106  106   0.627   4.484   1.356  0.7078 -1.4589 -2.9152
    1MOL   H107  107   0.661   4.435   1.519 -0.5338 -0.4984 -0.2783
    1MOL   H108  108   0.793   4.620   1.347 -0.3099  0.0287 -0.4255
    1MOL   H109  109   0.833   4.572   1.506  0.9057  0.0853  0.3054
    1MOL   C110  110   1.360   5.262   1.536 -0.8875 -0.4198  1.0103
    1MOL   C111  111   1.485   5.182   1.570 -0.2446 -0.1859  0.2538
    1MOL   C112  112   1.547   5.107   1.441 -0.2093  0.0818 -0.0235
    1MOL   C113  113   1.461   4.999   1.380 -0.3707 -0.2780  0.0245
    1MOL   C114  114   1.520   4.922   1.266  0.3139 -0.3524 -0.5208
    1MOL   C115  115   1.434   4.808   1.214  0.4081  0.4560 -0.2773
    1MOL   C116  116   1.322   4.866   1.123  0.7284 -0.5023 -0.4840
    1MOL   C117  117   1.201   4.772   1.095  0.3945 -0.3723  0.0100
    1MOL   O118  118   1.157   4.721   1.217 -0.5910 -0.0662  0.3561
    1MOL   C119  119   1.037   4.661   1.229  0.5101  0.2501  0.7303
    1MOL   O120  120   0.972   4.622   1.130 -0.5572 -0.4501 -0.6459
    1MOL   C121  121   1.009   4.630   1.379  0.2524  0.1357  0.5047
    1MOL   C122  122   1.123   4.545   1.436 -0.2899 -0.6460 -0.0133
    1MOL   C123  123   1.005   4.754   1.475  0.1504 -0.8454 -0.7835
    1MOL   H124  124   1.313   5.301   1.627  0.0064 -2.9484  2.6065
    1MOL   H125  125   1.380   5.343   1.465  1.1306  0.3605  2.4147
    1MOL   H126  126   1.282   5.199   1.493 -0.6052 -1.0452  1.4098
    1MOL   H127  127   1.456   5.111   1.648 -0.3945 -2.0639 -1.4567
    1MOL   H128  128   1.554   5.250   1.619 -1.7829  0.5072  1.4929
    1MOL   H129  129   1.642   5.058   1.460 -0.9812 -1.1028  0.8852
    1MOL   H130  130   1.560   5.176   1.358 -0.4040  1.5744  1.1504
    1MOL   H131  131   1.431   4.926   1.456  1.5675 -1.1286  0.0010
    1MOL   H132  132   1.363   5.046   1.371 -0.9915 -1.5814 -0.2700
    1MOL   H133  133   1.611   4.879   1.306  0.6148  1.5955  1.0023
    1MOL   H134  134   1.541   4.999   1.192  0.1258  0.3124  0.1055
    1MOL   H135  135   1.493   4.729   1.167  1.1900 -0.2554  1.8243
    1MOL   H136  136   1.391   4.751   1.297  0.9622  0.5194  0.0539
    1MOL   H137  137   1.364   4.892   1.025 -0.2270  3.5341  0.0734
    1MOL   H138  138   1.283   4.958   1.166 -1.4973 -1.7579  0.2193
    1MOL   H139  139   1.121   4.825   1.044  0.7466 -1.0931 -1.3148
    1MOL   H140  140   1.228   4.681   1.041  0.4950  0.1857 -0.8795
    1MOL   H141  141   1.221   4.593   1.434 -1.0778  0.9407 -2.0108
    1MOL   H142  142   1.113   4.521   1.542 -0.0179  2.6078  0.8081
    1MOL   H143  143   1.140   4.452   1.382 -0.6034 -1.3003  0.9858
    1MOL   H144  144   1.103   4.800   1.459  0.4416 -0.8118  1.0248
    1MOL   H145  145   1.012   4.727   1.580 -1.8580  0.4901 -0.2783
    1MOL   C146  146   1.526   4.549   1.527  0.1958  0.0643 -0.1238
    1MOL   C147  147   1.529   4.681   1.603  0.0464  0.6871  0.3322
    1MOL   C148  148   1.426   4.684   1.713  0.0244 -0.0650  0.6832
    1MOL   C149  149   1.443   4.809   1.795 -0.1702  0.1399  0.1426
    1MOL   C150  150   1.329   4.814   1.905  0.6218 -0.2582 -0.3621
    1MOL   C151  151   1.189   4.856   1.842  0.1859 -0.2744 -0.6383
    1MOL   C152  152   1.194   4.997   1.778 -0.0243 -0.1591 -0.2054
    1MOL   C153  153   1.061   5.054   1.752 -0.0759 -0.0520  0.4502
    1MOL   O154  154   0.991   4.959   1.671 -0.2441  0.2980  0.2161
    1MOL   C155  155   0.974   4.985   1.547  0.0502  0.5996 -0.0382
    1MOL   O156  156   1.002   5.095   1.490 -0.4373 -0.3518 -0.2525
    1MOL   C157  157   0.906   4.873   1.475  0.0970 -0.0993  0.0087
    1MOL   C158  158   0.881   4.917   1.337 -0.3818  0.1890  0.0537
    1MOL   C159  159   0.768   4.841   1.556  0.1305  0.2980  0.9487
    1MOL   H160  160   1.574   4.558   1.429  0.1210 -0.3618 -0.1997
    1MOL   H161  161   1.427   4.524   1.487  0.4640 -3.2549  1.1607
    1MOL   H162  162   1.559   4.463   1.585  2.2852 -0.3291 -1.8448
    1MOL   H163  163   1.628   4.696   1.646  1.0017  0.7476 -1.8021
    1MOL   H164  164   1.510   4.766   1.537 -0.5652  0.6621  0.4733
    1MOL   H165  165   1.440   4.599   1.779  0.6623 -0.9867 -0.6103
    1MOL   H166  166   1.326   4.663   1.676  0.0837 -0.3791  0.7010
    1MOL   H167  167   1.542   4.823   1.836  0.3159  0.5839 -1.1491
    1MOL   H168  168   1.430   4.897   1.731  1.2898 -1.3293 -2.2686
    1MOL   H169  169   1.364   4.881   1.983 -1.5098 -1.0544  1.3195
    1MOL   H170  170   1.318   4.715   1.949  0.1835 -0.0766 -0.0624
    1MOL   H171  171   1.119   4.859   1.926 -0.2111  0.9876 -1.0106
    1MOL   H172  172   1.156   4.791   1.761  0.5772  2.4013 -3.0030
    1MOL   H173  173   1.249   5.058   1.849 -1.2506  0.9697 -0.2067
    1MOL   H174  174   1.243   4.995   1.681  0.7839  1.0308  0.1793
    1MOL   H175  175   1.007   5.067   1.846  2.5795 -2.4206  2.4126
    1MOL   H176  176   1.065   5.152   1.704 -0.2715 -1.0426 -1.6073
    1MOL   H177  177   0.972   4.947   1.285  0.2087  0.5388  1.2743
    1MOL   H178  178   0.813   5.002   1.330  0.9465  1.4219  1.5969
    1MOL   H179  179   0.832   4.838   1.280  2.0366 -1.3086  0.0123
    1MOL   H180  180   0.790   4.822   1.661  1.1981 -2.7338  0.2395
    1MOL   H181  181   0.743   4.740   1.524  0.8313  0.6340 -0.7482
    1MOL   C182  182   7.570   5.304   0.885  0.0499 -0.2184 -0.3772
    1MOL   C183  183   7.638   5.167   0.869  0.0477 -0.4078  0.6053
    1MOL   C184  184   7.726   5.140   0.990 -0.2730 -0.5619 -0.2500
    1MOL   C185  185   0.001   4.999   0.970 -0.6543 -0.5756  0.5976
    1MOL   C186  186   0.078   4.941   1.093  0.1734  0.1989  0.6916
    1MOL   C187  187   0.220   5.001   1.105 -0.0639 -0.3611 -0.7373
    1MOL   C188  188   0.293   4.939   1.226  0.1238 -0.5573 -0.1477
    1MOL   C189  189   0.432   5.002   1.225  0.3797 -0.0710 -0.1433
    1MOL   O190  190   0.493   5.010   1.354 -0.4352  0.3961  0.1830
    1MOL   C191  191   0.565   4.905   1.400 -0.2609  0.2717  0.4413
    1MOL   O192  192   0.573   4.801   1.345 -0.1709 -0.4019 -0.0137
    1MOL   C193  193   0.634   4.930   1.535 -0.4731  0.5156 -0.5309
    1MOL   C194  194   0.668   5.079   1.548  0.2892  0.0566 -0.3589
    1MOL   C195  195   0.541   4.898   1.661 -0.2633 -0.1511 -0.4808
    1MOL   H196  196   7.516   5.328   0.977 -1.5581  0.0590 -1.3833
    1MOL   H197  197   7.644   5.385   0.876 -0.2907 -0.0055 -1.3121
    1MOL   H198  198   7.503   5.309   0.799 -0.9208 -2.7115  0.1943
    1MOL   H199  199   7.683   5.163   0.770  3.2412  1.2388  1.8957
    1MOL   H200  200   7.556   5.097   0.879  0.7036 -1.2486  0.1430
    1MOL   H201  201   0.022   5.219   0.995 -1.4088  0.4828  0.6233
    1MOL   H202  202   7.673   5.150   1.084 -0.1670  0.4377 -0.2915
    1MOL   H203  203   7.695   4.933   0.959 -0.5302 -0.9300  1.6658
    1MOL   H204  204   0.064   4.996   0.881 -0.3882 -1.4735  0.8078
    1MOL   H205  205   0.099   4.836   1.077  1.1285  0.4512  0.2801
    1MOL   H206  206   0.030   4.958   1.190  0.5618  0.5411  0.8253
    1MOL   H207  207   0.209   5.110   1.105 -2.1242 -0.5384 -1.4636
    1MOL   H208  208   0.275   4.990   1.012 -0.4006 -1.4114 -0.8183
    1MOL   H209  209   0.232   4.952   1.315 -1.1911 -3.6125 -0.5433
    1MOL   H210  210   0.306   4.831   1.226 -0.1450 -0.5909  0.3234
    1MOL   H211  211   0.436   5.108   1.199 -0.3729 -0.0881 -0.3309
    1MOL   H212  212   0.497   4.973   1.142 -2.4986  0.1338 -2.5592
    1MOL   H213  213   0.736   5.120   1.474  2.2787 -0.4355  1.1648
    1MOL   H214  214   0.583   5.147   1.538  0.6734  0.6700  0.4884
    1MOL   H215  215   0.706   5.098   1.648 -2.2681 -2.6143  1.2130
    1MOL   H216  216   0.611   4.911   1.744 -0.8914 -0.2798  0.0766
    1MOL   H217  217   0.469   4.978   1.675  0.0732 -0.2063  1.8609
    1MOL   C218  218   0.549   5.256   2.716  1.0849  0.3532 -0.1727
    1MOL   C219  219   0.427   5.244   2.621  0.1521 -0.2678 -0.0555
    1MOL   C220  220   0.379   5.105   2.602  0.0491 -0.2117  0.1086
    1MOL   C221  221   0.302   5.078   2.470 -0.7284 -0.5487 -1.7546
    1MOL   C222  222   0.388   5.046   2.347 -0.8645  0.2621  0.8330
    1MOL   C223  223   0.296   5.007   2.232  0.1184 -0.0065 -0.5135
    1MOL   C224  224   0.369   4.975   2.093  0.0031  0.2050 -0.1268
    1MOL   C225  225   0.298   4.863   2.016 -0.1817  0.4971 -0.0071
    1MOL   O226  226   0.343   4.859   1.884  0.0827  0.2313  0.2229
    1MOL   C227  227   0.433   4.762   1.851  0.7623 -0.5256  0.3542
    1MOL   O228  228   0.491   4.689   1.926  0.1003  0.3556 -0.1479
    1MOL   C229  229   0.456   4.766   1.690  0.5370  0.0838 -0.4034
    1MOL   C230  230   0.542   4.650   1.662  0.1306  0.3505 -0.6893
    1MOL   C231  231   0.324   4.772   1.610  0.0711  0.0130  0.3311
    1MOL   H232  232   0.640   5.204   2.684  0.3953 -1.3478  0.5927
    1MOL   H233  233   0.517   5.219   2.813  3.6218 -0.6299  0.3141
    1MOL   H234  234   0.566   5.363   2.727 -1.2401  0.8062 -0.7286
    1MOL   H235  235   0.457   5.274   2.520 -1.3428 -0.4070 -0.5531
    1MOL   H236  236   0.346   5.311   2.652  1.8843  1.8255  0.0761
    1MOL   H237  237   0.461   5.033   2.613 -0.4921 -0.5742  1.8670
    1MOL   H238  238   0.303   5.081   2.676 -0.8853 -1.7391 -1.3127
    1MOL   H239  239   0.227   4.999   2.481 -0.1758 -0.8380  0.0776
    1MOL   H240  240   0.252   5.173   2.455  2.4815  2.2107  3.5006
    1MOL   H241  241   0.447   5.131   2.314 -1.7720  0.3520 -0.5513
    1MOL   H242  242   0.460   4.968   2.374 -1.0898  0.6432  2.5960
    1MOL   H243  243   0.234   4.922   2.259 -0.0322 -0.2934 -1.7493
    1MOL   H244  244   0.230   5.089   2.204 -0.9964 -1.0165 -0.8651
    1MOL   H245  245   0.459   4.919   2.120 -1.5315 -2.4558 -0.3214
    1MOL   H246  246   0.392   5.060   2.029  0.6016 -1.6721 -2.4820
    1MOL   H247  247   0.189   4.877   2.016 -0.6884 -3.0122 -0.3385
    1MOL   H248  248   0.307   4.765   2.062 -2.3612 -0.4855 -1.5763
    1MOL   H249  249   0.642   4.665   1.702  0.3022 -1.6005 -0.3243
    1MOL   H250  250   0.552   4.620   1.558  0.1408 -0.3326 -0.4922
    1MOL   H251  251   0.510   4.552   1.698 -2.2826  0.6964 -1.8173
    1MOL   H252  252   0.281   4.872   1.614  0.3328  0.0849  1.5714
    1MOL   H253  253   0.365   4.770   1.509  1.3750 -0.1384  0.8492
    1MOL   C254  254   0.245   4.506   1.021 -0.0879 -0.2961 -0.0309
    1MOL   C255  255   0.107   4.514   1.080  0.3105 -0.2114 -0.0529
    1MOL   C256  256   0.053   4.380   1.140 -0.0226  0.2213  0.2974
    1MOL   C257  257   0.106   4.348   1.285  0.0204  0.0415 -0.1647
    1MOL   C258  258   0.249   4.282   1.282 -0.0113 -0.3885 -0.4343
    1MOL   C259  259   0.262   4.166   1.387 -0.0366 -1.0207  0.1848
    1MOL   C260  260   0.254   4.225   1.529  0.3001 -0.4817  0.7277
    1MOL   C261  261   0.362   4.336   1.546 -0.2236  0.0832  0.0980
    1MOL   O262  262   0.309   4.466   1.524  0.5721 -0.0650 -0.0014
    1MOL   C263  263   0.243   4.522   1.637 -0.5891 -0.2810  0.4827
    1MOL   O264  264   0.228   4.468   1.751 -0.0213  0.3228 -0.6631
    1MOL   C265  265   0.201   4.672   1.613 -0.5149 -0.0312  0.0395
    1MOL   C266  266   0.140   4.678   1.471  0.1125 -0.0098 -0.6106
    1MOL   C267  267   0.099   4.727   1.720  0.4497  0.9876 -0.1536
    1MOL   H268  268   0.247   4.426   0.947 -0.3593  0.9352 -1.4134
    1MOL   H269  269   0.274   4.600   0.974 -1.8892  0.2817 -0.0403
    1MOL   H270  270   0.323   4.489   1.095  1.6651  1.4850 -1.4188
    1MOL   H271  271   0.095   4.592   1.155  3.1281  0.1362  0.0770
    1MOL   H272  272   0.048   4.543   0.994  0.9042 -2.8076 -1.3876
    1MOL   H273  273   0.063   4.303   1.064 -1.0444  1.1729 -0.8041
    1MOL   H274  274   7.725   4.392   1.145  0.0659  1.0841  0.2115
    1MOL   H275  275   0.028   4.292   1.337  0.6467 -0.4903  0.2066
    1MOL   H276  276   0.109   4.444   1.335 -2.0868  0.7573 -1.3490
    1MOL   H277  277   0.262   4.233   1.185  0.2840 -2.3409  0.5702
    1MOL   H278  278   0.327   4.358   1.295  0.3518 -0.5997 -1.3005
    1MOL   H279  279   0.359   4.118   1.373  0.1995 -0.8271  1.1490
    1MOL   H280  280   0.185   4.090   1.374 -1.1633 -0.0956  1.2911
    1MOL   H281  281   0.151   4.255   1.545  0.3197 -0.4354  0.7654
    1MOL   H282  282   0.283   4.141   1.592  0.8953 -1.0517 -0.2806
    1MOL   H283  283   0.405   4.333   1.647  0.5607 -1.7462 -0.2680
    1MOL   H284  284   0.445   4.310   1.481  0.0364  0.1217  0.4164
    1MOL   H285  285   0.214   4.654   1.395 -0.8632  1.5839 -2.0941
    1MOL   H286  286   0.055   4.610   1.463 -1.7647  1.9091  1.7439
    1MOL   H287  287   0.106   4.778   1.443 -1.4890  0.8040  3.7912
    1MOL   H288  288   0.111   4.835   1.721 -1.3749  1.2173 -0.9416
    1MOL   H289  289   0.137   4.706   1.820 -1.3951  0.9779  0.5683
    1MOL   C290  290   0.462   5.456   1.449 -0.8809  0.1430 -0.5925
    1MOL   C291  291   0.369   5.492   1.332 -0.2737 -0.1816 -0.1402
    1MOL   C292  292   0.273   5.375   1.301 -0.4112  0.0391 -0.7563
    1MOL   C293  293   0.157   5.357   1.399  0.3254  0.1457 -0.0384
    1MOL   C294  294   0.072   5.232   1.367  0.6174  0.2756  0.7224
    1MOL   C295  295   7.763   5.181   1.480 -0.7465 -0.7172 -0.0674
    1MOL   C296  296   7.678   5.059   1.441  0.5548  0.4613 -0.3347
    1MOL   C297  297   7.586   4.995   1.546  0.6870  0.2624  0.3821
    1MOL   O298  298   7.659   4.906   1.632 -0.3183  0.7934  0.0364
    1MOL   C299  299   7.660   4.779   1.615  0.0830  0.5996  0.2346
    1MOL   O300  300   7.610   4.721   1.516 -0.0348  0.3217 -0.1459
    1MOL   C301  301   7.722   4.697   1.729 -0.9449  0.5413 -0.0747
    1MOL   C302  302   7.705   4.541   1.712  0.2410  0.2148 -0.4110
    1MOL   C303  303   7.677   4.745   1.872  0.5879 -0.3198  0.4165
    1MOL   H304  304   0.497   5.354   1.437  1.5329  0.9450 -0.6008
    1MOL   H305  305   0.409   5.459   1.544  0.6466  2.6505  0.2307
    1MOL   H306  306   0.546   5.525   1.454 -1.7989  1.1458  1.2514
    1MOL   H307  307   0.438   5.508   1.249 -0.2671  0.0255 -0.0942
    1MOL   H308  308   0.317   5.585   1.354  1.4752  0.9482 -0.6473
    1MOL   H309  309   0.331   5.283   1.289  0.7347  0.8046 -1.2074
    1MOL   H310  310   0.224   5.393   1.206  0.3255 -0.0013 -1.1539
    1MOL   H311  311   0.197   5.341   1.499  0.8724 -0.8377 -0.4133
    1MOL   H312  312   0.098   5.449   1.395  0.2554  0.0756 -0.6546
    1MOL   H313  313   7.777   5.251   1.290  0.8223 -2.3994 -0.2126
    1MOL   H314  314   0.131   5.149   1.329 -0.5261 -0.5913  0.8030
    1MOL   H315  315   7.695   5.256   1.520 -1.8563 -0.7475 -1.7983
    1MOL   H316  316   0.036   5.165   1.574 -0.4487 -0.1224 -0.1342
    1MOL   H317  317   7.748   4.978   1.417  0.2763  0.0928  0.0928
    1MOL   H318  318   7.614   5.088   1.357  2.6158  0.3822 -1.9876
    1MOL   H319  319   7.504   4.941   1.500  2.7268 -0.3473 -2.6774
    1MOL   H320  320   7.543   5.062   1.620  0.6781  0.9239 -0.2161
    1MOL   H321  321   7.598   4.521   1.700 -0.1150  1.4125  0.5442
    1MOL   H322  322   7.751   4.492   1.797 -0.1304  0.3646 -0.1186
    1MOL   H323  323   7.756   4.501   1.625  1.6757  0.8604  0.1231
    1MOL   H324  324   7.741   4.705   1.950 -0.4579 -0.6897  1.0926
    1MOL   H325  325   7.704   4.851   1.878 -0.2859  0.0764 -1.7352
    1MOL   C326  326   7.489   4.244   1.258  0.3245 -0.5288 -0.7675
    1MOL   C327  327   7.344   4.285   1.253 -0.0400 -0.2899 -0.3309
    1MOL   C328  328   7.258   4.248   1.378 -0.1441  0.0954 -0.6952
    1MOL   C329  329   7.300   4.329   1.503 -0.3553  0.5225  0.2061
    1MOL   C330  330   7.211   4.287   1.623 -0.5002  0.2896 -0.0798
    1MOL   C331  331   7.255   4.339   1.764 -0.3205  0.3090 -0.3555
    1MOL   C332  332   7.395   4.288   1.820 -0.5620  0.6595  0.2178
    1MOL   C333  333   7.458   4.360   1.932 -0.0555  0.2078  0.0753
    1MOL   O334  334   7.471   4.499   1.900  0.4263  0.0187 -0.1330
    1MOL   C335  335   7.521   4.583   1.988 -0.2990  0.4354 -0.3179
    1MOL   O336  336   7.559   4.552   2.104  0.2979  0.2243 -0.1621
    1MOL   C337  337   7.536   4.727   1.929 -0.2165 -0.0282 -0.4235
    1MOL   C338  338   7.539   4.822   2.054 -0.1166  0.0130 -0.1212
    1MOL   C339  339   7.415   4.772   1.830 -0.4247  0.4018  0.5473
    1MOL   H340  340   7.535   4.308   1.333  0.7598 -0.6899 -0.8972
    1MOL   H341  341   7.534   4.266   1.162  3.0378  0.8790  0.7655
    1MOL   H342  342   7.512   4.140   1.280 -1.4387 -0.7312  0.2566
    1MOL   H343  343   7.299   4.242   1.163 -1.9014  1.1646 -0.1256
    1MOL   H344  344   7.327   4.392   1.243  0.9450 -0.1816 -0.9882
    1MOL   H345  345   7.252   4.140   1.392  0.0920  0.3939  2.0000
    1MOL   H346  346   7.157   4.280   1.355 -0.8698 -1.0694  0.7275
    1MOL   H347  347   7.304   4.437   1.490  0.7047  0.2135 -2.2375
    1MOL   H348  348   7.404   4.300   1.520 -0.5863  0.6738  1.9627
    1MOL   H349  349   7.113   4.325   1.596 -0.3620  0.9583  0.3406
    1MOL   H350  350   7.210   4.178   1.627  0.8447  0.2814  0.2572
    1MOL   H351  351   7.255   4.448   1.764 -0.9917  0.3102 -0.6239
    1MOL   H352  352   7.176   4.306   1.831  0.6066  0.9979  1.1142
    1MOL   H353  353   7.462   4.300   1.734 -1.2349  0.4086 -0.3404
    1MOL   H354  354   7.401   4.184   1.850 -0.7484  0.1607 -1.4456
    1MOL   H355  355   7.395   4.368   2.021  1.2341  0.4332  0.9822
    1MOL   H356  356   7.550   4.312   1.965 -0.6510  0.8127  2.7826
    1MOL   H357  357   7.513   4.925   2.030 -0.1600 -0.1270 -0.6912
    1MOL   H358  358   7.452   4.797   2.115  0.7006  1.0037  1.4900
    1MOL   H359  359   7.632   4.806   2.107  1.0079  0.7825 -1.8222
    1MOL   H360  360   7.451   4.865   1.785 -0.3750 -0.7966 -1.9928
    1MOL   H361  361   7.415   4.695   1.753 -2.4044 -0.1964  1.1188
    1MOL   C362  362   6.729   4.379   0.940  0.1229  0.8205  0.2636
    1MOL   C363  363   6.730   4.514   1.004  0.0041 -0.2545  0.1700
    1MOL   C364  364   6.767   4.517   1.154  0.7453  0.2499  0.4018
    1MOL   C365  365   6.927   4.531   1.175  0.5185 -0.4545  0.1917
    1MOL   C366  366   6.976   4.532   1.323 -0.0053 -0.3434 -0.1231
    1MOL   C367  367   6.945   4.664   1.382 -0.1285 -0.5942  0.1884
    1MOL   C368  368   6.990   4.684   1.531 -0.6839  0.1446  0.2837
    1MOL   C369  369   7.139   4.699   1.542 -0.0654 -0.4050  0.2785
    1MOL   O370  370   7.185   4.702   1.676  0.3417  0.5914 -0.1728
    1MOL   C371  371   7.191   4.816   1.751  0.1775  0.2007  0.1274
    1MOL   O372  372   7.150   4.925   1.711 -0.5298 -0.8432 -0.0264
    1MOL   C373  373   7.272   4.792   1.881  0.5099  0.6510 -0.3326
    1MOL   C374  374   7.259   4.929   1.955  0.3684 -0.5500 -0.6271
    1MOL   C375  375   7.196   4.680   1.957 -0.7845 -0.0271 -0.1116
    1MOL   H376  376   6.656   4.371   0.859  1.3845 -1.3112 -0.7240
    1MOL   H377  377   6.820   4.365   0.881 -0.5077  1.2286 -0.8168
    1MOL   H378  378   6.721   4.303   1.018  2.3617  0.5772  0.2857
    1MOL   H379  379   6.630   4.555   1.015  0.2572  0.2862  0.5205
    1MOL   H380  380   6.779   4.589   0.942 -0.7086  0.6913  0.7347
    1MOL   H381  381   6.723   4.430   1.203  2.3783  0.0840  1.6052
    1MOL   H382  382   6.719   4.605   1.197 -1.9189 -1.1987  0.4691
    1MOL   H383  383   6.963   4.616   1.118 -0.4708  0.2698  0.6408
    1MOL   H384  384   6.975   4.448   1.124  1.7695  1.4528 -1.7929
    1MOL   H385  385   6.937   4.449   1.381 -1.2094  0.8495  0.8073
    1MOL   H386  386   7.083   4.510   1.315  0.8250  2.8618  1.3297
    1MOL   H387  387   6.838   4.680   1.364 -0.0384  2.4725  2.0560
    1MOL   H388  388   6.981   4.748   1.322  2.1415 -1.8954 -0.3408
    1MOL   H389  389   6.969   4.598   1.595 -0.2968  0.6826  1.1296
    1MOL   H390  390   6.949   4.778   1.567 -1.7275  0.2917 -1.2294
    1MOL   H391  391   7.178   4.618   1.481  0.9669  1.4327 -1.5684
    1MOL   H392  392   7.173   4.788   1.488  0.8430 -1.7219 -1.3831
    1MOL   H393  393   7.289   4.931   2.059 -0.9964 -0.4429 -0.2258
    1MOL   H394  394   7.308   5.016   1.910  0.8306 -1.0436 -1.0830
    1MOL   H395  395   7.154   4.959   1.963  0.4733  0.0956 -1.5273
    1MOL   H396  396   7.196   4.588   1.898  2.1961  1.1288 -2.0359
    1MOL   H397  397   7.261   4.649   2.038  2.1973  0.5994 -2.1620
    1MOL   C398  398   7.160   4.174   2.836 -0.1062 -0.1023  0.0580
    1MOL   C399  399   7.122   4.269   2.726 -0.0623 -0.3690  0.0294
    1MOL   C400  400   7.151   4.417   2.746 -0.2598 -0.0342 -0.1341
    1MOL   C401  401   7.070   4.500   2.644 -0.0183 -0.2389  0.0625
    1MOL   C402  402   7.132   4.633   2.595  1.0221  0.0979 -0.9711
    1MOL   C403  403   7.238   4.606   2.488 -0.0434 -0.7986  0.3192
    1MOL   C404  404   7.292   4.736   2.416  0.7939 -0.3867  0.0946
    1MOL   C405  405   7.184   4.812   2.342 -0.3054  0.1508  1.0648
    1MOL   O406  406   7.152   4.743   2.222 -0.7679  0.0134 -0.1309
    1MOL   C407  407   7.064   4.788   2.142 -0.3611  0.1484 -0.0753
    1MOL   O408  408   6.991   4.888   2.160  0.2093  0.7342  0.6079
    1MOL   C409  409   7.048   4.693   2.016 -0.1968 -0.0830 -0.0523
    1MOL   C410  410   6.942   4.744   1.911  0.4691 -0.4683  0.1117
    1MOL   C411  411   7.009   4.555   2.063 -0.0414 -0.3183  0.5165
    1MOL   H412  412   7.268   4.186   2.851 -0.4323  2.2207  0.8026
    1MOL   H413  413   7.133   4.073   2.805  2.2851 -1.2740  1.6584
    1MOL   H414  414   7.104   4.197   2.927 -3.9766 -0.7530 -2.0602
    1MOL   H415  415   7.013   4.274   2.736 -0.0417 -1.6480  1.0193
    1MOL   H416  416   7.163   4.223   2.636  0.5475 -0.8591  0.5563
    1MOL   H417  417   7.127   4.445   2.849 -0.0672 -2.0037  0.4722
    1MOL   H418  418   7.255   4.442   2.726 -0.8616  0.1020 -3.3001
    1MOL   H419  419   6.968   4.528   2.673  0.3043  2.4753 -1.2541
    1MOL   H420  420   7.033   4.432   2.566  2.0269  0.5139 -1.6013
    1MOL   H421  421   7.049   4.690   2.553  2.6569  1.5858 -2.2618
    1MOL   H422  422   7.172   4.689   2.680  0.9908 -0.8626 -0.3130
    1MOL   H423  423   7.191   4.537   2.418  0.1498  2.1932 -2.9019
    1MOL   H424  424   7.319   4.547   2.532 -1.6246 -1.2271  2.7152
    1MOL   H425  425   7.325   4.808   2.492 -2.0434  0.9183  0.1260
    1MOL   H426  426   7.372   4.720   2.343  1.3645 -1.1605  0.8809
    1MOL   H427  427   7.095   4.828   2.404 -1.8887 -0.2689 -1.0291
    1MOL   H428  428   7.229   4.908   2.316  1.7469 -0.4997  2.1324
    1MOL   H429  429   6.923   4.671   1.832  0.0559  0.4340 -0.6339
    1MOL   H430  430   6.973   4.840   1.869 -1.5120  0.0889 -0.1212
    1MOL   H431  431   6.842   4.760   1.950  1.9314  2.3753  2.8794
    1MOL   H432  432   7.077   4.511   2.137  0.4780  1.8662  1.3778
    1MOL   H433  433   7.023   4.491   1.976 -2.4499  0.9411 -0.8358
    1MOL   C434  434   5.755   4.291   2.235  0.0723 -0.2679 -0.4439
    1MOL   C435  435   5.904   4.273   2.232 -0.7263  0.0863 -0.0184
    1MOL   C436  436   5.981   4.393   2.180  0.2230  0.3594  0.2266
    1MOL   C437  437   6.131   4.371   2.162 -0.2136 -0.2494 -0.0761
    1MOL   C438  438   6.184   4.501   2.089 -0.0810 -0.0484 -0.0571
    1MOL   C439  439   6.328   4.485   2.053  0.0553  0.0771 -0.1573
    1MOL   C440  440   6.393   4.605   1.980 -0.7751  0.5585 -0.5445
    1MOL   C441  441   6.540   4.583   1.935 -0.0030  0.0690 -0.2176
    1MOL   O442  442   6.638   4.562   2.042  0.2366  0.0447 -0.4393
    1MOL   C443  443   6.754   4.509   2.008  0.9236  0.1772  0.2020
    1MOL   O444  444   6.785   4.466   1.898 -0.1346  0.3786 -0.8754
    1MOL   C445  445   6.866   4.512   2.123  0.1203 -0.4752 -0.3482
    1MOL   C446  446   6.816   4.615   2.225  0.0765  0.5021  0.7241
    1MOL   C447  447   6.882   4.371   2.202  0.1753 -0.6076 -0.0126
    1MOL   H448  448   5.702   4.200   2.266  0.5522 -0.1744  0.6638
    1MOL   H449  449   5.713   4.319   2.138 -1.1587 -1.8954 -0.4180
    1MOL   H450  450   5.733   4.380   2.293  0.8155  0.4819 -1.2967
    1MOL   H451  451   5.929   4.191   2.165  0.2702  0.5380 -0.2104
    1MOL   H452  452   5.934   4.235   2.330 -2.6713  0.6596  0.8075
    1MOL   H453  453   5.958   4.471   2.252 -1.3204  0.3653 -0.2528
    1MOL   H454  454   5.949   4.424   2.081 -0.1601 -1.2713 -0.1824
    1MOL   H455  455   6.158   4.286   2.100  0.5605  0.3763 -0.6148
    1MOL   H456  456   6.182   4.347   2.255  0.6756 -1.4293 -0.8652
    1MOL   H457  457   6.127   4.493   1.996  1.7685  1.1744 -1.3102
    1MOL   H458  458   6.160   4.595   2.139 -0.9334 -1.0250  1.4240
    1MOL   H459  459   6.337   4.393   1.995 -0.6724  0.4962 -0.9493
    1MOL   H460  460   6.383   4.466   2.145 -1.0216  0.8354  0.6585
    1MOL   H461  461   6.328   4.614   1.894 -1.2892 -1.6867 -0.4028
    1MOL   H462  462   6.391   4.703   2.028 -0.6051 -0.0661  0.7490
    1MOL   H463  463   6.560   4.660   1.861 -0.9839 -0.7792 -1.3771
    1MOL   H464  464   6.534   4.499   1.867 -0.6338 -0.7052  0.7763
    1MOL   H465  465   6.724   4.587   2.276 -0.5652  1.1087 -0.0847
    1MOL   H466  466   6.892   4.630   2.302  0.6513  1.5016 -0.0284
    1MOL   H467  467   6.803   4.714   2.181 -2.3965 -0.4260 -0.7453
    1MOL   H468  468   6.946   4.316   2.134  1.1413 -0.4831  0.7773
    1MOL   H469  469   6.940   4.385   2.294  2.0967 -1.9346 -0.9852
    1MOL   C470  470   6.699   5.080   3.095 -0.1867 -0.1310  1.4512
    1MOL   C471  471   6.576   5.086   3.005 -0.1715  0.3751 -0.2146
    1MOL   C472  472   6.576   5.039   2.862 -0.0026 -0.1227  0.1955
    1MOL   C473  473   6.549   4.886   2.855 -0.5592  0.1891  0.7603
    1MOL   C474  474   6.605   4.823   2.725  0.1300  0.1879  0.3701
    1MOL   C475  475   6.623   4.673   2.722 -0.1491 -0.0405 -0.3603
    1MOL   C476  476   6.665   4.620   2.582 -0.1913  0.5047 -0.4430
    1MOL   C477  477   6.672   4.471   2.561 -0.5610  0.6664  0.0579
    1MOL   O478  478   6.737   4.416   2.445 -0.0433 -0.0233  0.4453
    1MOL   C479  479   6.670   4.347   2.352  0.4647  0.2256  0.2188
    1MOL   O480  480   6.548   4.336   2.351  0.1158 -0.6089 -0.1868
    1MOL   C481  481   6.766   4.276   2.259 -0.6164  0.3822  0.2602
    1MOL   C482  482   6.682   4.213   2.149 -0.7517  0.0118 -0.0150
    1MOL   C483  483   6.833   4.157   2.342  0.0359  0.2894  0.3174
    1MOL   H484  484   6.686   5.117   3.197 -0.0707 -0.0841  1.4485
    1MOL   H485  485   6.782   5.139   3.057  0.2307  0.6414  3.5053
    1MOL   H486  486   6.725   4.975   3.092  2.7053  0.5673 -3.0035
    1MOL   H487  487   6.498   5.043   3.068  1.2736 -0.4627  1.0293
    1MOL   H488  488   6.541   5.189   2.996 -0.5639  0.1096 -1.9629
    1MOL   H489  489   6.497   5.080   2.800  1.5817  1.5498 -0.7297
    1MOL   H490  490   6.671   5.059   2.814 -0.7341  1.9973 -0.4099
    1MOL   H491  491   6.594   4.834   2.940  0.1319 -1.1819 -0.4350
    1MOL   H492  492   6.444   4.856   2.858 -0.9206  1.0089 -2.3605
    1MOL   H493  493   6.556   4.859   2.634  3.0505 -0.6779 -1.6029
    1MOL   H494  494   6.706   4.858   2.705  1.1745 -3.2329 -0.8451
    1MOL   H495  495   6.706   4.651   2.789 -0.9452  2.0087  1.3583
    1MOL   H496  496   6.538   4.621   2.766  1.1966 -2.3156 -0.3789
    1MOL   H497  497   6.590   4.662   2.515 -1.2741 -0.1755  0.3268
    1MOL   H498  498   6.754   4.663   2.536  0.2719 -0.2700 -0.2737
    1MOL   H499  499   6.579   4.417   2.579  0.8914 -3.2135 -3.2445
    1MOL   H500  500   6.734   4.432   2.641 -1.7046  1.2250  1.2344
    1MOL   H501  501   6.617   4.277   2.090  1.0898  3.8376  1.9543
    1MOL   H502  502   6.619   4.143   2.204 -1.5436 -0.9194 -2.0570
    1MOL   H503  503   6.740   4.156   2.077 -0.7665  1.7544 -1.4169
    1MOL   H504  504   6.923   4.128   2.287  0.4903  1.4158  0.4421
    1MOL   H505  505   6.880   4.199   2.431 -1.1491 -0.2869  1.2213
    1MOL   C506  506   5.884   3.581   2.131 -0.3137  0.7459  0.3153
    1MOL   C507  507   5.991   3.655   2.059 -0.5721 -0.1849  0.5351
    1MOL   C508  508   6.053   3.762   2.158  0.2259  0.4297  0.0448
    1MOL   C509  509   6.162   3.848   2.098 -0.4764  0.2713  0.1072
    1MOL   C510  510   6.296   3.779   2.086  0.2971 -0.4107  0.1749
    1MOL   C511  511   6.416   3.876   2.066 -1.0733  0.3242 -0.6199
    1MOL   C512  512   6.550   3.804   2.053  0.4814 -0.4588 -0.5591
    1MOL   C513  513   6.598   3.760   2.193  0.3516 -0.5311  0.1444
    1MOL   O514  514   6.622   3.873   2.279  0.0372  0.7257 -0.4225
    1MOL   C515  515   6.745   3.922   2.288  0.6993 -0.1769 -0.0703
    1MOL   O516  516   6.831   3.889   2.207  0.6020 -0.2448  0.6976
    1MOL   C517  517   6.768   4.023   2.404  0.2705  0.5418 -0.4649
    1MOL   C518  518   6.876   3.970   2.493 -0.0774 -0.0466 -0.0402
    1MOL   C519  519   6.639   4.053   2.483 -0.1628  1.1886 -0.5317
    1MOL   H520  520   5.826   3.521   2.060  1.4334 -2.0769  1.1682
    1MOL   H521  521   5.822   3.654   2.183  0.6947 -0.0381  2.6649
    1MOL   H522  522   5.936   3.514   2.199  0.5979  0.6103 -0.5063
    1MOL   H523  523   5.934   3.719   1.991  0.7805  1.2601  0.7360
    1MOL   H524  524   6.058   3.597   1.996 -1.0896  0.2854 -0.4673
    1MOL   H525  525   5.975   3.823   2.204 -0.3686 -0.8784  0.8123
    1MOL   H526  526   6.095   3.719   2.249  1.7170 -0.5043 -1.0653
    1MOL   H527  527   6.129   3.894   2.005 -0.2201  2.2340  0.9632
    1MOL   H528  528   6.173   3.923   2.176  1.0114  0.1416  0.0282
    1MOL   H529  529   6.307   3.719   2.177 -0.3126 -0.3352  0.3018
    1MOL   H530  530   6.297   3.702   2.009  1.8851  0.3019 -0.5173
    1MOL   H531  531   6.435   3.946   2.148  0.6883 -0.8273 -0.0278
    1MOL   H532  532   6.399   3.932   1.974  4.1864  1.1411 -1.2070
    1MOL   H533  533   6.628   3.864   2.007 -0.4363  2.0903  1.1001
    1MOL   H534  534   6.544   3.710   1.998 -0.6424  0.2767 -1.7382
    1MOL   H535  535   6.679   3.689   2.184 -0.0383 -0.7767 -1.6123
    1MOL   H536  536   6.522   3.692   2.231 -1.6278  1.0037 -0.9275
    1MOL   H537  537   6.890   4.042   2.574  0.1258 -0.5020  0.3320
    1MOL   H538  538   6.967   3.967   2.434 -0.8918  1.1062 -1.3929
    1MOL   H539  539   6.853   3.869   2.527  1.0512 -0.5335 -0.6798
    1MOL   H540  540   6.657   4.145   2.539 -1.3905  0.4516  1.1191
    1MOL   H541  541   6.558   4.091   2.420 -0.2031 -0.9374 -1.7782
    1MOL   C542  542   6.477   4.745   3.444 -0.6399 -0.0408 -1.0737
    1MOL   C543  543   6.478   4.649   3.324  0.2989  0.3751  0.7046
    1MOL   C544  544   6.612   4.602   3.278 -0.2060 -0.0006 -0.0889
    1MOL   C545  545   6.615   4.483   3.180 -0.6659 -0.2669  0.2047
    1MOL   C546  546   6.759   4.445   3.139 -0.4987  0.1279  0.7902
    1MOL   C547  547   6.779   4.301   3.084 -0.4286  0.1837 -0.3002
    1MOL   C548  548   6.734   4.282   2.941 -0.8431 -0.0499 -0.1700
    1MOL   C549  549   6.742   4.130   2.908  0.5856 -0.4009  0.3174
    1MOL   O550  550   6.663   4.099   2.798  0.6335 -0.0218 -0.0653
    1MOL   C551  551   6.670   3.976   2.729 -0.7536 -0.1166  0.4384
    1MOL   O552  552   6.744   3.886   2.763 -0.4346  0.1639  0.3180
    1MOL   C553  553   6.583   3.965   2.601  0.2496  0.0610 -0.4524
    1MOL   C554  554   6.573   3.813   2.565  0.6705 -0.4547 -0.0840
    1MOL   C555  555   6.442   4.021   2.647  0.6196 -0.5054  0.3446
    1MOL   H556  556   6.515   4.690   3.530  0.6744  1.1808 -0.8452
    1MOL   H557  557   6.382   4.790   3.471  0.4746  1.5897  0.2783
    1MOL   H558  558   6.555   4.821   3.429 -1.4084  0.9549 -0.1069
    1MOL   H559  559   6.419   4.559   3.343  0.5863 -0.4384 -2.0095
    1MOL   H560  560   6.431   4.700   3.240  1.4347 -0.9088 -0.7463
    1MOL   H561  561   6.672   4.579   3.366  1.5274  1.8042 -0.7683
    1MOL   H562  562   6.657   4.689   3.232 -0.9590  1.2555  1.4988
    1MOL   H563  563   6.567   4.401   3.233 -0.4931 -1.7853 -1.8869
    1MOL   H564  564   6.556   4.502   3.090  0.0070  0.1012 -0.1715
    1MOL   H565  565   6.831   4.466   3.218  0.5401 -1.1325  0.2065
    1MOL   H566  566   6.795   4.512   3.061  0.8735 -0.4257  0.9410
    1MOL   H567  567   6.883   4.270   3.086 -1.2441 -2.6673 -0.2388
    1MOL   H568  568   6.730   4.232   3.154  0.5758  1.9988  2.2795
    1MOL   H569  569   6.634   4.317   2.915 -1.3094  0.5159  2.2420
    1MOL   H570  570   6.803   4.344   2.884 -0.7803 -0.5233 -0.6079
    1MOL   H571  571   6.706   4.087   3.001 -2.5279  0.5438 -0.3905
    1MOL   H572  572   6.846   4.113   2.882  0.3052  1.6562 -2.4062
    1MOL   H573  573   6.551   3.754   2.654 -2.1991 -0.0089 -0.4443
    1MOL   H574  574   6.651   3.780   2.497  2.2093 -0.9271  1.8454
    1MOL   H575  575   6.484   3.787   2.509 -0.8278 -1.9888  2.8827
    1MOL   H576  576   6.452   4.129   2.637 -0.5507 -0.4533 -0.3072
    1MOL   H577  577   6.439   4.020   2.756 -1.0402 -1.9850  0.3116
    1MOL   C578  578   6.631   4.096   3.472  0.2531 -0.8810 -0.0172
    1MOL   C579  579   6.536   4.054   3.357 -0.2613  0.1630 -0.0018
    1MOL   C580  580   6.549   3.906   3.326 -0.0073  0.0900 -0.5753
    1MOL   C581  581   6.489   3.882   3.193 -0.0419  1.0864  0.9155
    1MOL   C582  582   6.505   3.736   3.136  0.3561 -0.3319  0.0581
    1MOL   C583  583   6.453   3.724   2.994 -0.8798  0.1340  0.0910
    1MOL   C584  584   6.301   3.747   2.990  0.2446  0.7613 -0.0449
    1MOL   C585  585   6.247   3.726   2.850 -0.5080 -0.3452 -0.0965
    1MOL   O586  586   6.293   3.829   2.775 -0.4826  0.3836 -0.2827
    1MOL   C587  587   6.269   3.835   2.643  0.5197  0.1995 -0.0807
    1MOL   O588  588   6.209   3.756   2.576  0.3309  0.6470  0.2657
    1MOL   C589  589   6.302   3.978   2.588 -0.5008 -0.2471 -0.7860
    1MOL   C590  590   6.307   3.968   2.431  0.0564 -0.0979  0.5699
    1MOL   C591  591   6.188   4.073   2.649 -0.0523  0.4345  0.8842
    1MOL   H592  592   6.582   4.094   3.570  0.2331  0.5664  0.0145
    1MOL   H593  593   6.669   4.196   3.450 -0.9215 -0.4038  0.0596
    1MOL   H594  594   6.708   4.021   3.487  1.0352 -0.1704 -0.4637
    1MOL   H595  595   6.561   4.125   3.278 -0.5512  0.4231  0.1397
    1MOL   H596  596   6.434   4.062   3.395 -0.2397 -0.7656  0.2630
    1MOL   H597  597   6.520   3.838   3.406 -1.1435  2.8860  1.4924
    1MOL   H598  598   6.658   3.899   3.316  0.3408  1.9874  1.4100
    1MOL   H599  599   6.532   3.954   3.124 -1.4224  1.4192  0.3765
    1MOL   H600  600   6.385   3.913   3.182  0.1035  1.0145 -0.8013
    1MOL   H601  601   6.442   3.670   3.196 -2.0633  0.4721 -1.5442
    1MOL   H602  602   6.608   3.706   3.156  0.7213  1.2959  0.7291
    1MOL   H603  603   6.457   3.622   2.957  2.0047 -0.1216  0.9980
    1MOL   H604  604   6.517   3.776   2.923 -1.4893 -0.1138 -0.6426
    1MOL   H605  605   6.273   3.850   3.014 -0.8424  0.5795 -0.5142
    1MOL   H606  606   6.250   3.696   3.071 -2.2727  2.5060 -0.4764
    1MOL   H607  607   6.286   3.633   2.809 -0.3020  1.1117 -3.4054
    1MOL   H608  608   6.139   3.739   2.849 -0.4654  0.4340  2.7424
    1MOL   H609  609   6.365   4.051   2.389 -0.5790  0.1327  0.1275
    1MOL   H610  610   6.356   3.880   2.392 -1.9067  0.9728 -4.7863
    1MOL   H611  611   6.210   3.976   2.381  0.8261  2.0389 -0.6780
    1MOL   H612  612   6.166   4.031   2.747  2.3221  0.7744  1.6163
    1MOL   H613  613   6.104   4.045   2.586  3.2131 -1.6152 -2.8099
    1MOL   C614  614   5.859   4.767   3.549  0.7072  0.6863 -0.0167
    1MOL   C615  615   5.857   4.636   3.473  0.8341  0.2696 -0.0294
    1MOL   C616  616   5.996   4.599   3.412  0.4428  0.3090  0.3907
    1MOL   C617  617   5.994   4.480   3.312 -0.2978 -0.8170 -0.1619
    1MOL   C618  618   6.129   4.474   3.249  0.5933  0.3519 -0.6165
    1MOL   C619  619   6.141   4.351   3.158  0.2938 -0.6712 -0.0300
    1MOL   C620  620   6.285   4.345   3.112 -0.5799  0.2559 -0.1802
    1MOL   C621  621   6.312   4.209   3.040  0.5900 -0.3045  0.5023
    1MOL   O622  622   6.234   4.201   2.923 -0.2554 -0.2953  0.1342
    1MOL   C623  623   6.285   4.260   2.803  0.9074  0.1357 -0.6392
    1MOL   O624  624   6.389   4.323   2.796  0.0341 -0.2414  0.1269
    1MOL   C625  625   6.192   4.224   2.676 -0.7200  0.2302 -0.1139
    1MOL   C626  626   6.244   4.291   2.547 -0.4317 -0.3126  0.0157
    1MOL   C627  627   6.046   4.273   2.709  0.3224 -0.3804 -0.0508
    1MOL   H628  628   5.758   4.791   3.583  0.9884  1.1205  0.5440
    1MOL   H629  629   5.888   4.845   3.479  2.2294 -1.8277 -2.2779
    1MOL   H630  630   5.920   4.767   3.640  1.0071  0.0364 -0.2142
    1MOL   H631  631   5.833   4.562   3.549  1.0448  1.4073  1.1599
    1MOL   H632  632   5.778   4.623   3.398  1.4237  4.6300 -1.5684
    1MOL   H633  633   6.063   4.578   3.495 -0.7511  0.6724  1.4699
    1MOL   H634  634   6.026   4.684   3.351  1.7178  0.1826  0.8304
    1MOL   H635  635   5.926   4.497   3.229  1.2111 -1.7100 -1.6034
    1MOL   H636  636   5.954   4.387   3.353 -2.3323 -0.1356 -0.5695
    1MOL   H637  637   6.147   4.564   3.191  1.2405 -0.7977 -2.2332
    1MOL   H638  638   6.203   4.465   3.329  0.0017  0.5946 -0.0368
    1MOL   H639  639   6.114   4.260   3.213  0.6806  0.6305  2.3846
    1MOL   H640  640   6.074   4.360   3.073 -2.2936  0.1668  2.0478
    1MOL   H641  641   6.353   4.343   3.197 -2.6535  1.0103  1.5689
    1MOL   H642  642   6.311   4.422   3.039 -0.4473 -0.6972 -1.1569
    1MOL   H643  643   6.416   4.199   3.011  0.8566  2.2943  0.4270
    1MOL   H644  644   6.293   4.131   3.113 -3.6496 -1.3360 -1.5477
    1MOL   H645  645   6.179   4.279   2.461  0.1557 -1.1491 -0.3234
    1MOL   H646  646   6.336   4.246   2.511 -0.7150  0.7744 -2.1587
    1MOL   H647  647   6.266   4.397   2.564  1.0396 -0.5473 -0.3289
    1MOL   H648  648   6.015   4.219   2.799  0.6459 -0.2998  0.1109
    1MOL   H649  649   5.980   4.218   2.642  0.7466 -1.1978  0.1968
    1MOL   C650  650   5.293   4.159   3.538  0.3284 -0.0135  0.0147
    1MOL   C651  651   5.235   4.190   3.397  0.8270 -0.0438 -0.0306
    1MOL   C652  652   5.358   4.170   3.302 -0.8684 -0.7870 -0.4135
    1MOL   C653  653   5.326   4.219   3.157 -0.0792  0.3820  0.2224
    1MOL   C654  654   5.438   4.202   3.060  0.1622  0.0647  0.1998
    1MOL   C655  655   5.537   4.318   3.060 -0.0423  0.5606  0.4108
    1MOL   C656  656   5.648   4.293   2.961  0.0819 -0.6238  0.1163
    1MOL   C657  657   5.747   4.408   2.967  0.4538 -0.2926  0.3347
    1MOL   O658  658   5.862   4.384   2.889  0.4710 -0.0121  0.4702
    1MOL   C659  659   5.856   4.421   2.757  0.1021  0.2916 -0.5568
    1MOL   O660  660   5.751   4.428   2.693 -0.6109  0.2702 -0.5048
    1MOL   C661  661   6.001   4.423   2.697  0.0032 -0.5078  0.0137
    1MOL   C662  662   5.981   4.461   2.547  0.0908  0.5589  0.1802
    1MOL   C663  663   6.105   4.517   2.772  0.3929  0.3701 -0.2659
    1MOL   H664  664   5.349   4.241   3.583 -1.2666  1.0598  0.0892
    1MOL   H665  665   5.362   4.076   3.532 -0.0813 -0.4257  0.8808
    1MOL   H666  666   5.218   4.141   3.615  1.2389  0.5529  1.0665
    1MOL   H667  667   5.172   4.278   3.389 -1.5593 -1.7805 -0.9348
    1MOL   H668  668   5.166   4.107   3.380 -0.1340 -0.2304  4.1537
    1MOL   H669  669   5.403   4.071   3.295 -2.0668 -1.2836 -1.2200
    1MOL   H670  670   5.434   4.237   3.343 -0.4074 -0.6306 -1.5008
    1MOL   H671  671   5.285   4.320   3.154  0.8321  0.7940  1.2581
    1MOL   H672  672   5.251   4.143   3.136 -1.7381  0.7861  4.1887
    1MOL   H673  673   5.401   4.204   2.957  1.7166  0.7262 -0.3695
    1MOL   H674  674   5.493   4.109   3.078  0.8426  0.4624  0.2039
    1MOL   H675  675   5.492   4.410   3.024  0.4637  0.5443 -0.2964
    1MOL   H676  676   5.586   4.345   3.153  1.1945 -1.0665  0.2546
    1MOL   H677  677   5.609   4.304   2.859  1.6266 -0.4472 -0.4712
    1MOL   H678  678   5.693   4.197   2.983  1.5848  0.3965  1.5959
    1MOL   H679  679   5.778   4.425   3.070 -2.7694 -0.3400  1.3880
    1MOL   H680  680   5.706   4.503   2.932 -0.9207 -0.8677  0.3304
    1MOL   H681  681   6.066   4.502   2.490  0.5212  0.1916  0.5532
    1MOL   H682  682   5.909   4.539   2.521  1.5705  1.8299 -0.2396
    1MOL   H683  683   5.954   4.374   2.488  1.3255  0.2136  0.0933
    1MOL   H684  684   6.115   4.480   2.874  1.0804  0.3551 -0.3404
    1MOL   H685  685   6.202   4.502   2.727  0.3101  1.5170 -0.8361
    1MOL   C686  686   6.649   4.951   1.780  0.1491 -0.6930  0.4188
    1MOL   C687  687   6.643   5.076   1.879  0.2566  0.6203  0.6717
    1MOL   C688  688   6.637   5.023   2.026  0.6328 -0.3317 -0.0821
    1MOL   C689  689   6.494   4.973   2.065 -0.9572 -0.9420  0.2147
    1MOL   C690  690   6.499   4.912   2.200  0.0567  0.5166  0.5870
    1MOL   C691  691   6.359   4.901   2.264  0.6965  0.4475  0.6133
    1MOL   C692  692   6.360   4.830   2.401 -0.1746  0.0181 -0.0738
    1MOL   C693  693   6.215   4.819   2.451 -0.7132 -0.1200  0.2555
    1MOL   O694  694   6.204   4.746   2.567  0.3225 -0.2353 -0.3624
    1MOL   C695  695   6.080   4.743   2.633  0.0209 -0.3477  0.0056
    1MOL   O696  696   5.973   4.795   2.594 -0.2170  0.3453 -0.2309
    1MOL   C697  697   6.091   4.673   2.774  0.7226  0.2517  0.0231
    1MOL   C698  698   6.222   4.725   2.837 -0.1494 -0.2038  0.3052
    1MOL   C699  699   5.968   4.716   2.865 -0.2399 -0.6412  0.3386
    1MOL   H700  700   6.726   4.877   1.801  0.4051 -0.5823 -0.1226
    1MOL   H701  701   6.664   4.988   1.679  0.0730 -0.0181  0.6533
    1MOL   H702  702   6.554   4.898   1.772 -1.0095  1.4177 -0.0864
    1MOL   H703  703   6.558   5.143   1.863  0.3911  1.1728  2.2109
    1MOL   H704  704   6.735   5.134   1.867  1.0592 -0.4256  1.7534
    1MOL   H705  705   6.666   5.108   2.088 -0.2534  0.8121 -1.1931
    1MOL   H706  706   6.717   4.953   2.051  1.9556  1.5758  1.1789
    1MOL   H707  707   6.448   4.905   1.994  0.1440 -1.1238 -0.3306
    1MOL   H708  708   6.424   5.057   2.071  1.1995  0.7801  2.7232
    1MOL   H709  709   6.569   4.959   2.269 -0.5582  2.4230 -0.0546
    1MOL   H710  710   6.544   4.814   2.189 -0.1678  0.6070 -1.2687
    1MOL   H711  711   6.322   5.002   2.278 -0.8458 -0.0459  0.2640
    1MOL   H712  712   6.301   4.850   2.187 -0.1259  2.6749 -0.2974
    1MOL   H713  713   6.393   4.726   2.398 -1.0112 -0.2901  1.2822
    1MOL   H714  714   6.430   4.883   2.465  2.0850 -0.5299 -2.0212
    1MOL   H715  715   6.151   4.780   2.372 -0.7360 -0.9428  0.6802
    1MOL   H716  716   6.186   4.920   2.478 -0.8077 -0.3909  1.1734
    1MOL   H717  717   6.222   4.833   2.826  0.6957 -0.1127  1.1380
    1MOL   H718  718   6.222   4.707   2.945 -1.2233  1.1564  0.5423
    1MOL   H719  719   6.314   4.685   2.796 -0.9043 -0.0842 -1.5362
    1MOL   H720  720   5.975   4.818   2.904  3.1976 -0.5512 -0.4177
    1MOL   H721  721   5.964   4.652   2.953 -0.1605 -1.6968 -0.4208
    1MOL   H722  722   5.875   4.711   2.808  1.3144  0.7668 -2.3897
    2MOL     C1  723   1.889   4.130   0.825  0.0130  0.1875 -0.3906
    2MOL     C2  724   1.771   4.046   0.777  0.1343 -0.5798  0.4011
    2MOL     C3  725   1.754   3.908   0.844  0.6168 -0.1349 -0.0606
    2MOL     C4  726   1.636   3.843   0.780 -0.9056  0.0136  0.4906
    2MOL     C5  727   1.612   3.704   0.835  0.0083 -0.0347 -0.1255
    2MOL     C6  728   1.462   3.661   0.822  0.4262 -0.4550 -0.3263
    2MOL     C7  729   1.406   3.624   0.688  0.5764  0.5930 -0.3276
    2MOL     C8  730   1.449   3.481   0.655  0.7455 -0.1655 -0.0162
    2MOL     O9  731   1.368   3.433   0.546 -0.5397  0.0653 -0.3186
    2MOL    C10  732   1.272   3.346   0.559 -0.3188  0.0569 -0.4652
    2MOL    O11  733   1.241   3.293   0.666  0.1763 -0.1596  0.3511
    2MOL    C12  734   1.189   3.313   0.435 -0.0166  0.1523  0.6691
    2MOL    C13  735   1.090   3.426   0.395  0.1831 -0.1944  0.1510
    2MOL    C14  736   1.274   3.268   0.315  0.4097  0.5638  1.1084
    2MOL    H15  737   1.879   4.228   0.777 -0.2914  0.8031  0.8908
    2MOL    H16  738   1.985   4.082   0.807  0.8910  1.6280  0.3218
    2MOL    H17  739   1.887   4.137   0.934  1.8075 -0.6143 -0.2945
    2MOL    H18  740   1.787   4.034   0.670 -0.6586 -1.2093  0.3453
    2MOL    H19  741   1.679   4.102   0.797  0.8913  1.0825 -0.7048
    2MOL    H20  742   1.844   3.847   0.833  2.1754  2.2769 -1.1606
    2MOL    H21  743   1.739   3.923   0.951  0.6176  1.6282 -0.2841
    2MOL    H22  744   1.549   3.901   0.810 -2.1406 -1.6360  0.1823
    2MOL    H23  745   1.647   3.847   0.672 -0.4074  1.2877  0.5832
    2MOL    H24  746   1.638   3.696   0.941  1.3405  0.0637 -0.4443
    2MOL    H25  747   1.673   3.632   0.780 -1.0238  0.5094 -1.9925
    2MOL    H26  748   1.404   3.740   0.869  1.7345  2.2403 -3.0886
    2MOL    H27  749   1.449   3.584   0.898  0.9292 -1.1199 -0.8995
    2MOL    H28  750   1.443   3.701   0.621 -0.2529  2.6357  1.4725
    2MOL    H29  751   1.298   3.636   0.695  0.4509 -0.0396 -1.1821
    2MOL    H30  752   1.438   3.415   0.741 -1.4284  1.1337  0.7382
    2MOL    H31  753   1.554   3.479   0.623  0.5606  0.0066 -0.6468
    2MOL    H32  754   1.041   3.458   0.487  1.6317 -0.9464  1.2107
    2MOL    H33  755   1.151   3.504   0.348  1.2131 -0.4554  1.0447
    2MOL    H34  756   1.021   3.385   0.322 -2.2418  0.5139  1.9955
    2MOL    H35  757   1.365   3.328   0.320  1.3898 -0.8489  0.4831
    2MOL    H36  758   1.233   3.302   0.220  1.9024 -0.6888 -0.0133
    2MOL    H37  759   1.122   3.231   0.461 -3.0712  2.7161  1.2177
    2MOL    C38  760   0.939   3.336   7.125 -0.5834 -0.0779  0.1030
    2MOL    C39  761   0.985   3.329   7.265  0.0480  0.2114 -0.5154
    2MOL    C40  762   1.079   3.207   7.286 -0.0992 -0.0658 -0.3767
    2MOL    C41  763   1.107   3.182   7.435  0.2342 -0.6109 -0.3793
    2MOL    C42  764   0.989   3.175   7.532  0.1243 -0.5510 -0.2143
    2MOL    C43  765   1.036   3.122   7.668  0.6748 -0.5414 -0.6476
    2MOL    C44  766   0.932   3.119   0.001 -0.8678  0.9348  0.1537
    2MOL    C45  767   0.973   3.031   0.122 -0.1712 -0.7050  0.1845
    2MOL    O46  768   1.094   3.092   0.177 -0.3268  0.0853 -0.5039
    2MOL    C47  769   1.170   3.034   0.264  0.7749  0.4590  0.0975
    2MOL    O48  770   1.135   2.933   0.320 -0.8775  0.0643 -0.0578
    2MOL    C49  771   1.300   3.119   0.303 -0.5831  0.9291 -0.4531
    2MOL    C50  772   1.358   3.063   0.437  0.3541 -0.2518 -0.4076
    2MOL    C51  773   1.400   3.119   0.183  0.0032 -0.3773  0.3739
    2MOL    H52  774   0.900   3.435   7.100  0.2999 -0.3421 -2.4176
    2MOL    H53  775   0.856   3.267   7.108  0.6463 -0.9143 -2.7206
    2MOL    H54  776   1.023   3.314   7.059 -0.6860 -0.7673  0.1943
    2MOL    H55  777   0.896   3.336   7.328  0.4122  0.4625 -0.0264
    2MOL    H56  778   1.044   3.417   7.291  0.3351 -0.6847  2.0525
    2MOL    H57  779   1.027   3.119   7.250  2.4936 -2.3022  1.1992
    2MOL    H58  780   1.171   3.214   7.228 -0.5572  3.2449 -0.8096
    2MOL    H59  781   1.183   3.255   7.460 -1.1702  0.0938  1.9829
    2MOL    H60  782   1.172   3.096   7.451 -0.9427 -1.3939  0.2475
    2MOL    H61  783   0.943   3.272   7.550 -0.6402 -0.5103 -2.3023
    2MOL    H62  784   0.916   3.104   7.492  1.2419 -1.2227 -1.1049
    2MOL    H63  785   1.076   3.023   7.648  2.8738  0.1785  0.0478
    2MOL    H64  786   1.119   3.175   7.715 -1.4369 -0.0582  2.7449
    2MOL    H65  787   0.839   3.084   7.735  0.2172 -0.7988 -0.8066
    2MOL    H66  788   0.917   3.218   0.043  1.3602  1.5422 -0.4265
    2MOL    H67  789   1.003   2.930   0.092 -1.6006 -0.7983 -0.9525
    2MOL    H68  790   0.897   3.030   0.200  1.2811  0.7882  1.6529
    2MOL    H69  791   1.277   3.072   0.510 -0.9425 -0.2171 -1.8177
    2MOL    H70  792   1.380   2.957   0.445 -0.7146 -0.5485 -1.2001
    2MOL    H71  793   1.436   3.126   0.481 -0.3210  0.9655 -0.9203
    2MOL    H72  794   1.472   3.200   0.189 -0.0192 -0.3468  0.2451
    2MOL    H73  795   1.339   3.146   0.096 -0.2962  0.9885  0.9958
    2MOL    C74  796   2.253   2.944   7.571  1.0089 -0.0845 -0.1305
    2MOL    C75  797   2.323   3.031   7.679 -0.0713 -0.6822 -0.0973
    2MOL    C76  798   2.228   3.066   0.014 -0.0840  0.5395  0.1991
    2MOL    C77  799   2.088   3.122   7.764  0.4426 -0.1353 -0.5195
    2MOL    C78  800   2.026   3.183   0.108  0.3818 -1.2534 -0.0874
    2MOL    C79  801   1.961   3.083   0.201  0.7456 -0.8257 -0.3356
    2MOL    C80  802   1.897   3.151   0.326 -0.7688 -0.2161  0.9004
    2MOL    C81  803   1.779   3.065   0.382 -0.1532  0.0088  0.6340
    2MOL    O82  804   1.665   3.067   0.294  0.2338  0.1515 -0.3744
    2MOL    C83  805   1.593   2.959   0.261  0.4316  0.0899 -0.4597
    2MOL    O84  806   1.610   2.848   0.315 -0.0421  0.5344 -0.3153
    2MOL    C85  807   1.487   2.988   0.148 -0.2883 -0.1217 -0.2121
    2MOL    C86  808   1.390   2.865   0.137 -0.7645  0.8253  0.0538
    2MOL    C87  809   1.580   3.014   0.016 -0.2865  0.5201 -0.3672
    2MOL    H88  810   2.316   2.941   7.482  1.0119  0.1680 -0.1345
    2MOL    H89  811   2.162   2.999   7.549 -1.8736 -3.1469  3.4046
    2MOL    H90  812   2.235   2.846   7.615  1.3524  0.8879  2.2385
    2MOL    H91  813   2.360   3.124   7.636 -0.8859 -0.0640  0.5280
    2MOL    H92  814   2.405   2.974   7.723  1.9642  0.1358 -2.6997
    2MOL    H93  815   2.209   2.974   0.070  0.8992  0.5319  0.5218
    2MOL    H94  816   2.281   3.143   0.070 -0.8492  1.6688 -0.6166
    2MOL    H95  817   2.022   3.041   7.734 -0.9178  1.0869 -0.8713
    2MOL    H96  818   2.093   3.196   7.684 -0.8335 -0.3371 -0.8037
    2MOL    H97  819   2.100   3.250   0.152 -0.6913  1.9863 -2.9658
    2MOL    H98  820   1.951   3.247   0.062  1.2839 -0.8044 -0.9673
    2MOL    H99  821   1.890   3.021   0.146 -1.2321  1.2845 -0.2100
    2MOL   H100  822   2.032   3.009   0.238  0.5628 -1.0184 -0.3659
    2MOL   H101  823   1.979   3.166   0.396  1.0038  1.5366 -1.4569
    2MOL   H102  824   1.836   3.241   0.313 -0.0979 -0.1077 -1.7518
    2MOL   H103  825   1.760   3.117   0.477 -0.1915  0.5787  0.3183
    2MOL   H104  826   1.813   2.964   0.401 -0.0272 -0.0593  0.0465
    2MOL   H105  827   1.357   2.827   0.234 -3.0037  1.9416 -0.2515
    2MOL   H106  828   1.444   2.778   0.099  1.0797  2.4616 -1.1160
    2MOL   H107  829   1.304   2.873   0.072 -0.4833  0.5294 -0.3549
    2MOL   H108  830   1.660   3.080   0.048 -0.1985 -0.2997  1.1219
    2MOL   H109  831   1.633   2.922   7.769 -0.2077  0.6786 -0.7587
    2MOL   C110  832   1.572   4.147   0.440 -0.2027 -0.4142 -1.0055
    2MOL   C111  833   1.460   4.060   0.379 -0.1598  0.3709  0.5119
    2MOL   C112  834   1.506   3.912   0.356  0.2375  0.5722  0.4144
    2MOL   C113  835   1.388   3.814   0.318 -0.5944 -0.0513  0.0287
    2MOL   C114  836   1.433   3.659   0.286  0.0132 -0.1358 -0.7461
    2MOL   C115  837   1.459   3.628   0.142 -0.1152 -0.1780  0.3923
    2MOL   C116  838   1.484   3.481   0.105  0.6763  0.2765  0.0487
    2MOL   C117  839   1.546   3.448   7.750 -0.1514 -0.3273 -0.2774
    2MOL   O118  840   1.579   3.301   7.731  0.2618 -0.7556 -0.0352
    2MOL   C119  841   1.493   3.208   7.670  0.5195 -0.5218  0.1933
    2MOL   O120  842   1.375   3.237   7.653 -0.3939  0.0230  0.0607
    2MOL   C121  843   1.538   3.064   7.653 -0.4084  0.2366 -1.0133
    2MOL   C122  844   1.425   2.970   7.601 -0.1125  0.6667  0.0311
    2MOL   C123  845   1.668   3.056   7.565 -0.1047 -0.3473 -0.2439
    2MOL   H124  846   1.592   4.125   0.545  2.2836  0.4653 -1.2798
    2MOL   H125  847   1.665   4.135   0.386  1.2300 -2.7514  1.8694
    2MOL   H126  848   1.547   4.254   0.440  1.5180  0.0317  1.8792
    2MOL   H127  849   1.426   4.092   0.281 -0.6743  0.1807  0.6271
    2MOL   H128  850   1.374   4.059   0.446 -0.3792 -1.6828  0.2346
    2MOL   H129  851   1.572   3.876   0.434 -0.5448  1.8243  1.6722
    2MOL   H130  852   1.578   3.914   0.273  1.9762  0.4895  1.8947
    2MOL   H131  853   1.320   3.804   0.403 -0.9924  0.4107 -0.2344
    2MOL   H132  854   1.329   3.854   0.236 -0.7053  0.9214  0.5666
    2MOL   H133  855   1.355   3.593   0.324  0.4425  0.7065  1.6778
    2MOL   H134  856   1.522   3.647   0.348  0.1381 -0.3770 -0.9725
    2MOL   H135  857   1.376   3.672   0.086  0.6107  1.8842  0.8664
    2MOL   H136  858   1.544   3.692   0.119 -1.2146  2.1817  2.6092
    2MOL   H137  859   1.397   3.418   0.123  0.1549  0.5398 -1.4575
    2MOL   H138  860   1.560   3.434   0.168  1.1348 -0.2674 -0.8876
    2MOL   H139  861   1.500   3.500   7.666  0.4973  0.3598 -0.2140
    2MOL   H140  862   1.646   3.491   7.739  0.5875 -1.6400  1.0667
    2MOL   H141  863   1.405   2.965   7.494  3.1424 -0.4749 -0.5715
    2MOL   H142  864   1.460   2.868   7.618  0.5812  0.8067 -0.5479
    2MOL   H143  865   1.336   2.976   7.664 -0.3294 -2.8150  0.1512
    2MOL   H144  866   1.712   2.957   7.569 -2.0557 -1.2461 -0.1610
    2MOL   H145  867   1.744   3.111   7.620 -0.5253 -0.1025  0.0994
    2MOL   C146  868   0.965   2.553   6.787  0.4935 -0.2919  0.2512
    2MOL   C147  869   0.971   2.701   6.828 -0.2918  0.1440 -0.2822
    2MOL   C148  870   1.111   2.755   6.861  0.1622  0.8217  0.8288
    2MOL   C149  871   1.138   2.901   6.819 -0.4617  0.2467 -0.4565
    2MOL   C150  872   1.289   2.924   6.797 -0.4586 -0.0014  0.0852
    2MOL   C151  873   1.375   2.880   6.917  0.7403  0.4969  0.3661
    2MOL   C152  874   1.372   2.973   7.049 -0.4612 -0.6226 -0.2643
    2MOL   C153  875   1.451   2.911   7.167 -0.3169 -0.5895  0.4191
    2MOL   O154  876   1.509   3.013   7.253 -0.4601 -0.2377  0.1376
    2MOL   C155  877   1.613   2.975   7.328  0.3467  0.4166  0.9990
    2MOL   O156  878   1.662   2.861   7.326 -0.0627  0.0036  0.3105
    2MOL   C157  879   1.675   3.087   7.410 -0.0807  0.3981  0.0308
    2MOL   C158  880   1.612   3.220   7.379 -0.1089  0.0860 -0.2447
    2MOL   C159  881   1.828   3.085   7.380  0.0477  0.2654  0.2790
    2MOL   H160  882   0.883   2.550   6.716  1.1948  2.3607 -0.6912
    2MOL   H161  883   0.940   2.492   6.874 -0.8376  1.2866  0.9894
    2MOL   H162  884   1.054   2.503   6.747 -0.8582 -1.6731 -1.1275
    2MOL   H163  885   0.936   2.757   6.741 -2.6985  1.0603  1.2236
    2MOL   H164  886   0.898   2.728   6.905  0.5658  1.7610 -0.0128
    2MOL   H165  887   1.174   2.690   6.800 -0.3329  0.8296  0.2986
    2MOL   H166  888   1.134   2.753   6.967  0.9327  0.9167  0.6689
    2MOL   H167  889   1.080   2.921   6.728 -2.5140  0.3241  0.8319
    2MOL   H168  890   1.101   2.971   6.895 -1.3386  0.3446 -0.9609
    2MOL   H169  891   1.299   3.031   6.778  0.3671  0.1347  1.2354
    2MOL   H170  892   1.320   2.867   6.709 -1.5880 -0.4442 -0.0204
    2MOL   H171  893   1.478   2.877   6.880 -0.4050 -0.2838 -2.9362
    2MOL   H172  894   1.361   2.775   6.942  1.8431  0.2937  0.1764
    2MOL   H173  895   1.413   3.070   7.022 -0.2337 -0.7668 -0.4322
    2MOL   H174  896   1.268   2.989   7.078  0.1270  1.1358  0.9560
    2MOL   H175  897   1.394   2.835   7.219 -1.6570 -0.8750 -1.4129
    2MOL   H176  898   1.539   2.867   7.120  0.9786  1.3967  0.8905
    2MOL   H177  899   1.504   3.231   7.389  0.0049 -0.0746  1.2095
    2MOL   H178  900   1.626   3.257   7.277 -2.2127  1.1573 -0.1716
    2MOL   H179  901   1.647   3.304   7.438  0.3511  1.0007 -1.8062
    2MOL   H180  902   1.860   2.982   7.397  0.7360  0.1770 -1.5291
    2MOL   H181  903   1.876   3.147   7.456  1.2244  0.4566 -0.6183
    2MOL   C182  904   1.773   3.555   0.404  0.3264 -0.3070  0.0101
    2MOL   C183  905   1.819   3.669   0.315 -0.1843 -0.8323 -0.6692
    2MOL   C184  906   1.928   3.630   0.212 -0.3129 -0.3722 -0.2192
    2MOL   C185  907   1.865   3.559   0.095  1.0776  0.3851 -0.5568
    2MOL   C186  908   1.962   3.533   7.767 -0.2274  0.1273 -0.0003
    2MOL   C187  909   1.892   3.468   7.637 -0.2464  0.4957 -0.6084
    2MOL   C188  910   1.987   3.505   7.519 -0.2144  0.2614 -0.1412
    2MOL   C189  911   1.933   3.475   7.377  0.7158  0.4796  0.3150
    2MOL   O190  912   1.944   3.338   7.345 -0.1352 -0.2674 -0.4782
    2MOL   C191  913   1.901   3.294   7.232  0.2259  0.0954  0.1394
    2MOL   O192  914   1.861   3.352   7.133  0.4726 -0.1263  0.3238
    2MOL   C193  915   1.902   3.140   7.243  0.4640 -0.9640  0.0422
    2MOL   C194  916   1.822   3.089   7.111  0.9578 -0.5406 -0.3689
    2MOL   C195  917   2.057   3.095   7.251  0.6961  1.0138 -0.3816
    2MOL   H196  918   1.857   3.512   0.458 -0.9257 -1.2411  1.2792
    2MOL   H197  919   1.705   3.595   0.480 -0.7394 -0.3472 -0.9095
    2MOL   H198  920   1.734   3.470   0.348  1.0938 -2.4590  2.6150
    2MOL   H199  921   1.867   3.743   0.379  3.4516 -0.8975 -3.1857
    2MOL   H200  922   1.730   3.719   0.276  0.2334  0.8484  0.4447
    2MOL   H201  923   1.970   3.725   0.178  1.3902 -1.0966 -0.2378
    2MOL   H202  924   2.013   3.590   0.268 -0.4713  1.4317  1.3442
    2MOL   H203  925   1.817   3.466   0.125 -0.8372  1.2201 -0.9617
    2MOL   H204  926   1.789   3.623   0.051 -1.1276 -0.8529  1.3212
    2MOL   H205  927   2.042   3.470   0.026  0.4056  2.1988  2.2673
    2MOL   H206  928   2.008   3.630   7.748  0.2690 -0.3397 -1.1601
    2MOL   H207  929   1.800   3.524   7.618  0.2367  1.3798 -0.3330
    2MOL   H208  930   1.870   3.363   7.658 -0.8127  0.9841  1.3088
    2MOL   H209  931   1.998   3.613   7.516 -1.2740  0.3586 -1.4222
    2MOL   H210  932   2.084   3.457   7.532  0.4307  1.2094 -1.3492
    2MOL   H211  933   1.996   3.529   7.306  0.4245  2.0777  1.2530
    2MOL   H212  934   1.830   3.511   7.378  0.7858  0.6517  1.4374
    2MOL   H213  935   1.877   3.124   7.023 -0.5390  1.9244 -0.3737
    2MOL   H214  936   1.813   2.982   7.097  0.1402 -0.0187 -4.3741
    2MOL   H215  937   1.720   3.127   7.106  1.3717  0.4579 -1.3978
    2MOL   H216  938   2.081   3.130   7.351  1.8764 -2.3273  0.5460
    2MOL   H217  939   2.043   2.988   7.263  0.7467  0.9143 -1.1675
    2MOL   C218  940   3.216   3.093   6.837  0.6396  0.2398 -0.5895
    2MOL   C219  941   3.124   3.057   6.953  0.2903  0.5619 -0.4883
    2MOL   C220  942   3.061   3.175   7.021  0.6531 -0.2202  0.2690
    2MOL   C221  943   2.935   3.154   7.104  0.2895 -0.2372  0.0813
    2MOL   C222  944   2.795   3.198   7.052  0.1913 -0.3522  0.1718
    2MOL   C223  945   2.684   3.202   7.156  0.8823  0.1838  0.1206
    2MOL   C224  946   2.639   3.066   7.207 -0.5044  0.7956  0.1312
    2MOL   C225  947   2.522   3.078   7.307 -0.0953 -0.5232  0.7630
    2MOL   O226  948   2.408   3.130   7.243 -0.4312  0.3656  0.0364
    2MOL   C227  949   2.303   3.057   7.220 -0.3329  0.0691  0.8385
    2MOL   O228  950   2.292   2.931   7.244 -0.1843 -0.3340  0.5221
    2MOL   C229  951   2.176   3.134   7.160 -0.5208  0.6592  0.9123
    2MOL   C230  952   2.206   3.297   7.173  0.4891  0.0838 -0.4320
    2MOL   C231  953   2.149   3.085   7.008 -0.6998  0.2848 -0.2578
    2MOL   H232  954   3.271   3.010   6.793  2.2568 -0.3079  2.3691
    2MOL   H233  955   3.291   3.170   6.855  1.9281 -0.6878 -1.8629
    2MOL   H234  956   3.155   3.122   6.751 -2.5850 -1.5172  1.0265
    2MOL   H235  957   3.189   2.997   7.017 -0.9136  0.2168  0.4313
    2MOL   H236  958   3.038   3.004   6.912 -0.1621  0.5711  0.4226
    2MOL   H237  959   3.143   3.218   7.080  0.3188 -1.4494  1.6607
    2MOL   H238  960   3.039   3.256   6.951 -1.5669 -2.1062 -1.2788
    2MOL   H239  961   2.921   3.047   7.120 -2.5391  0.1486  0.4137
    2MOL   H240  962   2.946   3.189   7.207  3.0768 -0.1202 -0.2230
    2MOL   H241  963   2.807   3.301   7.016  1.4716 -0.1197  1.2137
    2MOL   H242  964   2.776   3.136   6.965  1.0796 -1.5147  0.7869
    2MOL   H243  965   2.698   3.273   7.238 -1.3378  1.1577 -0.3007
    2MOL   H244  966   2.592   3.231   7.107  0.2288 -2.2036 -0.1594
    2MOL   H245  967   2.727   3.033   7.262 -0.3244 -1.1670 -1.2792
    2MOL   H246  968   2.630   3.006   7.117 -0.1305  1.9385 -0.6756
    2MOL   H247  969   2.548   3.125   7.402  0.8310 -1.3094  0.9074
    2MOL   H248  970   2.495   2.978   7.342 -2.2884  0.6698  2.5982
    2MOL   H249  971   2.214   3.324   7.278 -0.0275  3.2484 -1.1802
    2MOL   H250  972   2.127   3.362   7.136 -1.0675 -0.9088  1.0538
    2MOL   H251  973   2.298   3.334   7.128  0.0207 -0.1736 -1.6352
    2MOL   H252  974   2.105   2.990   7.037 -0.6078  0.4571  0.4626
    2MOL   H253  975   2.068   3.148   6.972 -0.9001  0.0065 -0.2946
    2MOL   C254  976   2.432   1.907   7.003  0.3467 -0.3187 -1.0658
    2MOL   C255  977   2.462   2.033   7.076  0.0988 -0.3401 -0.2058
    2MOL   C256  978   2.373   2.152   7.044 -0.2539  0.2144 -0.5814
    2MOL   C257  979   2.354   2.246   7.162  0.2612 -0.1772 -0.0903
    2MOL   C258  980   2.282   2.373   7.121  0.2562  0.2890  0.3121
    2MOL   C259  981   2.375   2.483   7.071  0.5483  0.4889 -0.2937
    2MOL   C260  982   2.289   2.607   7.047 -0.1786  0.4284  0.2705
    2MOL   C261  983   2.373   2.727   7.006 -0.5961  0.2416  0.1303
    2MOL   O262  984   2.297   2.833   6.970 -0.0775  0.2804  0.2076
    2MOL   C263  985   2.349   2.946   6.917 -0.0788 -0.5137 -0.5973
    2MOL   O264  986   2.468   2.962   6.888  0.0044 -0.3033 -0.0303
    2MOL   C265  987   2.250   3.067   6.896 -0.6342  0.6630 -0.1081
    2MOL   C266  988   2.344   3.197   6.878  0.7290  0.4667 -0.3326
    2MOL   C267  989   2.178   3.061   6.755  0.1359  0.5699 -0.3201
    2MOL   H268  990   2.510   1.833   7.020  1.3030  1.1652  1.2879
    2MOL   H269  991   2.329   1.873   7.010  0.3007  0.0402  0.1713
    2MOL   H270  992   2.440   1.930   6.897  0.2873  3.3720 -0.3335
    2MOL   H271  993   2.465   2.009   7.182  0.9335 -2.2028 -0.6358
    2MOL   H272  994   2.566   2.064   7.066 -0.0279 -0.4737 -2.0026
    2MOL   H273  995   2.280   2.110   7.004  0.0493 -3.4010  2.2491
    2MOL   H274  996   2.416   2.216   6.966  0.4794  0.0178 -0.3398
    2MOL   H275  997   2.448   2.271   7.211 -0.4718 -0.3119  1.4240
    2MOL   H276  998   2.296   2.187   7.233  1.6424 -0.4907  0.8051
    2MOL   H277  999   2.207   2.344   7.047  1.2883 -0.1282 -0.5866
    2MOL   H278 1000   2.222   2.415   7.202 -1.7278  0.2773 -1.1087
    2MOL   H279 1001   2.426   2.449   6.981 -0.1776 -0.5517 -0.3151
    2MOL   H280 1002   2.437   2.504   7.159  1.0202 -0.0921 -0.4808
    2MOL   H281 1003   2.217   2.592   6.966  0.4419 -0.1609 -0.1800
    2MOL   H282 1004   2.239   2.631   7.141 -0.7186  0.3812 -0.0047
    2MOL   H283 1005   2.428   2.751   7.097  2.5414  0.1112 -1.6523
    2MOL   H284 1006   2.444   2.697   6.928 -0.2638  2.8568 -0.6218
    2MOL   H285 1007   2.424   3.182   6.806 -0.2101 -0.0689 -1.2647
    2MOL   H286 1008   2.291   3.288   6.849  1.2498  1.0287  0.4285
    2MOL   H287 1009   2.401   3.221   6.968 -0.4164  1.0214  0.2437
    2MOL   H288 1010   2.244   3.086   6.672  0.9846 -2.3409 -0.5899
    2MOL   H289 1011   2.108   3.145   6.757 -1.1587 -0.5110  0.7259
    2MOL   C290 1012   2.916   2.535   5.898 -0.0678  0.0447  0.0943
    2MOL   C291 1013   2.871   2.523   6.048 -0.4604  0.7581  0.3686
    2MOL   C292 1014   2.746   2.608   6.063  0.0365  0.4084  0.2271
    2MOL   C293 1015   2.704   2.603   6.206  0.5649 -0.2930  0.1060
    2MOL   C294 1016   2.579   2.692   6.235  0.3707 -0.5661  0.9267
    2MOL   C295 1017   2.521   2.664   6.372  0.2842 -0.2742 -0.2751
    2MOL   C296 1018   2.432   2.778   6.413  0.0459 -0.3944 -0.4687
    2MOL   C297 1019   2.347   2.734   6.522  0.7563  0.6350  0.0615
    2MOL   O298 1020   2.265   2.846   6.566 -0.5908  0.0836 -0.3325
    2MOL   C299 1021   2.176   2.815   6.658  0.8710 -0.2827 -0.5762
    2MOL   O300 1022   2.164   2.708   6.718 -0.3286 -0.7353  0.2452
    2MOL   C301 1023   2.089   2.945   6.698 -0.2791 -0.4662 -0.2102
    2MOL   C302 1024   1.988   2.896   6.797 -0.1398  0.4896 -0.0301
    2MOL   C303 1025   2.013   3.005   6.571 -0.4116 -0.4785  0.3588
    2MOL   H304 1026   2.898   2.636   5.860 -0.9994 -0.1665 -0.0157
    2MOL   H305 1027   2.854   2.476   5.831 -1.4907  2.3365 -0.6525
    2MOL   H306 1028   3.018   2.496   5.903  0.7786  2.1789  0.2704
    2MOL   H307 1029   2.946   2.566   6.114  0.9659 -1.4217  0.2075
    2MOL   H308 1030   2.854   2.418   6.068 -0.7372  0.0999 -2.9908
    2MOL   H309 1031   2.668   2.582   5.992  0.4529 -1.3535  0.4005
    2MOL   H310 1032   2.771   2.708   6.026  2.7616 -0.6537 -0.8858
    2MOL   H311 1033   2.687   2.501   6.242  1.5520 -0.7167 -0.5979
    2MOL   H312 1034   2.784   2.633   6.275  0.8865 -2.6823  0.8456
    2MOL   H313 1035   2.606   2.798   6.231 -1.7025 -0.0638 -0.3758
    2MOL   H314 1036   2.503   2.671   6.160  0.9106  0.9292 -0.0776
    2MOL   H315 1037   2.601   2.651   6.445 -0.3070 -1.4987  0.1818
    2MOL   H316 1038   2.473   2.566   6.370  1.0166 -0.6140 -1.3596
    2MOL   H317 1039   2.367   2.804   6.330  0.3202  0.6301 -0.3737
    2MOL   H318 1040   2.489   2.866   6.444 -1.2122 -0.6871  2.8781
    2MOL   H319 1041   2.400   2.701   6.612 -0.3155 -1.2466  0.0319
    2MOL   H320 1042   2.284   2.652   6.489 -0.8247  2.0102 -0.3737
    2MOL   H321 1043   1.926   2.812   6.765  1.1855  0.9496 -4.0965
    2MOL   H322 1044   1.914   2.971   6.827 -1.0413 -0.3230 -0.1862
    2MOL   H323 1045   2.031   2.856   6.889  1.1304 -1.1427 -1.3000
    2MOL   H324 1046   2.003   3.113   6.585  1.3475 -0.1000 -0.9706
    2MOL   H325 1047   2.083   3.016   6.488 -1.4762  0.8772 -0.3802
    2MOL   C326 1048   1.384   3.488   7.364  0.4322 -0.0945 -0.2285
    2MOL   C327 1049   1.389   3.616   7.272 -0.0328 -0.0009  0.2301
    2MOL   C328 1050   1.489   3.593   7.152  0.4321 -0.0527 -0.8461
    2MOL   C329 1051   1.463   3.457   7.077 -0.0468 -0.1181 -0.3017
    2MOL   C330 1052   1.557   3.430   6.964  0.3749 -0.1302  0.4117
    2MOL   C331 1053   1.542   3.294   6.901 -0.2192 -0.2132  0.1700
    2MOL   C332 1054   1.663   3.257   6.810 -0.2951  0.1773 -0.3368
    2MOL   C333 1055   1.657   3.113   6.756  0.1564 -0.1935  0.8090
    2MOL   O334 1056   1.759   3.092   6.660 -0.2750  0.1320  0.5007
    2MOL   C335 1057   1.758   2.969   6.605 -0.1196  0.2375 -0.0694
    2MOL   O336 1058   1.674   2.880   6.637  0.0854 -0.5011  0.1697
    2MOL   C337 1059   1.880   2.949   6.507  0.0414  0.2256  0.3225
    2MOL   C338 1060   1.849   3.046   6.388 -0.4560  0.2006 -0.4478
    2MOL   C339 1061   1.887   2.797   6.460 -0.2164 -0.5982 -0.3362
    2MOL   H340 1062   1.317   3.408   7.333  1.7305 -0.2810 -2.6766
    2MOL   H341 1063   1.339   3.512   7.460 -1.4132  0.9014 -1.3129
    2MOL   H342 1064   1.480   3.441   7.383  0.4465 -0.6682 -1.6222
    2MOL   H343 1065   1.421   3.703   7.329  1.3207  0.1142 -0.6834
    2MOL   H344 1066   1.289   3.634   7.231 -1.6187 -4.7728  1.5926
    2MOL   H345 1067   1.591   3.586   7.191  0.3822 -1.7550 -0.9684
    2MOL   H346 1068   1.492   3.676   7.082 -2.3973 -0.1542 -1.1580
    2MOL   H347 1069   1.357   3.443   7.056 -0.2257  1.2384 -0.3435
    2MOL   H348 1070   1.483   3.388   7.158 -2.8081  1.0709  1.4812
    2MOL   H349 1071   1.558   3.514   6.894  0.5005  0.0265  0.6025
    2MOL   H350 1072   1.653   3.423   7.013  1.3210  0.4554 -1.3084
    2MOL   H351 1073   1.538   3.229   6.987 -2.0072 -0.2934  0.0291
    2MOL   H352 1074   1.450   3.283   6.844  0.5983 -1.8989 -0.8724
    2MOL   H353 1075   1.760   3.279   6.854 -0.5187 -1.7766  1.1988
    2MOL   H354 1076   1.645   3.323   6.725  0.2355  5.1440  3.1531
    2MOL   H355 1077   1.659   3.034   6.831 -0.2097 -2.4266 -1.4666
    2MOL   H356 1078   1.559   3.110   6.709  1.0530 -1.2968 -1.0719
    2MOL   H357 1079   1.748   3.026   6.353 -1.3526  1.3633  1.3673
    2MOL   H358 1080   1.842   3.149   6.425  1.4994  1.3089 -3.0045
    2MOL   H359 1081   1.919   3.059   6.306  2.8924 -0.6962  2.1399
    2MOL   H360 1082   1.993   2.775   6.447 -0.2911 -2.1950  1.4295
    2MOL   H361 1083   1.852   2.739   6.546  0.6397 -0.9950 -0.2490
    2MOL   C362 1084   2.847   3.028   5.936  0.6510  0.2667  0.3756
    2MOL   C363 1085   2.696   3.015   5.960 -0.7396 -0.1632 -0.7166
    2MOL   C364 1086   2.635   2.963   5.827 -0.1960  0.0868 -0.9751
    2MOL   C365 1087   2.483   2.963   5.829  0.6201  1.0626  0.4129
    2MOL   C366 1088   2.427   2.869   5.941  1.1509  0.6689 -0.1788
    2MOL   C367 1089   2.272   2.888   5.963  1.0393 -0.1518 -0.3344
    2MOL   C368 1090   2.205   2.800   6.070  0.9211  0.4239 -0.3206
    2MOL   C369 1091   2.060   2.848   6.082 -0.8206  0.3944  0.0619
    2MOL   O370 1092   1.998   2.775   6.184  0.3965  0.4642 -0.4753
    2MOL   C371 1093   1.870   2.795   6.209 -0.5819 -0.0708 -0.2234
    2MOL   O372 1094   1.791   2.840   6.129 -0.0384 -0.3037 -0.0442
    2MOL   C373 1095   1.815   2.725   6.339  0.7858  0.0295 -0.0652
    2MOL   C374 1096   1.657   2.730   6.374  0.0312 -0.1359 -0.1447
    2MOL   C375 1097   1.858   2.573   6.335  0.2210 -0.3759  0.7552
    2MOL   H376 1098   2.882   3.121   5.981  0.3261  0.1080  0.9619
    2MOL   H377 1099   2.898   2.945   5.987 -1.0635 -1.9845 -1.4769
    2MOL   H378 1100   2.894   3.026   5.838  2.4665 -1.9889  1.2369
    2MOL   H379 1101   2.659   3.113   5.989  1.3081 -0.1586  2.0487
    2MOL   H380 1102   2.686   2.939   6.038  1.3101  1.5080  1.2352
    2MOL   H381 1103   2.674   2.863   5.804 -1.4908 -0.5130 -0.5795
    2MOL   H382 1104   2.672   3.030   5.749  1.6941  0.3583  0.1237
    2MOL   H383 1105   2.452   2.915   5.736  1.1407 -0.2872  0.9156
    2MOL   H384 1106   2.442   3.064   5.827 -0.6213  0.6114  1.7031
    2MOL   H385 1107   2.453   2.767   5.913  0.5004  0.0808  1.3130
    2MOL   H386 1108   2.471   2.889   6.039 -0.0005  0.2593  0.4282
    2MOL   H387 1109   2.225   2.881   5.864 -0.5303 -0.6992  0.4280
    2MOL   H388 1110   2.267   2.995   5.980  2.0743 -0.2279  0.4845
    2MOL   H389 1111   2.260   2.816   6.164 -0.0559  0.7359  0.2051
    2MOL   H390 1112   2.209   2.696   6.040  2.0186  0.0238  1.1660
    2MOL   H391 1113   2.047   2.952   6.112 -2.6594  0.3776 -0.6413
    2MOL   H392 1114   2.020   2.841   5.981  1.7427 -0.9736 -0.9024
    2MOL   H393 1115   1.622   2.659   6.448 -1.2940  1.4792  0.8073
    2MOL   H394 1116   1.618   2.829   6.397 -0.2773 -0.7673  2.1952
    2MOL   H395 1117   1.600   2.715   6.282  0.4463  1.3619 -0.6539
    2MOL   H396 1118   1.963   2.567   6.306  0.3315  0.3037  0.9920
    2MOL   H397 1119   1.856   2.531   6.435  3.2009 -4.2715 -0.6963
    2MOL   C398 1120   0.908   2.211   6.268  0.9873  0.5923  0.1603
    2MOL   C399 1121   1.042   2.276   6.305  0.7697  0.3162 -0.2438
    2MOL   C400 1122   1.104   2.227   6.433 -0.3172 -0.7097 -0.3107
    2MOL   C401 1123   1.212   2.322   6.493 -0.2390  0.7036 -0.4564
    2MOL   C402 1124   1.266   2.276   6.627  0.3644  0.5386 -0.3352
    2MOL   C403 1125   1.361   2.371   6.696  0.4527  0.5282 -0.2755
    2MOL   C404 1126   1.477   2.415   6.604 -0.7485 -0.4850 -1.0904
    2MOL   C405 1127   1.560   2.301   6.539  0.0445 -0.8159  0.1626
    2MOL   O406 1128   1.663   2.358   6.460 -0.0724 -0.4264  0.0719
    2MOL   C407 1129   1.643   2.414   6.332  0.4725 -0.0578 -0.0494
    2MOL   O408 1130   1.525   2.421   6.285 -0.0551 -0.3617 -0.4740
    2MOL   C409 1131   1.773   2.459   6.255 -1.0348  0.1532 -0.1413
    2MOL   C410 1132   1.731   2.514   6.118 -0.5012 -0.4227  0.3594
    2MOL   C411 1133   1.878   2.342   6.240  0.8599  0.0037  0.4054
    2MOL   H412 1134   0.879   2.239   6.167  0.8000 -0.8304 -0.1913
    2MOL   H413 1135   0.835   2.236   6.345 -1.1045 -1.9646 -0.9272
    2MOL   H414 1136   0.926   2.104   6.258 -1.2150  0.1578  0.6698
    2MOL   H415 1137   1.033   2.385   6.308 -0.9339  0.1445  2.3920
    2MOL   H416 1138   1.115   2.259   6.225  2.3789  0.4415  1.1826
    2MOL   H417 1139   1.034   2.208   6.514 -0.4066  0.1123 -0.1904
    2MOL   H418 1140   1.139   2.127   6.406  0.8192 -0.6822  1.0553
    2MOL   H419 1141   1.153   2.411   6.512  2.8585  2.5267  0.8128
    2MOL   H420 1142   1.288   2.352   6.422  1.2103  2.8089  1.9216
    2MOL   H421 1143   1.183   2.261   6.695  0.1784  0.2549 -0.6268
    2MOL   H422 1144   1.322   2.185   6.609 -1.8945 -0.5233 -2.3451
    2MOL   H423 1145   1.410   2.332   6.785  1.0864  1.2934 -0.2841
    2MOL   H424 1146   1.308   2.455   6.741 -1.5948 -1.3546  0.9462
    2MOL   H425 1147   1.452   2.498   6.538 -0.3805  1.4660  1.1263
    2MOL   H426 1148   1.536   2.485   6.663  1.6509 -1.8217 -1.8423
    2MOL   H427 1149   1.621   2.249   6.613  2.5047  1.2840 -0.2983
    2MOL   H428 1150   1.507   2.222   6.486 -2.8217  0.1527  1.4966
    2MOL   H429 1151   1.807   2.530   6.042 -1.1775 -0.1094 -0.2534
    2MOL   H430 1152   1.676   2.608   6.118 -0.0683 -0.1424 -2.1150
    2MOL   H431 1153   1.666   2.446   6.064 -0.8863 -0.0707  0.3820
    2MOL   H432 1154   1.890   2.311   6.344  0.3630 -0.3531  0.3555
    2MOL   H433 1155   1.974   2.391   6.221 -0.5352  2.5343 -0.2343
    2MOL   C434 1156   2.508   2.725   5.482 -0.0285 -0.3090  0.2035
    2MOL   C435 1157   2.601   2.614   5.532  0.6767 -0.2870  0.0034
    2MOL   C436 1158   2.569   2.561   5.673  0.8176  0.0374 -0.1584
    2MOL   C437 1159   2.431   2.493   5.699  0.5191  0.0810  0.0919
    2MOL   C438 1160   2.409   2.465   5.854 -0.1943 -0.0264 -0.0937
    2MOL   C439 1161   2.273   2.388   5.888 -0.0594  0.9194  0.3313
    2MOL   C440 1162   2.142   2.452   5.839 -0.1663  0.4283  0.4397
    2MOL   C441 1163   2.016   2.369   5.846  0.5116  0.0162  0.1153
    2MOL   O442 1164   1.970   2.342   5.976 -0.4268 -0.0543  0.1998
    2MOL   C443 1165   1.864   2.260   5.993 -0.3968  1.1267  0.1761
    2MOL   O444 1166   1.795   2.214   5.904 -0.5890  0.1495  0.0932
    2MOL   C445 1167   1.852   2.219   6.143 -0.1387  0.8071 -0.4131
    2MOL   C446 1168   1.711   2.152   6.173 -0.5403  0.2608  0.0951
    2MOL   C447 1169   1.964   2.104   6.152  0.4299  0.4550 -0.8091
    2MOL   H448 1170   2.411   2.675   5.476  0.9961 -2.3411  0.0007
    2MOL   H449 1171   2.535   2.753   5.381 -0.2699 -0.2680  0.1505
    2MOL   H450 1172   2.504   2.804   5.557 -1.7019 -1.2268  1.1376
    2MOL   H451 1173   2.706   2.641   5.539  1.0797 -1.8488  0.1289
    2MOL   H452 1174   2.612   2.533   5.460  0.2626 -1.7007  1.5131
    2MOL   H453 1175   2.583   2.656   5.725  0.2029  0.5720 -0.9561
    2MOL   H454 1176   2.655   2.497   5.692  0.7916  0.0224 -0.0923
    2MOL   H455 1177   2.429   2.400   5.643  0.7441  0.6823 -0.9339
    2MOL   H456 1178   2.355   2.565   5.666 -1.4854  1.5809  7.1505
    2MOL   H457 1179   2.500   2.413   5.886 -0.9244 -1.5409 -0.4022
    2MOL   H458 1180   2.420   2.553   5.916 -1.2210 -0.3745  0.5944
    2MOL   H459 1181   2.263   2.355   5.992 -0.4309  2.4378  0.7863
    2MOL   H460 1182   2.280   2.297   5.828 -2.7390  1.4408 -0.8380
    2MOL   H461 1183   2.118   2.545   5.889  0.3441  0.1207  1.2573
    2MOL   H462 1184   2.168   2.483   5.738  1.7210 -2.0292  0.1167
    2MOL   H463 1185   2.014   2.272   5.796 -0.5552  0.6968 -1.2195
    2MOL   H464 1186   1.936   2.424   5.796  0.7826  0.2885 -0.0175
    2MOL   H465 1187   1.697   2.143   6.281 -1.3476  0.8524  0.0422
    2MOL   H466 1188   1.628   2.208   6.130  0.7195  0.3714 -2.2521
    2MOL   H467 1189   1.686   2.059   6.124  0.5127 -0.3916  0.7635
    2MOL   H468 1190   1.939   2.025   6.081  1.3383 -0.0611 -0.5711
    2MOL   H469 1191   2.057   2.131   6.102  0.1932 -1.5474 -2.4127
    2MOL   C470 1192   1.784   2.688   7.014 -0.7573 -0.2222 -0.6888
    2MOL   C471 1193   1.867   2.578   6.947  0.0060  0.8472  0.6042
    2MOL   C472 1194   1.796   2.492   6.839 -0.4517  0.0851 -0.8611
    2MOL   C473 1195   1.877   2.432   6.724  0.4925 -0.3575  0.7256
    2MOL   C474 1196   2.003   2.356   6.759 -0.4625  0.1170  0.7139
    2MOL   C475 1197   2.072   2.277   6.645  0.1897  0.6942  0.4644
    2MOL   C476 1198   2.171   2.167   6.687  0.1698 -0.4287  0.3931
    2MOL   C477 1199   2.251   2.101   6.569 -0.1333 -0.7644  0.1269
    2MOL   O478 1200   2.156   2.044   6.474 -0.0691 -0.9011 -0.3312
    2MOL   C479 1201   2.111   2.107   6.363  0.5097  0.0609 -0.0310
    2MOL   O480 1202   2.152   2.216   6.325  0.1529 -0.2319  0.4511
    2MOL   C481 1203   2.007   2.030   6.286 -0.1581 -0.3775 -0.6153
    2MOL   C482 1204   1.884   2.001   6.380  0.6870  0.0998  0.0224
    2MOL   C483 1205   2.062   1.891   6.250 -0.2232  0.8662 -0.8327
    2MOL   H484 1206   1.707   2.656   7.084  0.2005  2.3686  1.5945
    2MOL   H485 1207   1.737   2.743   6.932 -0.5388 -0.8995 -1.2700
    2MOL   H486 1208   1.849   2.757   7.067 -0.3609 -0.7250 -0.5111
    2MOL   H487 1209   1.957   2.619   6.901 -0.0516 -1.8310 -2.0367
    2MOL   H488 1210   1.903   2.513   7.027 -0.0645  0.5657  0.4096
    2MOL   H489 1211   1.742   2.413   6.891 -1.7527  1.2129 -0.4574
    2MOL   H490 1212   1.723   2.558   6.792 -2.0886  0.7576  2.4582
    2MOL   H491 1213   1.808   2.365   6.673  0.9472 -1.2846  1.3167
    2MOL   H492 1214   1.903   2.511   6.653  1.2833 -0.6313  0.6994
    2MOL   H493 1215   2.081   2.426   6.792  1.9660 -2.2909  0.2855
    2MOL   H494 1216   1.993   2.292   6.847  0.0113  0.2226  0.8472
    2MOL   H495 1217   1.995   2.228   6.585  1.0027 -1.4631  1.1347
    2MOL   H496 1218   2.112   2.348   6.572 -2.1358  0.0472 -1.5326
    2MOL   H497 1219   2.233   2.209   6.766  0.3150 -0.0499  0.0761
    2MOL   H498 1220   2.119   2.087   6.740 -0.2381 -1.8932 -2.1137
    2MOL   H499 1221   2.321   2.024   6.600 -0.8279 -2.3905 -2.1888
    2MOL   H500 1222   2.305   2.180   6.515  1.9432 -1.1686  1.5409
    2MOL   H501 1223   1.844   2.085   6.437 -1.9004 -0.6894 -0.5920
    2MOL   H502 1224   1.919   1.946   6.468  0.0272 -1.1884 -0.5069
    2MOL   H503 1225   1.802   1.952   6.329 -0.6976  1.9325  0.4466
    2MOL   H504 1226   2.048   1.830   6.339  1.4062  3.2132  1.0701
    2MOL   H505 1227   1.986   1.858   6.179 -0.3337  1.6688 -1.0873
    2MOL   C506 1228   2.072   1.945   5.100 -0.0515  0.0661 -0.0784
    2MOL   C507 1229   1.954   1.863   5.152  0.2575  0.4082 -0.0847
    2MOL   C508 1230   1.957   1.850   5.300 -0.8141 -0.7821  0.5894
    2MOL   C509 1231   1.909   1.979   5.377  0.1920  0.6325 -0.3084
    2MOL   C510 1232   1.901   1.959   5.531 -0.1148  0.4203  0.5284
    2MOL   C511 1233   2.036   1.946   5.604  0.2775  0.1723  0.2978
    2MOL   C512 1234   2.023   1.948   5.756  0.3451 -0.7245  0.9336
    2MOL   C513 1235   2.159   1.966   5.827  0.4115 -0.4377  0.2086
    2MOL   O514 1236   2.144   1.911   5.959  0.1775  0.1440  0.0943
    2MOL   C515 1237   2.230   1.942   6.060  0.1577  0.3799  0.2124
    2MOL   O516 1238   2.329   2.017   6.058 -0.4452  0.0839 -0.1330
    2MOL   C517 1239   2.207   1.860   6.190 -0.6199  0.7024  0.0831
    2MOL   C518 1240   2.311   1.896   6.291 -0.0757  0.3091  0.0034
    2MOL   C519 1241   2.212   1.706   6.152 -0.6389 -0.2200 -0.8289
    2MOL   H520 1242   2.100   1.925   4.997  0.5488  0.0035  0.0984
    2MOL   H521 1243   2.164   1.918   5.152  0.3691  1.4942 -0.0657
    2MOL   H522 1244   2.049   2.049   5.123  0.6263 -0.1742  1.7550
    2MOL   H523 1245   1.951   1.766   5.103 -2.0762  0.9292 -1.0164
    2MOL   H524 1246   1.858   1.905   5.122  0.7630  1.0379 -0.8495
    2MOL   H525 1247   1.905   1.758   5.330 -0.1185 -0.6405  2.2763
    2MOL   H526 1248   2.057   1.829   5.339  0.2624 -2.4891 -2.8048
    2MOL   H527 1249   1.959   2.070   5.347  0.0878  0.7657 -0.0848
    2MOL   H528 1250   1.811   2.002   5.334  0.7442 -1.5752 -2.8645
    2MOL   H529 1251   1.849   2.049   5.563 -2.4342 -0.2776 -1.1189
    2MOL   H530 1252   1.829   1.886   5.566  0.4515  1.1638  3.4294
    2MOL   H531 1253   2.111   2.016   5.568  1.0797 -0.4568  0.7317
    2MOL   H532 1254   2.070   1.847   5.573  0.4853  0.3464 -0.0259
    2MOL   H533 1255   1.985   1.853   5.793  0.7252 -1.3164 -0.1551
    2MOL   H534 1256   1.964   2.034   5.788  1.6612  0.2382  0.8700
    2MOL   H535 1257   2.184   2.072   5.830 -0.7440 -0.2029  1.7662
    2MOL   H536 1258   2.233   1.903   5.777  0.4122 -1.6584  1.7052
    2MOL   H537 1259   2.409   1.864   6.254  0.3597  1.2520  0.3329
    2MOL   H538 1260   2.287   1.843   6.383  0.6960  1.4638  0.8824
    2MOL   H539 1261   2.324   1.997   6.328  0.4472 -0.8861  3.2436
    2MOL   H540 1262   2.176   1.659   6.244  1.4211  0.2246  0.2456
    2MOL   H541 1263   2.130   1.694   6.082  0.1337  0.9472 -1.9482
    2MOL   C542 1264   1.863   1.580   6.661  0.1076  0.5208 -0.2637
    2MOL   C543 1265   1.973   1.665   6.596 -0.0607  0.5097 -0.7016
    2MOL   C544 1266   2.047   1.745   6.707 -0.0082  0.1622  0.5488
    2MOL   C545 1267   2.150   1.664   6.784  0.1957 -0.1539 -0.2650
    2MOL   C546 1268   2.295   1.676   6.744  0.2537  0.0056  0.2387
    2MOL   C547 1269   2.325   1.619   6.603 -0.0241 -0.0114  0.2505
    2MOL   C548 1270   2.463   1.653   6.562 -0.2806 -0.1919  0.2659
    2MOL   C549 1271   2.500   1.585   6.437  0.1650 -0.1045  0.5889
    2MOL   O550 1272   2.412   1.626   6.333  0.0071 -0.1077  0.2465
    2MOL   C551 1273   2.448   1.606   6.206  0.0519 -0.0763  0.5761
    2MOL   O552 1274   2.558   1.563   6.170 -0.3230 -0.0203 -0.0798
    2MOL   C553 1275   2.334   1.625   6.100  0.1089  0.5762 -0.5708
    2MOL   C554 1276   2.396   1.698   5.974  0.0000  0.6293  0.0368
    2MOL   C555 1277   2.296   1.481   6.038  0.5490  0.2491  0.0689
    2MOL   H556 1278   1.908   1.505   6.726  1.5494  0.8116 -0.9128
    2MOL   H557 1279   1.797   1.525   6.594 -2.0564  0.5664  1.7749
    2MOL   H558 1280   1.794   1.628   6.731 -0.7891  1.3805 -1.7122
    2MOL   H559 1281   2.035   1.590   6.547 -0.6783  0.6559 -1.7111
    2MOL   H560 1282   1.930   1.728   6.518 -0.9375 -0.2565 -0.8438
    2MOL   H561 1283   1.971   1.772   6.781 -0.9028  1.0357 -0.6700
    2MOL   H562 1284   2.085   1.836   6.661 -0.1598  0.1459  0.3914
    2MOL   H563 1285   2.134   1.686   6.889 -1.1650 -2.5409  0.0718
    2MOL   H564 1286   2.107   1.565   6.792 -2.1397  0.6489 -2.0153
    2MOL   H565 1287   2.357   1.615   6.810 -0.0447 -0.8784 -0.2903
    2MOL   H566 1288   2.329   1.780   6.745 -0.2096  0.1725 -0.6768
    2MOL   H567 1289   2.305   1.512   6.606  2.2936 -0.4519  0.9737
    2MOL   H568 1290   2.259   1.661   6.528  1.3562  0.2999 -0.8058
    2MOL   H569 1291   2.497   1.756   6.555  1.5572 -0.7975 -0.1607
    2MOL   H570 1292   2.532   1.613   6.637 -0.0819  1.0291  0.7410
    2MOL   H571 1293   2.494   1.477   6.446  2.1920 -0.2645  0.2772
    2MOL   H572 1294   2.598   1.616   6.400  0.3655 -0.8894  0.4635
    2MOL   H573 1295   2.321   1.747   5.912 -0.5276  1.3014  1.2010
    2MOL   H574 1296   2.461   1.631   5.917 -0.1252  0.3090  0.2648
    2MOL   H575 1297   2.463   1.779   6.002  0.3639  0.8571 -1.4320
    2MOL   H576 1298   2.387   1.443   5.992 -0.7861 -2.0639 -0.7190
    2MOL   H577 1299   2.244   1.504   5.945 -1.3874 -1.7356  0.6130
    2MOL   C578 1300   1.544   2.033   5.578  0.7036 -0.2176  0.1910
    2MOL   C579 1301   1.587   2.026   5.723  0.2366  0.1197  0.2406
    2MOL   C580 1302   1.497   1.912   5.788 -0.2179 -0.3495  0.1002
    2MOL   C581 1303   1.553   1.860   5.922  0.1864 -0.1643 -0.3858
    2MOL   C582 1304   1.684   1.783   5.903 -0.0376 -0.7687 -0.0801
    2MOL   C583 1305   1.713   1.677   6.010  0.1022  0.2385  0.0575
    2MOL   C584 1306   1.853   1.617   5.981 -0.0503 -0.2442 -0.2258
    2MOL   C585 1307   1.904   1.531   6.095  0.8921 -0.1718 -0.2134
    2MOL   O586 1308   2.025   1.475   6.063  0.0634 -0.6794 -0.9095
    2MOL   C587 1309   2.094   1.415   6.162  0.2841  0.7475 -0.3114
    2MOL   O588 1310   2.042   1.392   6.272  0.6977  0.6349 -0.2398
    2MOL   C589 1311   2.228   1.365   6.115 -0.1253  0.4989  0.3395
    2MOL   C590 1312   2.319   1.315   6.232 -0.3155 -0.1171  0.1157
    2MOL   C591 1313   2.222   1.243   6.016 -0.8868 -0.3472 -0.5082
    2MOL   H592 1314   1.592   2.118   5.530  0.7398 -0.0972  0.4434
    2MOL   H593 1315   1.437   2.054   5.566  0.7642  1.2937  2.1372
    2MOL   H594 1316   1.575   1.940   5.530  1.1443  0.0103  0.0253
    2MOL   H595 1317   1.577   2.123   5.773 -0.0820 -0.1345  0.6750
    2MOL   H596 1318   1.692   1.998   5.727 -0.1465 -1.2518  1.0850
    2MOL   H597 1319   1.482   1.830   5.717  0.1360  0.4807 -0.9489
    2MOL   H598 1320   1.401   1.960   5.803 -0.9834 -2.0603  0.7702
    2MOL   H599 1321   1.470   1.805   5.968 -0.8767  1.2624 -0.5826
    2MOL   H600 1322   1.571   1.943   5.990 -1.5633 -0.1586  0.1036
    2MOL   H601 1323   1.772   1.845   5.882 -1.8624  0.8963 -3.0925
    2MOL   H602 1324   1.674   1.715   5.819  0.1627  0.0803 -0.7896
    2MOL   H603 1325   1.639   1.598   6.016  0.1173  0.3568  2.4812
    2MOL   H604 1326   1.711   1.732   6.104 -0.5292  0.7252 -0.2375
    2MOL   H605 1327   1.927   1.691   5.949 -0.5556 -0.2083 -1.3401
    2MOL   H606 1328   1.843   1.550   5.896 -2.6604 -0.0359 -0.1249
    2MOL   H607 1329   1.927   1.583   6.188 -0.1305  1.0214 -0.6031
    2MOL   H608 1330   1.831   1.451   6.108  2.2137 -1.2908  0.4442
    2MOL   H609 1331   2.317   1.386   6.314  2.3776  1.3055 -0.9822
    2MOL   H610 1332   2.274   1.226   6.275  0.0050 -0.0613  0.5647
    2MOL   H611 1333   2.425   1.294   6.216  0.5647  3.1361  1.3061
    2MOL   H612 1334   2.318   1.198   5.993 -2.3454 -3.0264 -1.6064
    2MOL   H613 1335   2.202   1.291   5.921 -1.8017 -0.3687 -0.3328
    2MOL   C614 1336   2.020   0.478   5.221  0.1146 -0.2588  1.1761
    2MOL   C615 1337   2.123   0.560   5.288 -0.4781 -0.6272  0.3478
    2MOL   C616 1338   2.147   0.694   5.226 -0.0992 -0.0462 -0.5069
    2MOL   C617 1339   2.273   0.775   5.289 -0.2547  0.4227 -0.2802
    2MOL   C618 1340   2.247   0.799   5.442 -0.3512  0.6307  0.5810
    2MOL   C619 1341   2.124   0.883   5.470  0.2337  0.4043  0.0137
    2MOL   C620 1342   2.101   0.927   5.611  1.0175  0.0707 -0.2695
    2MOL   C621 1343   2.206   1.028   5.662  0.0422  0.1089  0.5552
    2MOL   O622 1344   2.164   1.091   5.782 -0.1969  0.4214  1.0509
    2MOL   C623 1345   2.170   1.027   5.911 -0.0656 -0.5052 -0.2078
    2MOL   O624 1346   2.219   0.919   5.941 -0.0376 -0.1641  0.0160
    2MOL   C625 1347   2.120   1.121   6.022  0.4600 -0.9978 -0.0998
    2MOL   C626 1348   2.139   1.052   6.160  0.1978 -0.1367 -0.0761
    2MOL   C627 1349   1.969   1.158   5.998 -0.1110 -0.2270  0.3413
    2MOL   H628 1350   1.927   0.530   5.201 -0.0698 -1.2387 -0.6441
    2MOL   H629 1351   1.999   0.383   5.271 -1.0657  0.6721  2.4986
    2MOL   H630 1352   2.054   0.459   5.119  1.2642  1.4888  1.2199
    2MOL   H631 1353   2.107   0.586   5.393 -0.5339 -0.6939  0.3557
    2MOL   H632 1354   2.216   0.503   5.293 -0.5747 -0.9281 -1.0554
    2MOL   H633 1355   2.058   0.756   5.236  0.7632  0.9790  1.1385
    2MOL   H634 1356   2.167   0.678   5.120  1.4428 -1.1045 -0.0742
    2MOL   H635 1357   2.293   0.872   5.241  0.9531  1.4841  2.2641
    2MOL   H636 1358   2.363   0.720   5.259 -1.4499  0.0526 -3.3540
    2MOL   H637 1359   2.244   0.710   5.505  0.1621  1.6035  2.0165
    2MOL   H638 1360   2.321   0.859   5.494 -0.8088 -0.8701  3.0765
    2MOL   H639 1361   2.125   0.976   5.414 -2.2261  0.7796  0.5270
    2MOL   H640 1362   2.041   0.818   5.441  1.4620 -1.2816  0.2192
    2MOL   H641 1363   2.082   0.852   5.686 -0.5422 -0.6833 -1.3890
    2MOL   H642 1364   2.009   0.985   5.598 -0.1676 -1.7556 -0.0745
    2MOL   H643 1365   2.304   0.983   5.678 -0.4697 -1.4372 -0.5996
    2MOL   H644 1366   2.215   1.106   5.586  0.1134  0.8099  1.2741
    2MOL   H645 1367   2.092   0.953   6.163  1.0004 -0.5289 -0.3847
    2MOL   H646 1368   2.087   1.106   6.240  2.7501 -0.8908  2.1745
    2MOL   H647 1369   2.243   1.029   6.184 -0.2594 -2.9481 -0.5986
    2MOL   H648 1370   1.961   1.209   5.902 -1.5803  1.1296  1.1465
    2MOL   H649 1371   1.944   1.230   6.076 -0.5465  1.2425 -1.1223
    2MOL   C650 1372   2.456   1.115   6.493  0.0483 -0.0177  0.3464
    2MOL   C651 1373   2.317   1.164   6.524  0.2905  0.4953 -0.2561
    2MOL   C652 1374   2.263   1.137   6.669  0.1194 -0.6368  0.3458
    2MOL   C653 1375   2.121   1.183   6.707 -0.0171 -0.3501 -0.0630
    2MOL   C654 1376   2.021   1.083   6.649 -0.7629 -0.4237 -0.1477
    2MOL   C655 1377   1.940   1.139   6.533 -0.1659  0.1554 -0.3982
    2MOL   C656 1378   1.843   1.031   6.477  0.1982 -0.9066 -0.1261
    2MOL   C657 1379   1.742   1.067   6.365  0.5440  0.1406  0.2571
    2MOL   O658 1380   1.794   1.095   6.235  0.0687 -0.4405  0.1697
    2MOL   C659 1381   1.819   0.999   6.149 -0.0438  0.0556 -0.0429
    2MOL   O660 1382   1.820   0.880   6.170  0.6356  0.2031  0.2894
    2MOL   C661 1383   1.844   1.059   6.003 -0.1995  0.0614 -0.5004
    2MOL   C662 1384   1.873   0.946   5.904 -0.8432 -0.4955  0.6787
    2MOL   C663 1385   1.729   1.146   5.942  0.3482  0.2158 -0.4508
    2MOL   H664 1386   2.449   1.006   6.485 -0.6548 -0.0781  1.6098
    2MOL   H665 1387   2.535   1.123   6.568  0.3741 -1.8286  0.2224
    2MOL   H666 1388   2.504   1.151   6.402  0.4531 -2.6082 -0.4973
    2MOL   H667 1389   2.249   1.121   6.449 -0.1959 -0.7574  0.8854
    2MOL   H668 1390   2.300   1.270   6.507  1.0262  0.6643  0.0620
    2MOL   H669 1391   2.337   1.188   6.730  1.9614  0.2550 -2.4982
    2MOL   H670 1392   2.283   1.031   6.683 -0.0696 -0.5584  1.2481
    2MOL   H671 1393   2.107   1.288   6.680 -1.9379 -0.5037  0.2527
    2MOL   H672 1394   2.115   1.175   6.816 -0.7737  0.6809 -0.0214
    2MOL   H673 1395   1.966   1.052   6.737  0.1384 -2.1123 -0.1607
    2MOL   H674 1396   2.073   0.991   6.622  1.1785  0.7240 -0.3961
    2MOL   H675 1397   1.893   1.232   6.566 -2.2986 -1.0226 -0.0107
    2MOL   H676 1398   2.011   1.166   6.454  0.8717  2.0226  1.1204
    2MOL   H677 1399   1.784   0.979   6.553 -0.3833 -2.4769 -1.6230
    2MOL   H678 1400   1.911   0.953   6.445  1.6009 -0.4925  1.7635
    2MOL   H679 1401   1.684   1.150   6.406  0.5159 -0.5386  1.6178
    2MOL   H680 1402   1.662   0.993   6.354 -0.1719  1.3489 -3.3164
    2MOL   H681 1403   1.782   0.885   5.905 -1.0266 -0.2344  0.1370
    2MOL   H682 1404   1.956   0.880   5.928  2.3175  2.7739 -0.7367
    2MOL   H683 1405   1.893   0.979   5.802  0.9921 -0.9174  0.8925
    2MOL   H684 1406   1.740   1.244   5.988 -1.1558 -0.4453  1.4296
    2MOL   H685 1407   1.746   1.174   5.838 -0.2932  1.7902 -0.1440
    2MOL   C686 1408   1.325   2.074   6.192  0.9207  0.5523  0.9181
    2MOL   C687 1409   1.395   2.010   6.309 -0.2122  0.7706  0.1278
    2MOL   C688 1410   1.449   1.872   6.288  0.4344  0.8104  0.1384
    2MOL   C689 1411   1.502   1.816   6.417  0.5737 -0.4940 -0.1247
    2MOL   C690 1412   1.569   1.676   6.415 -0.1913  0.3967  1.0017
    2MOL   C691 1413   1.480   1.568   6.329  0.2244 -0.3270  0.4858
    2MOL   C692 1414   1.551   1.434   6.325  0.4390 -0.7250  0.2840
    2MOL   C693 1415   1.476   1.319   6.258 -0.0536 -0.4373  0.3494
    2MOL   O694 1416   1.530   1.279   6.138 -0.0822  0.3111 -0.1197
    2MOL   C695 1417   1.524   1.147   6.098  0.1508 -0.2916 -0.6891
    2MOL   O696 1418   1.483   1.059   6.176  0.1406 -0.6316  0.4229
    2MOL   C697 1419   1.578   1.106   5.955 -0.0423  0.3148 -0.4090
    2MOL   C698 1420   1.544   0.958   5.929 -0.1898  0.1545  0.0475
    2MOL   C699 1421   1.500   1.185   5.847 -0.4929  0.1120  0.3634
    2MOL   H700 1422   1.220   2.046   6.201  0.9224  0.0139 -0.5954
    2MOL   H701 1423   1.360   2.044   6.093 -0.4118  0.7544  0.3680
    2MOL   H702 1424   1.329   2.183   6.190  0.4387  0.5653 -1.3567
    2MOL   H703 1425   1.340   2.022   6.403  0.0360  0.6246  0.2940
    2MOL   H704 1426   1.494   2.052   6.325  0.7700 -2.0010  1.7737
    2MOL   H705 1427   1.523   1.863   6.209  1.8902  0.9769  1.4455
    2MOL   H706 1428   1.369   1.806   6.256  2.1336 -1.9138  1.3307
    2MOL   H707 1429   1.411   1.814   6.478 -0.3622  2.3256 -1.3447
    2MOL   H708 1430   1.575   1.884   6.458 -0.4512  0.8515 -0.5053
    2MOL   H709 1431   1.579   1.642   6.518  0.4085 -0.6551  0.6059
    2MOL   H710 1432   1.673   1.679   6.383 -1.1833  0.3951 -2.3687
    2MOL   H711 1433   1.377   1.557   6.363 -0.1919 -0.3029 -0.7392
    2MOL   H712 1434   1.469   1.611   6.230 -0.7345 -0.8312  0.3712
    2MOL   H713 1435   1.645   1.445   6.271 -0.4218 -1.4209 -1.4081
    2MOL   H714 1436   1.589   1.407   6.423 -1.5381  0.1174  1.3188
    2MOL   H715 1437   1.368   1.330   6.249 -0.1843 -1.8765  0.0427
    2MOL   H716 1438   1.476   1.243   6.335 -1.5196 -0.8029  0.0132
    2MOL   H717 1439   1.567   0.923   5.828  0.6177 -1.3831  0.7459
    2MOL   H718 1440   1.583   0.888   6.002 -1.1796 -1.1295 -0.6294
    2MOL   H719 1441   1.436   0.941   5.926 -0.0269 -0.9907  0.4255
    2MOL   H720 1442   1.501   1.293   5.860  3.2285  0.1371  0.4171
    2MOL   H721 1443   1.394   1.161   5.851 -0.4828  0.2879  3.0106
    2MOL   H722 1444   1.536   1.147   5.752  0.2639  0.6026  0.4533
    3MOL     C1 1445   2.684   5.924   4.670  0.2570 -0.2908 -1.0588
    3MOL     C2 1446   2.715   5.913   4.819  0.5662  0.6526 -0.3731
    3MOL     C3 1447   2.703   6.049   4.896  0.2376 -0.1436 -0.5779
    3MOL     C4 1448   2.723   6.040   5.049  0.0017 -0.3921  0.2787
    3MOL     C5 1449   2.624   5.953   5.124  0.4682  0.0018 -1.0060
    3MOL     C6 1450   2.484   6.011   5.134  0.3260  0.0104 -0.7671
    3MOL     C7 1451   2.395   5.926   5.230  0.1272 -0.5364  0.0276
    3MOL     C8 1452   2.270   6.005   5.289 -0.1584  0.3416  0.7647
    3MOL     O9 1453   2.162   5.999   5.188  0.2390 -0.1542 -0.2588
    3MOL    C10 1454   2.053   6.065   5.215 -0.1553  0.0913 -0.2998
    3MOL    O11 1455   2.030   6.138   5.310  0.5045 -0.7438 -0.5040
    3MOL    C12 1456   1.936   6.031   5.117  0.2217 -0.3100  0.0374
    3MOL    C13 1457   1.966   6.081   4.977 -0.5754 -0.1606  0.5200
    3MOL    C14 1458   1.881   5.889   5.117  0.1649  0.2354  0.7705
    3MOL    H15 1459   2.760   5.977   4.613 -0.0402  1.5748  0.2527
    3MOL    H16 1460   2.580   5.949   4.651 -0.4178 -2.7301 -0.7745
    3MOL    H17 1461   2.698   5.821   4.638  1.3153 -0.4927 -0.0015
    3MOL    H18 1462   2.809   5.858   4.833  0.2754 -0.0650 -1.1648
    3MOL    H19 1463   2.636   5.853   4.865  1.2853  0.1432  0.2132
    3MOL    H20 1464   2.783   6.119   4.874 -0.3932  0.7317 -0.1534
    3MOL    H21 1465   2.610   6.102   4.875  0.1971 -0.2266 -0.6114
    3MOL    H22 1466   2.820   5.993   5.068 -0.7757 -2.5155 -0.8842
    3MOL    H23 1467   2.725   6.138   5.098  2.2183 -0.1626 -0.1756
    3MOL    H24 1468   2.664   5.938   5.225 -1.2984  1.5629 -0.0442
    3MOL    H25 1469   2.621   5.857   5.073 -1.1780 -0.3904 -0.1811
    3MOL    H26 1470   2.438   6.026   5.037 -0.3082  0.4957 -0.3988
    3MOL    H27 1471   2.494   6.111   5.176 -1.4518 -0.6189  1.2761
    3MOL    H28 1472   2.454   5.896   5.317  0.3892 -1.0112 -0.3171
    3MOL    H29 1473   2.362   5.831   5.190  3.7352 -2.7021  1.9225
    3MOL    H30 1474   2.294   6.107   5.320  1.1540 -0.2907  1.8794
    3MOL    H31 1475   2.235   5.948   5.375 -0.6720  2.5324  2.0458
    3MOL    H32 1476   1.935   6.185   4.979 -0.2652 -0.0787  3.4618
    3MOL    H33 1477   2.072   6.067   4.958 -0.7543 -2.3421  1.0123
    3MOL    H34 1478   1.909   6.032   4.897 -1.7491  2.4452 -0.2908
    3MOL    H35 1479   1.956   5.831   5.063  1.0502  1.5388  0.5692
    3MOL    H36 1480   1.794   5.883   5.052  0.2659 -0.8171  0.7166
    3MOL    H37 1481   1.853   6.095   5.145 -0.6299 -2.2753  2.1114
    3MOL    C38 1482   1.331   5.631   4.354  0.7442 -0.3235 -0.8441
    3MOL    C39 1483   1.429   5.667   4.471  0.8271  0.1127  0.1453
    3MOL    C40 1484   1.349   5.662   4.610 -0.9394  0.1628  0.9238
    3MOL    C41 1485   1.436   5.703   4.733 -0.4971  0.1513 -0.3688
    3MOL    C42 1486   1.551   5.609   4.765  0.2618 -0.1213 -0.0372
    3MOL    C43 1487   1.624   5.633   4.903  0.0355 -0.5960  0.1321
    3MOL    C44 1488   1.739   5.530   4.932  0.2252 -0.7314  0.2696
    3MOL    C45 1489   1.760   5.506   5.084 -0.5719  0.1667 -0.2647
    3MOL    O46 1490   1.825   5.612   5.153 -0.5462  0.3310  0.0537
    3MOL    C47 1491   1.757   5.699   5.218  0.0503 -0.2353  1.1848
    3MOL    O48 1492   1.637   5.702   5.240 -0.6484  0.5853 -0.1506
    3MOL    C49 1493   1.848   5.816   5.261 -0.1322  1.4994 -0.6844
    3MOL    C50 1494   1.764   5.917   5.340 -0.3013 -0.1476 -0.9565
    3MOL    C51 1495   1.972   5.760   5.331 -1.4750  0.6158 -0.3422
    3MOL    H52 1496   1.250   5.575   4.400  0.3611  0.5036 -0.5019
    3MOL    H53 1497   1.384   5.573   4.279 -2.5628 -2.5056 -1.6078
    3MOL    H54 1498   1.290   5.718   4.301  3.0128  0.4066 -1.4764
    3MOL    H55 1499   1.471   5.766   4.453  0.5813  0.1198 -0.3889
    3MOL    H56 1500   1.512   5.597   4.476  1.4371  0.9834  5.0106
    3MOL    H57 1501   1.273   5.739   4.602  2.1108  3.3733  1.3618
    3MOL    H58 1502   1.314   5.559   4.615 -2.0830  0.3244 -2.4921
    3MOL    H59 1503   1.370   5.703   4.820 -0.3431  1.2074 -0.2441
    3MOL    H60 1504   1.461   5.808   4.721 -0.3919  0.4162  2.0991
    3MOL    H61 1505   1.504   5.510   4.770  0.3685 -0.1680  0.0275
    3MOL    H62 1506   1.630   5.604   4.689  0.1467 -1.4279 -0.0957
    3MOL    H63 1507   1.650   5.739   4.907  1.5472 -0.9986  1.7736
    3MOL    H64 1508   1.539   5.627   4.972 -0.2593 -0.2158 -0.1902
    3MOL    H65 1509   1.832   5.568   4.891  1.2361 -4.0678 -0.7301
    3MOL    H66 1510   1.715   5.434   4.887 -0.3975  0.0873 -1.1881
    3MOL    H67 1511   1.819   5.420   5.116  0.4950  0.2550 -1.9176
    3MOL    H68 1512   1.662   5.484   5.127 -0.7952 -0.5242 -1.0975
    3MOL    H69 1513   1.674   5.952   5.289  0.6566  2.3337 -0.9678
    3MOL    H70 1514   1.726   5.885   5.438  3.3399  1.6379  1.1227
    3MOL    H71 1515   1.820   6.008   5.359 -0.2245 -0.6150  1.2654
    3MOL    H72 1516   2.050   5.835   5.340  0.6288 -1.7075  1.4914
    3MOL    H73 1517   2.019   5.682   5.273 -0.2134 -0.0652  1.5406
    3MOL    C74 1518   2.536   6.321   6.258  0.0618  0.0765  0.0571
    3MOL    C75 1519   2.447   6.360   6.147  0.9004 -0.4661 -0.1782
    3MOL    C76 1520   2.390   6.241   6.069 -0.5550 -0.1731 -0.1573
    3MOL    C77 1521   2.317   6.286   5.950  0.1661 -0.2896  0.6293
    3MOL    C78 1522   2.264   6.166   5.872  0.5672 -0.6099  0.2614
    3MOL    C79 1523   2.206   6.213   5.740 -0.1342  0.6708  0.8196
    3MOL    C80 1524   2.178   6.109   5.633  0.0206 -0.4203 -0.0211
    3MOL    C81 1525   2.057   6.016   5.659  0.3660 -0.2918 -0.6036
    3MOL    O82 1526   2.057   5.907   5.565 -0.5163  0.5751  0.3342
    3MOL    C83 1527   1.968   5.811   5.586  0.7982  0.3579  0.3083
    3MOL    O84 1528   1.884   5.815   5.678 -0.0494 -0.2641  0.0078
    3MOL    C85 1529   1.973   5.699   5.480  0.8386 -0.5586  0.1448
    3MOL    C86 1530   1.852   5.601   5.500 -0.1757  0.1368 -0.2039
    3MOL    C87 1531   2.108   5.618   5.486 -0.3421 -0.7688  0.2399
    3MOL    H88 1532   2.480   6.271   6.336  0.2747 -0.7881 -0.3461
    3MOL    H89 1533   2.589   6.402   6.309  0.1470 -0.4173  0.7529
    3MOL    H90 1534   2.612   6.249   6.228 -1.4543 -1.1318 -0.9168
    3MOL    H91 1535   2.504   6.425   6.080  1.2898 -0.6659 -0.0388
    3MOL    H92 1536   2.364   6.416   6.191  0.9038 -0.9374  0.4291
    3MOL    H93 1537   2.476   6.178   6.046 -1.5783 -2.2005  1.3230
    3MOL    H94 1538   2.318   6.184   6.128 -0.6771  0.7699  0.6248
    3MOL    H95 1539   2.375   6.349   5.883 -2.6799  0.7273 -0.9927
    3MOL    H96 1540   2.232   6.346   5.983 -1.2983 -3.0904  2.1256
    3MOL    H97 1541   2.348   6.097   5.862  0.0033 -1.3431  0.5758
    3MOL    H98 1542   2.187   6.105   5.918 -0.3798 -0.2105 -0.7721
    3MOL    H99 1543   2.117   6.274   5.755 -1.1412 -1.2662  2.9237
    3MOL   H100 1544   2.274   6.282   5.689  1.6248 -0.8580  1.0114
    3MOL   H101 1545   2.174   6.152   5.533 -0.6554  0.0655  0.2071
    3MOL   H102 1546   2.267   6.046   5.629  0.6842  0.5177 -0.2494
    3MOL   H103 1547   1.975   6.087   5.646  0.9357  0.3226 -0.8194
    3MOL   H104 1548   2.063   5.984   5.763 -3.6400 -2.1939 -0.8591
    3MOL   H105 1549   1.762   5.662   5.499 -0.1986  0.0933 -1.4370
    3MOL   H106 1550   1.840   5.550   5.596  0.6929  1.4329  0.6007
    3MOL   H107 1551   1.852   5.528   5.419 -1.6250  1.3853 -1.3444
    3MOL   H108 1552   2.085   5.520   5.443 -3.3762  0.3690 -0.8302
    3MOL   H109 1553   2.190   5.662   5.431 -0.5149  0.1918  0.7460
    3MOL   C110 1554   3.228   5.490   5.688 -0.2282 -0.0304  0.1641
    3MOL   C111 1555   3.088   5.452   5.740 -0.8002 -0.2977  0.3895
    3MOL   C112 1556   2.990   5.573   5.768  0.3874  0.4216  0.2352
    3MOL   C113 1557   2.876   5.514   5.862 -0.5529 -0.1552 -0.3950
    3MOL   C114 1558   2.764   5.619   5.895  0.4438 -0.4415 -0.9422
    3MOL   C115 1559   2.665   5.640   5.775 -0.1972  0.7275 -0.2319
    3MOL   C116 1560   2.542   5.718   5.823  0.7692 -0.5316  0.8419
    3MOL   C117 1561   2.472   5.791   5.705 -0.1220  0.6802 -0.3191
    3MOL   O118 1562   2.375   5.718   5.629  0.1232 -0.1830  0.1351
    3MOL   C119 1563   2.254   5.686   5.683  0.9022 -0.1837 -0.1261
    3MOL   O120 1564   2.201   5.744   5.775 -0.1039  0.0080  0.1331
    3MOL   C121 1565   2.186   5.565   5.614  0.6573 -0.3317  0.4487
    3MOL   C122 1566   2.306   5.471   5.558  0.5455 -0.2392  0.0534
    3MOL   C123 1567   2.081   5.502   5.713  0.1001  0.1072 -0.0245
    3MOL   H124 1568   3.254   5.595   5.703  1.2984 -0.0784 -1.8880
    3MOL   H125 1569   3.295   5.434   5.753  0.3713  0.4810 -0.0028
    3MOL   H126 1570   3.234   5.466   5.582 -1.3218 -0.7088  0.2484
    3MOL   H127 1571   3.103   5.394   5.831  0.1335  1.2424  1.2206
    3MOL   H128 1572   3.043   5.384   5.667 -0.1233  1.8801 -2.1273
    3MOL   H129 1573   2.952   5.593   5.667 -0.2512  2.5963  0.8861
    3MOL   H130 1574   3.025   5.664   5.815  0.4837  0.6631 -0.2949
    3MOL   H131 1575   2.832   5.423   5.822 -0.2328 -1.5929  2.4286
    3MOL   H132 1576   2.928   5.485   5.954 -0.0676  0.0637 -0.5994
    3MOL   H133 1577   2.796   5.718   5.926 -1.0997  0.0684 -0.9493
    3MOL   H134 1578   2.708   5.565   5.972  1.5924 -1.9159 -1.1060
    3MOL   H135 1579   2.713   5.685   5.689  2.8050 -0.6038  0.6865
    3MOL   H136 1580   2.621   5.546   5.742 -1.1331 -0.0765  3.0509
    3MOL   H137 1581   2.577   5.788   5.898 -2.4515  0.2892  1.6665
    3MOL   H138 1582   2.464   5.670   5.883  0.3031  0.3997  0.9854
    3MOL   H139 1583   2.431   5.880   5.753  2.2147  1.3528  0.5165
    3MOL   H140 1584   2.552   5.820   5.637 -0.8492 -1.2209 -2.0208
    3MOL   H141 1585   2.367   5.512   5.478  0.8743 -0.8805 -0.0227
    3MOL   H142 1586   2.375   5.434   5.633  1.3083 -0.9674 -0.9968
    3MOL   H143 1587   2.273   5.385   5.500  0.9399  0.4603 -1.2130
    3MOL   H144 1588   2.009   5.433   5.669 -1.6807  0.1924  2.6186
    3MOL   H145 1589   2.012   5.575   5.755 -0.3945  0.2756 -1.1185
    3MOL   C146 1590   1.813   4.655   6.318  0.7330  0.4396 -0.2708
    3MOL   C147 1591   1.778   4.763   6.215  0.1136 -0.0282 -0.1558
    3MOL   C148 1592   1.901   4.771   6.126 -0.3197  0.7762  0.3556
    3MOL   C149 1593   1.874   4.860   6.002 -0.4186 -0.0425  0.9219
    3MOL   C150 1594   2.002   4.875   5.911 -0.1935 -0.4106 -0.1017
    3MOL   C151 1595   1.989   4.966   5.790 -0.2235 -0.1314  0.3230
    3MOL   C152 1596   2.127   4.967   5.720 -0.0814  0.4906 -0.2400
    3MOL   C153 1597   2.159   5.097   5.636  0.3097  0.1356 -0.4899
    3MOL   O154 1598   2.112   5.216   5.702  0.2796  0.4157 -0.7309
    3MOL   C155 1599   2.190   5.280   5.792  0.2012 -0.1485 -0.1315
    3MOL   O156 1600   2.303   5.240   5.822  0.3506 -0.4733  0.2254
    3MOL   C157 1601   2.128   5.419   5.842 -0.9115  0.4202  0.4718
    3MOL   C158 1602   2.240   5.493   5.923  0.5241 -0.3162 -0.2869
    3MOL   C159 1603   1.989   5.390   5.920  0.3061 -0.4854  0.2229
    3MOL   H160 1604   1.801   4.554   6.278  2.0781  0.5276 -0.9104
    3MOL   H161 1605   1.732   4.670   6.390  1.4829  0.8647  0.5030
    3MOL   H162 1606   1.898   4.667   6.385 -0.5037  0.7043  1.2880
    3MOL   H163 1607   1.691   4.717   6.170  0.4168 -1.2526  0.4845
    3MOL   H164 1608   1.762   4.857   6.269 -2.0015  0.3513 -1.3882
    3MOL   H165 1609   1.923   4.675   6.079 -1.0100 -0.0986  1.8104
    3MOL   H166 1610   1.988   4.807   6.180  0.2924  0.9094 -0.7192
    3MOL   H167 1611   1.790   4.816   5.949  0.6872 -2.1290  0.8479
    3MOL   H168 1612   1.837   4.957   6.037  0.2551  0.4140  0.3767
    3MOL   H169 1613   2.028   4.777   5.871 -0.1581  0.4520 -2.2787
    3MOL   H170 1614   2.088   4.911   5.968  1.1449 -2.7808 -0.5588
    3MOL   H171 1615   1.953   5.067   5.808  0.1263  0.1467 -0.5227
    3MOL   H172 1616   1.907   4.928   5.731 -0.0685  0.0024  0.0216
    3MOL   H173 1617   2.206   4.958   5.795  0.4229 -2.0763 -1.0314
    3MOL   H174 1618   2.136   4.869   5.673  3.3573  0.9192 -0.6541
    3MOL   H175 1619   2.267   5.092   5.624  0.8290 -0.3368  3.6446
    3MOL   H176 1620   2.118   5.094   5.534 -1.1627  1.9774  0.0268
    3MOL   H177 1621   2.284   5.429   6.000  0.1588 -1.3434 -0.9111
    3MOL   H178 1622   2.199   5.587   5.958  1.9974 -0.3114  1.5237
    3MOL   H179 1623   2.335   5.515   5.874  1.0688  0.1218  0.9313
    3MOL   H180 1624   1.930   5.317   5.866  1.2093  0.0567 -1.5317
    3MOL   H181 1625   1.932   5.483   5.918 -0.3425 -0.8497  1.5746
    3MOL   C182 1626   1.731   6.459   6.095 -0.4908 -0.1593 -0.1503
    3MOL   C183 1627   1.807   6.336   6.128 -0.5131  0.4069  0.1564
    3MOL   C184 1628   1.751   6.207   6.063  0.6506  0.4517  0.4824
    3MOL   C185 1629   1.823   6.075   6.108 -0.6329 -0.4815  0.2728
    3MOL   C186 1630   1.781   5.946   6.049  0.5230 -0.8611 -0.1690
    3MOL   C187 1631   1.840   5.823   6.118  0.0125 -0.1415 -0.1104
    3MOL   C188 1632   1.988   5.821   6.107  0.4942 -0.4148 -0.2646
    3MOL   C189 1633   2.047   5.702   6.178  0.3183 -0.3920 -0.2201
    3MOL   O190 1634   1.996   5.586   6.128  0.2353  0.3785 -0.0343
    3MOL   C191 1635   2.052   5.466   6.156  0.5126 -0.3614 -0.2006
    3MOL   O192 1636   2.138   5.440   6.237  0.1410  0.2011  0.3465
    3MOL   C193 1637   1.986   5.347   6.073 -0.1704  0.3439 -0.9043
    3MOL   C194 1638   2.056   5.209   6.090  0.3637 -1.2896 -0.7585
    3MOL   C195 1639   1.834   5.342   6.111 -0.0237  0.2784  0.0021
    3MOL   H196 1640   1.623   6.447   6.087 -0.2000 -1.1327 -3.3199
    3MOL   H197 1641   1.756   6.534   6.170  0.6194 -1.3528  0.6837
    3MOL   H198 1642   1.765   6.492   5.996 -1.3645 -0.6713 -0.6301
    3MOL   H199 1643   1.782   6.330   6.234  1.1685  3.4813  0.8003
    3MOL   H200 1644   1.909   6.373   6.123 -1.0114  2.0289  1.2936
    3MOL   H201 1645   1.646   6.194   6.087  0.4969 -1.1703 -0.9761
    3MOL   H202 1646   1.752   6.207   5.954 -1.5386  0.6956  0.4449
    3MOL   H203 1647   1.930   6.092   6.092 -0.4251 -2.0735 -0.1258
    3MOL   H204 1648   1.807   6.055   6.214 -0.8178 -0.3879  0.2615
    3MOL   H205 1649   1.781   5.943   5.940 -1.5321 -1.4488 -0.1828
    3MOL   H206 1650   1.678   5.940   6.084  0.6270 -2.5193 -0.0891
    3MOL   H207 1651   1.790   5.732   6.085  1.6261 -0.8443 -0.6628
    3MOL   H208 1652   1.827   5.833   6.226 -0.3029  3.0046 -0.3783
    3MOL   H209 1653   2.007   5.804   6.001 -1.4214 -2.3682 -0.3126
    3MOL   H210 1654   2.030   5.913   6.150 -0.3127  0.2207 -0.8239
    3MOL   H211 1655   2.010   5.708   6.280 -0.4874  0.2219 -0.5452
    3MOL   H212 1656   2.155   5.703   6.196 -0.0482  0.4331  2.0227
    3MOL   H213 1657   2.081   5.191   6.195 -0.4720  1.6384 -0.0191
    3MOL   H214 1658   2.004   5.128   6.039 -1.3215 -0.5542 -0.2108
    3MOL   H215 1659   2.153   5.211   6.040  1.5278 -0.8005  1.4674
    3MOL   H216 1660   1.792   5.436   6.073  1.1334  0.5734 -0.5640
    3MOL   H217 1661   1.791   5.260   6.054  1.8391 -1.4998  1.1037
    3MOL   C218 1662   1.817   5.210   5.433 -0.5833  0.0789 -0.3325
    3MOL   C219 1663   1.681   5.217   5.505 -0.0132  0.1199 -0.5271
    3MOL   C220 1664   1.687   5.215   5.658  1.3175 -0.8181  0.3050
    3MOL   C221 1665   1.550   5.178   5.719  0.0993  0.8631  0.2043
    3MOL   C222 1666   1.529   5.182   5.875  0.0985 -0.4205 -0.3109
    3MOL   C223 1667   1.427   5.082   5.940 -0.1331  0.5935 -0.3777
    3MOL   C224 1668   1.392   5.110   6.087  0.0298  0.7272 -0.2555
    3MOL   C225 1669   1.504   5.079   6.185  0.2489  0.3754 -0.1527
    3MOL   O226 1670   1.618   5.160   6.189  0.0843  0.2454  0.7620
    3MOL   C227 1671   1.625   5.277   6.242  0.3122  0.8025 -0.0204
    3MOL   O228 1672   1.530   5.353   6.267 -0.5691 -0.0588  0.1149
    3MOL   C229 1673   1.773   5.324   6.260 -1.4418 -0.1103  0.3830
    3MOL   C230 1674   1.761   5.466   6.329  0.3526  0.1525 -0.4615
    3MOL   C231 1675   1.858   5.228   6.345 -0.2327  0.2005 -0.7387
    3MOL   H232 1676   1.882   5.295   5.449 -1.8892  0.8320  1.1892
    3MOL   H233 1677   1.792   5.199   5.327 -0.6649  1.0572 -0.4111
    3MOL   H234 1678   1.865   5.114   5.453  0.4346  0.6778  0.1531
    3MOL   H235 1679   1.624   5.128   5.479 -0.4900 -0.0736  1.1521
    3MOL   H236 1680   1.613   5.296   5.474 -0.9454 -0.2351  0.6141
    3MOL   H237 1681   1.770   5.154   5.694  2.0286  0.7209  1.3166
    3MOL   H238 1682   1.729   5.307   5.697  1.1413 -0.2635 -0.8018
    3MOL   H239 1683   1.479   5.244   5.669  0.6774  0.8796 -0.6044
    3MOL   H240 1684   1.513   5.082   5.686 -0.9752  1.4367 -0.2640
    3MOL   H241 1685   1.627   5.157   5.916 -0.2824  2.7900  2.7742
    3MOL   H242 1686   1.510   5.284   5.910 -0.4521  1.3885 -5.4159
    3MOL   H243 1687   1.331   5.078   5.888  0.6161 -1.6286 -1.6833
    3MOL   H244 1688   1.458   4.978   5.941 -1.0937  0.2983 -0.1363
    3MOL   H245 1689   1.314   5.042   6.123 -0.0121  0.3463 -1.0506
    3MOL   H246 1690   1.351   5.210   6.097  0.5452  0.8012  1.1623
    3MOL   H247 1691   1.539   4.979   6.157 -0.5660  0.1484 -0.3931
    3MOL   H248 1692   1.464   5.075   6.287  3.3253  1.9274  1.1848
    3MOL   H249 1693   1.740   5.549   6.262 -0.4583  1.8951  1.8732
    3MOL   H250 1694   1.853   5.497   6.379  1.9445 -0.3033 -3.0382
    3MOL   H251 1695   1.678   5.469   6.400  1.7195 -1.6841  1.2469
    3MOL   H252 1696   1.868   5.138   6.285  0.9986  0.3127 -0.6999
    3MOL   H253 1697   1.960   5.264   6.339  0.1623 -0.8845 -0.6875
    3MOL   C254 1698   2.108   6.228   6.341  0.4617 -0.3329  0.6424
    3MOL   C255 1699   2.067   6.125   6.438  0.2431 -0.2786 -0.0519
    3MOL   C256 1700   2.171   6.018   6.446  0.1545 -0.1716  0.6722
    3MOL   C257 1701   2.132   5.895   6.534  0.4195 -0.3906 -0.9537
    3MOL   C258 1702   2.230   5.776   6.541 -0.3687 -0.1977 -0.0375
    3MOL   C259 1703   2.182   5.673   6.645 -0.8252 -0.2477  0.4517
    3MOL   C260 1704   2.082   5.583   6.581  0.7227  0.8766 -0.4424
    3MOL   C261 1705   2.042   5.454   6.657 -0.1054 -0.1423 -0.3387
    3MOL   O262 1706   1.995   5.349   6.568  0.2161 -0.9384  0.0384
    3MOL   C263 1707   1.872   5.302   6.588  0.0149 -0.5337 -0.9097
    3MOL   O264 1708   1.787   5.356   6.654 -0.5711  0.0128  0.0740
    3MOL   C265 1709   1.839   5.189   6.496  0.5754  0.3489 -0.4441
    3MOL   C266 1710   1.948   5.082   6.526 -0.7257 -0.0424  0.3074
    3MOL   C267 1711   1.696   5.124   6.517 -0.1315 -0.0402 -0.8260
    3MOL   H268 1712   2.103   6.188   6.239 -2.8552  2.5201 -0.4049
    3MOL   H269 1713   2.034   6.307   6.349  2.1873  1.0813  2.9544
    3MOL   H270 1714   2.209   6.270   6.348  0.1237  0.9460 -1.6081
    3MOL   H271 1715   2.054   6.162   6.539  1.1997 -2.3928  0.8835
    3MOL   H272 1716   1.968   6.092   6.405 -0.1135  0.6311  0.1039
    3MOL   H273 1717   2.263   6.064   6.481  0.1423  0.8971 -0.6864
    3MOL   H274 1718   2.194   5.979   6.347 -0.8715  0.9119  0.0060
    3MOL   H275 1719   2.037   5.866   6.491 -0.1700 -0.4424  0.3420
    3MOL   H276 1720   2.109   5.931   6.635 -0.3238 -2.4583 -0.3499
    3MOL   H277 1721   2.237   5.727   6.444  0.1330 -0.7676  0.2806
    3MOL   H278 1722   2.327   5.813   6.573  0.8898 -2.4053 -1.1569
    3MOL   H279 1723   2.142   5.715   6.737  0.4224 -1.6798  1.7050
    3MOL   H280 1724   2.253   5.601   6.688  0.0269  0.7776  0.7841
    3MOL   H281 1725   1.988   5.636   6.568 -0.7407 -1.7269 -0.9010
    3MOL   H282 1726   2.123   5.543   6.488 -2.3904 -1.3026 -0.9382
    3MOL   H283 1727   2.125   5.409   6.711 -1.3077  0.0031  1.6821
    3MOL   H284 1728   1.974   5.481   6.737 -1.7005 -2.3896 -0.8994
    3MOL   H285 1729   2.043   5.116   6.485 -0.1257 -1.1158  0.7625
    3MOL   H286 1730   1.965   5.057   6.631  1.9843  2.6192  0.5667
    3MOL   H287 1731   1.933   4.994   6.464 -0.1078 -0.5185  0.8278
    3MOL   H288 1732   1.676   5.053   6.437  0.2114  0.8926 -1.7406
    3MOL   H289 1733   1.629   5.204   6.487 -2.3001 -1.0360  1.1942
    3MOL   C290 1734   1.178   5.477   5.912 -0.5624  0.3813  0.1267
    3MOL   C291 1735   1.042   5.489   5.976 -0.5395  0.2219  0.0228
    3MOL   C292 1736   1.011   5.394   6.088 -0.3034 -0.0132  1.3574
    3MOL   C293 1737   1.085   5.425   6.223 -0.0678  0.6463  0.6759
    3MOL   C294 1738   1.050   5.312   6.332  0.2800  0.2777  0.7894
    3MOL   C295 1739   1.116   5.330   6.470 -0.7168  0.1906 -0.3603
    3MOL   C296 1740   1.265   5.276   6.482  0.2069  0.2909  0.3391
    3MOL   C297 1741   1.320   5.253   6.622 -0.2814 -0.5825  0.2005
    3MOL   O298 1742   1.452   5.212   6.629  0.2525 -0.2590  0.4343
    3MOL   C299 1743   1.483   5.076   6.628 -0.0378  0.3909 -0.6032
    3MOL   O300 1744   1.403   4.986   6.623 -1.0456  0.2800  0.5936
    3MOL   C301 1745   1.638   5.048   6.647 -0.1978 -0.7793  0.0314
    3MOL   C302 1746   1.670   4.901   6.625  0.8665 -0.8922 -0.4501
    3MOL   C303 1747   1.686   5.097   6.788 -0.3793  0.1675 -0.8771
    3MOL   H304 1748   1.179   5.534   5.819  1.1555  0.0470 -0.0743
    3MOL   H305 1749   1.205   5.376   5.881  0.3008  0.5858  0.1876
    3MOL   H306 1750   1.263   5.515   5.969 -0.0777  0.2996 -0.5404
    3MOL   H307 1751   0.979   5.485   5.886 -0.6425 -0.6816  0.1324
    3MOL   H308 1752   1.022   5.591   6.010  3.1900  0.1280  2.7135
    3MOL   H309 1753   1.044   5.297   6.050  1.5877  1.8127 -1.8636
    3MOL   H310 1754   0.904   5.382   6.106 -0.5972 -0.5462 -0.5410
    3MOL   H311 1755   1.192   5.422   6.206  0.0380  1.4442  1.1673
    3MOL   H312 1756   1.059   5.526   6.255 -1.8330 -0.2087  1.9947
    3MOL   H313 1757   0.943   5.317   6.348  0.5017 -1.3118  2.9543
    3MOL   H314 1758   1.073   5.210   6.301 -1.0718 -0.8096  3.3016
    3MOL   H315 1759   1.060   5.276   6.546 -0.3932  1.3732  0.7278
    3MOL   H316 1760   1.110   5.437   6.491 -1.3968 -0.0783  0.8571
    3MOL   H317 1761   1.327   5.352   6.435  0.1375  0.6575  0.8450
    3MOL   H318 1762   1.292   5.190   6.419  0.5090 -0.0931  0.9897
    3MOL   H319 1763   1.247   5.191   6.673  0.5546 -1.1305  0.7341
    3MOL   H320 1764   1.313   5.345   6.680  3.6499  0.4443 -0.7870
    3MOL   H321 1765   1.775   4.876   6.640  1.2524  0.5458 -0.7187
    3MOL   H322 1766   1.643   4.870   6.524 -0.9411  1.3075 -0.6764
    3MOL   H323 1767   1.612   4.848   6.701  1.1297  1.5007  1.4465
    3MOL   H324 1768   1.793   5.103   6.769 -0.1283 -0.7150  0.2126
    3MOL   H325 1769   1.648   5.199   6.795 -0.6797  0.0568 -0.8815
    3MOL   C326 1770   2.403   4.822   6.945  0.5734 -0.2360 -0.5689
    3MOL   C327 1771   2.267   4.839   7.016 -0.0536  0.4337  0.7562
    3MOL   C328 1772   2.198   4.970   6.984 -0.6580 -0.3172 -0.1518
    3MOL   C329 1773   2.258   5.091   7.058  0.1368  0.4678 -0.7029
    3MOL   C330 1774   2.225   5.224   6.986 -0.2549  0.3295  0.4686
    3MOL   C331 1775   2.075   5.251   6.973 -0.5518  0.3010  0.4780
    3MOL   C332 1776   2.005   5.279   7.104  0.7191 -0.4544 -0.3892
    3MOL   C333 1777   1.858   5.299   7.078  0.3039  0.0644 -0.2708
    3MOL   O334 1778   1.807   5.191   7.005 -0.4071 -0.4634  0.1404
    3MOL   C335 1779   1.682   5.144   7.024 -0.1462  0.1557  0.7252
    3MOL   O336 1780   1.609   5.179   7.116 -0.0423  0.0459  0.2776
    3MOL   C337 1781   1.649   5.029   6.924 -0.0050  0.0080  0.1868
    3MOL   C338 1782   1.493   4.993   6.934 -0.5933 -0.2478  0.0487
    3MOL   C339 1783   1.739   4.900   6.946  0.4771 -0.7581 -0.3073
    3MOL   H340 1784   2.476   4.896   6.977  1.0112 -0.2095 -1.5923
    3MOL   H341 1785   2.403   4.809   6.837  1.1678 -3.3201 -0.2465
    3MOL   H342 1786   2.447   4.740   7.000  0.5494 -0.1926 -0.4852
    3MOL   H343 1787   2.279   4.834   7.124  0.2638  1.9636  0.8060
    3MOL   H344 1788   2.196   4.759   6.995 -1.0380  1.5039 -0.0727
    3MOL   H345 1789   2.095   4.969   7.019  0.2456 -2.1788  2.6775
    3MOL   H346 1790   2.196   4.975   6.875  0.2609 -0.4844 -0.1778
    3MOL   H347 1791   2.365   5.076   7.070 -0.5315 -1.9390  2.8184
    3MOL   H348 1792   2.229   5.096   7.163  2.5442 -1.1600  0.0765
    3MOL   H349 1793   2.273   5.300   7.047 -0.3929  0.6436  0.1914
    3MOL   H350 1794   2.251   5.222   6.880  0.7943 -2.6058  0.7496
    3MOL   H351 1795   2.065   5.332   6.901 -1.8567 -1.0463 -0.8876
    3MOL   H352 1796   2.024   5.171   6.920 -0.3774  0.9394 -0.6655
    3MOL   H353 1797   2.039   5.367   7.159 -1.2939 -1.3250  2.3024
    3MOL   H354 1798   2.010   5.190   7.167 -0.3291 -0.8615 -0.8746
    3MOL   H355 1799   1.811   5.316   7.175 -0.0857 -2.0385 -0.0562
    3MOL   H356 1800   1.824   5.390   7.030 -2.3146 -0.2442  0.9065
    3MOL   H357 1801   1.467   4.978   7.038 -0.4519 -0.1741  0.0951
    3MOL   H358 1802   1.426   5.071   6.899  1.5393  1.8338  0.4672
    3MOL   H359 1803   1.453   4.904   6.884 -1.5971  1.2396 -1.8860
    3MOL   H360 1804   1.751   4.840   6.855  2.1159  1.8595 -1.8770
    3MOL   H361 1805   1.840   4.942   6.949 -1.7274  4.9795 -0.4138
    3MOL   C362 1806   0.728   4.509   7.539  0.7782  0.4504 -0.8384
    3MOL   C363 1807   0.747   4.658   7.578 -0.6768  0.1280  0.3251
    3MOL   C364 1808   0.888   4.712   7.558 -0.2265 -0.3730 -1.1539
    3MOL   C365 1809   0.939   4.665   7.420 -1.0411 -0.1399  0.2020
    3MOL   C366 1810   1.083   4.720   7.419  0.2390  0.4912 -0.0825
    3MOL   C367 1811   1.160   4.685   7.294  0.2656 -0.0692 -0.2897
    3MOL   C368 1812   1.309   4.712   7.294  0.5429  0.0917 -0.0563
    3MOL   C369 1813   1.364   4.687   7.155  0.0317 -0.0530 -0.4546
    3MOL   O370 1814   1.494   4.743   7.159  0.0542  0.0595  0.0113
    3MOL   C371 1815   1.586   4.729   7.055 -0.5114 -0.0435  0.6248
    3MOL   O372 1816   1.553   4.670   6.952 -0.0777  0.2749 -0.1570
    3MOL   C373 1817   1.721   4.805   7.076 -0.6284  0.6421  0.2263
    3MOL   C374 1818   1.733   4.885   7.205  0.1086 -0.3094 -0.1714
    3MOL   C375 1819   1.833   4.696   7.046 -0.2182 -0.3621 -0.5110
    3MOL   H376 1820   0.805   4.446   7.585  0.5598  0.0652 -1.0005
    3MOL   H377 1821   0.628   4.468   7.552  1.0880  0.0140  0.2425
    3MOL   H378 1822   0.742   4.496   7.432  1.6465 -0.6762 -0.6019
    3MOL   H379 1823   0.715   4.663   7.683  0.0961  1.7584  0.4985
    3MOL   H380 1824   0.685   4.721   7.514  1.1392 -0.3135 -1.8836
    3MOL   H381 1825   0.950   4.666   7.635  0.4018  1.8520 -0.2985
    3MOL   H382 1826   0.895   4.821   7.562  0.9576 -0.5066  1.0078
    3MOL   H383 1827   0.882   4.695   7.332  0.3099 -3.3643 -1.8202
    3MOL   H384 1828   0.941   4.557   7.405 -3.0063 -0.1776 -0.0096
    3MOL   H385 1829   1.085   4.829   7.423  1.8890  0.4400  0.8167
    3MOL   H386 1830   1.132   4.678   7.507 -1.5773  1.2542  1.3495
    3MOL   H387 1831   1.132   4.757   7.217  0.2144  1.7339  1.3879
    3MOL   H388 1832   1.126   4.589   7.255  1.6404 -0.3010 -0.9771
    3MOL   H389 1833   1.364   4.647   7.361 -1.2325 -0.1207  1.2260
    3MOL   H390 1834   1.321   4.815   7.329 -0.8119  0.3687 -0.3651
    3MOL   H391 1835   1.367   4.581   7.131 -1.1148 -0.0410 -0.6610
    3MOL   H392 1836   1.301   4.750   7.092  1.6578  1.6243 -0.4612
    3MOL   H393 1837   1.730   4.824   7.295  0.1374 -1.5415 -0.9950
    3MOL   H394 1838   1.818   4.953   7.198 -2.1217  2.9981  2.9381
    3MOL   H395 1839   1.643   4.942   7.229 -0.2097 -1.1985  0.7688
    3MOL   H396 1840   1.795   4.640   6.960 -1.2582  0.0663 -0.3354
    3MOL   H397 1841   1.923   4.755   7.028 -1.5312  2.6872  2.4309
    3MOL   C398 1842   2.531   5.365   7.571  0.0100  0.4020  0.5453
    3MOL   C399 1843   2.387   5.356   7.642  0.4860 -0.3986  0.2846
    3MOL   C400 1844   2.284   5.309   7.533 -0.9712  0.2879 -0.0894
    3MOL   C401 1845   2.155   5.256   7.600 -0.2863  0.0286  0.2167
    3MOL   C402 1846   2.077   5.154   7.519  0.2469  0.7755  0.0234
    3MOL   C403 1847   2.137   5.017   7.506  1.1075 -0.1657  0.2617
    3MOL   C404 1848   2.051   4.939   7.403  0.3518  0.3424  0.3349
    3MOL   C405 1849   2.114   4.796   7.382 -0.6470  0.5522  0.1849
    3MOL   O406 1850   2.052   4.728   7.272  0.4594  0.2847  0.2225
    3MOL   C407 1851   1.932   4.660   7.285  0.2110  0.0316 -0.3187
    3MOL   O408 1852   1.882   4.644   7.397  0.3045  0.0336 -0.2822
    3MOL   C409 1853   1.879   4.582   7.155 -0.4362 -0.3033  0.0559
    3MOL   C410 1854   1.758   4.498   7.193 -0.2680  0.4016 -0.6761
    3MOL   C411 1855   2.000   4.487   7.113  0.3027 -0.6942  0.6474
    3MOL   H412 1856   2.609   5.416   7.627 -0.1516 -0.3558  1.4729
    3MOL   H413 1857   2.523   5.427   7.481  3.2840 -0.4247 -0.3828
    3MOL   H414 1858   2.574   5.274   7.529  1.1415  1.4114 -0.5293
    3MOL   H415 1859   2.361   5.453   7.684  0.1238 -0.2892 -0.1868
    3MOL   H416 1860   2.397   5.275   7.714 -1.1995 -0.9085 -0.0406
    3MOL   H417 1861   2.251   5.389   7.466 -1.8003  1.0210  1.1779
    3MOL   H418 1862   2.329   5.231   7.472  0.0736  0.5982  0.2849
    3MOL   H419 1863   2.097   5.342   7.633 -0.0521 -0.2387  1.3337
    3MOL   H420 1864   2.179   5.216   7.699 -1.3351  0.7747  0.7788
    3MOL   H421 1865   1.979   5.147   7.566 -0.3024  0.6179 -1.1399
    3MOL   H422 1866   2.053   5.197   7.422 -0.6417 -1.5865 -0.8407
    3MOL   H423 1867   2.138   4.966   7.603  0.7623 -0.6305  0.0223
    3MOL   H424 1868   2.236   5.023   7.461 -0.1862 -2.7174 -3.0591
    3MOL   H425 1869   1.942   4.945   7.408  0.2766  0.7045 -1.3417
    3MOL   H426 1870   2.064   4.996   7.312  0.7283  0.4389  0.4506
    3MOL   H427 1871   2.221   4.812   7.371 -0.6277  0.0225 -0.3943
    3MOL   H428 1872   2.084   4.744   7.473 -3.0961 -1.4622 -1.7203
    3MOL   H429 1873   1.709   4.448   7.110 -1.1350  0.3126 -0.1149
    3MOL   H430 1874   1.690   4.551   7.259  0.1470 -0.9448  0.8781
    3MOL   H431 1875   1.790   4.419   7.261  2.5866 -0.1209 -2.5533
    3MOL   H432 1876   2.037   4.439   7.203  4.0043 -0.8481 -0.8431
    3MOL   H433 1877   2.074   4.563   7.087 -0.9119 -0.1869 -1.4430
    3MOL   C434 1878   2.380   4.973   6.151 -0.4105 -0.3580 -0.2076
    3MOL   C435 1879   2.338   4.855   6.242 -0.1166 -0.8122 -0.1682
    3MOL   C436 1880   2.230   4.907   6.335  0.8341  0.1250  0.1876
    3MOL   C437 1881   2.162   4.799   6.422 -0.4895  0.3617 -0.2004
    3MOL   C438 1882   2.211   4.794   6.568  0.0448 -0.2081  1.0557
    3MOL   C439 1883   2.146   4.679   6.647 -0.2901  0.0552  0.2941
    3MOL   C440 1884   2.006   4.726   6.686 -0.4178  0.5237 -0.3636
    3MOL   C441 1885   1.917   4.601   6.696  0.3011 -0.0126 -0.2494
    3MOL   O442 1886   1.979   4.534   6.814  0.0578 -0.3927  0.6381
    3MOL   C443 1887   1.935   4.415   6.862 -0.7785 -0.3544 -0.0115
    3MOL   O444 1888   1.832   4.366   6.820  0.2605 -0.1068  0.5210
    3MOL   C445 1889   2.001   4.374   6.997 -0.4389 -0.1454  0.5259
    3MOL   C446 1890   1.928   4.256   7.056  0.4327  0.3235  0.4778
    3MOL   C447 1891   2.156   4.344   6.968  0.1313  0.4783 -0.2027
    3MOL   H448 1892   2.299   5.023   6.097 -0.4510  0.6800  0.8099
    3MOL   H449 1893   2.445   4.934   6.072 -0.1558 -1.4102  0.5053
    3MOL   H450 1894   2.439   5.052   6.197 -1.2930  0.4945 -0.5201
    3MOL   H451 1895   2.426   4.807   6.285  1.2151  2.6780  1.1978
    3MOL   H452 1896   2.309   4.762   6.194  0.3750 -1.0910  0.0765
    3MOL   H453 1897   2.150   4.961   6.283  0.3656  0.6624  1.4523
    3MOL   H454 1898   2.280   4.974   6.404  1.9500 -1.4095  0.9013
    3MOL   H455 1899   2.190   4.705   6.375 -2.1990  0.0906 -0.7178
    3MOL   H456 1900   2.053   4.806   6.421 -0.8192 -3.8632 -1.1224
    3MOL   H457 1901   2.320   4.787   6.575  0.0785  0.6154  1.3643
    3MOL   H458 1902   2.198   4.888   6.621 -0.2045 -0.4760  1.4738
    3MOL   H459 1903   2.206   4.659   6.736 -0.1995 -2.3211 -0.2646
    3MOL   H460 1904   2.142   4.585   6.592  1.1672  1.1278 -1.6880
    3MOL   H461 1905   1.998   4.785   6.777  2.6405 -0.4542  0.6087
    3MOL   H462 1906   1.971   4.781   6.599  2.3505 -0.4537 -2.1609
    3MOL   H463 1907   1.920   4.544   6.603 -1.7829 -1.0529  0.2932
    3MOL   H464 1908   1.815   4.633   6.717 -0.1139 -1.6463  0.2306
    3MOL   H465 1909   1.920   4.169   6.991 -1.5210 -0.7136  2.0665
    3MOL   H466 1910   1.961   4.231   7.157  2.0241 -0.1566 -0.1424
    3MOL   H467 1911   1.825   4.275   7.084  0.6970 -0.0285  1.7392
    3MOL   H468 1912   2.191   4.412   6.890 -0.3289  0.9418 -0.0011
    3MOL   H469 1913   2.209   4.363   7.061 -2.3594 -0.0604  1.3646
    3MOL   C470 1914   1.432   3.910   7.666  0.1379 -0.8599 -0.3104
    3MOL   C471 1915   1.582   3.910   7.669  0.8943  0.6862  0.6814
    3MOL   C472 1916   1.636   3.824   7.551 -0.4048  0.5036  0.0168
    3MOL   C473 1917   1.788   3.833   7.523 -0.0583  0.8167  0.3931
    3MOL   C474 1918   1.838   3.961   7.456  0.0671  0.0024  0.1023
    3MOL   C475 1919   1.986   3.958   7.410  0.8104  0.1892 -0.0444
    3MOL   C476 1920   2.023   4.060   7.304 -0.3185  0.1906 -0.7749
    3MOL   C477 1921   2.171   4.042   7.261  0.2933 -0.4791 -0.6706
    3MOL   O478 1922   2.213   4.127   7.155  0.6123 -0.0131 -0.0275
    3MOL   C479 1923   2.179   4.094   7.032 -0.2468 -0.3474  0.3185
    3MOL   O480 1924   2.113   3.994   7.007  0.0958  0.1788  0.1017
    3MOL   C481 1925   2.207   4.203   6.921  1.2307  0.4314 -0.4064
    3MOL   C482 1926   2.144   4.162   6.790 -0.0671 -0.4092  0.4285
    3MOL   C483 1927   2.362   4.222   6.899  0.4285  0.6177 -0.3775
    3MOL   H484 1928   1.390   3.960   7.753  1.0924 -1.6019  0.5881
    3MOL   H485 1929   1.383   3.812   7.665  0.4918 -1.0704  1.5131
    3MOL   H486 1930   1.397   3.954   7.572 -1.0765 -0.0109  0.5276
    3MOL   H487 1931   1.607   4.012   7.640  0.5640  0.5249 -0.2090
    3MOL   H488 1932   1.618   3.886   7.768  0.4182  3.1837  1.4955
    3MOL   H489 1933   1.621   3.720   7.582 -0.2919  0.2704 -0.6930
    3MOL   H490 1934   1.576   3.839   7.461  0.0667 -1.8438 -0.7387
    3MOL   H491 1935   1.831   3.810   7.621  0.5237 -0.4702 -0.1444
    3MOL   H492 1936   1.825   3.755   7.455  1.0558 -0.7792  2.7682
    3MOL   H493 1937   1.768   3.998   7.381  1.0607 -0.8560 -1.2767
    3MOL   H494 1938   1.826   4.041   7.530 -1.1710  0.3537 -0.4650
    3MOL   H495 1939   2.039   3.965   7.505 -1.1232  0.6062  1.0242
    3MOL   H496 1940   2.014   3.860   7.373 -0.7512 -0.2081 -0.1676
    3MOL   H497 1941   1.959   4.041   7.218 -1.6537  2.6053 -0.3592
    3MOL   H498 1942   2.012   4.161   7.344 -1.2746 -0.8870  1.7600
    3MOL   H499 1943   2.200   3.941   7.232  3.3232 -0.1367  0.9630
    3MOL   H500 1944   2.232   4.070   7.348 -0.8315  0.1374 -0.0628
    3MOL   H501 1945   2.163   4.236   6.712  1.1340  0.4022  1.4860
    3MOL   H502 1946   2.036   4.153   6.800 -0.0867 -0.4599  0.1779
    3MOL   H503 1947   2.169   4.066   6.746 -0.4001 -0.3557  0.1150
    3MOL   H504 1948   2.361   4.291   6.815 -1.8924  0.8399 -0.1853
    3MOL   H505 1949   2.406   4.283   6.978  3.1035 -2.7476  0.8972
    3MOL   C506 1950   2.318   3.507   5.948  0.2783  0.5021  0.5591
    3MOL   C507 1951   2.408   3.633   5.946 -0.3463  0.8992 -0.0330
    3MOL   C508 1952   2.433   3.682   6.088 -0.3447 -0.0550  0.4806
    3MOL   C509 1953   2.544   3.790   6.096 -0.3003 -0.3751  0.2434
    3MOL   C510 1954   2.567   3.826   6.244 -0.4014  0.2662  0.0513
    3MOL   C511 1955   2.450   3.886   6.326  0.1919  0.5671  0.4708
    3MOL   C512 1956   2.492   3.950   6.457  0.2075  0.0345 -1.4175
    3MOL   C513 1957   2.379   4.032   6.523  0.0015 -0.0564  0.3510
    3MOL   O514 1958   2.419   4.091   6.643  0.1515 -0.5344  0.3351
    3MOL   C515 1959   2.420   4.021   6.760  0.6234  0.1953  0.7050
    3MOL   O516 1960   2.393   3.905   6.764  0.1397 -0.5231 -0.6181
    3MOL   C517 1961   2.466   4.103   6.881  0.5849  0.7284  0.3370
    3MOL   C518 1962   2.592   4.182   6.843 -1.2255 -0.8284 -0.2436
    3MOL   C519 1963   2.492   4.017   7.010 -0.4997 -0.2225 -0.7419
    3MOL   H520 1964   2.372   3.414   5.964  0.0862  0.1327 -0.9537
    3MOL   H521 1965   2.284   3.495   5.845  1.0699 -3.9619  0.7469
    3MOL   H522 1966   2.235   3.518   6.018 -0.4899 -0.0142 -0.2593
    3MOL   H523 1967   2.352   3.708   5.890 -2.0250  0.0694  0.4873
    3MOL   H524 1968   2.498   3.614   5.888 -0.8599 -0.5854 -0.3796
    3MOL   H525 1969   2.341   3.719   6.133 -0.1062 -0.9941  1.7840
    3MOL   H526 1970   2.468   3.601   6.152 -2.9315 -0.6174  1.2783
    3MOL   H527 1971   2.637   3.742   6.065 -0.5817 -1.0050  0.3556
    3MOL   H528 1972   2.533   3.882   6.039  1.8661  0.7042  1.5266
    3MOL   H529 1973   2.609   3.733   6.281 -0.1935  0.1949 -0.3590
    3MOL   H530 1974   2.650   3.896   6.244 -0.6074  0.5100  0.2250
    3MOL   H531 1975   2.375   3.808   6.335  0.8130  0.0194  1.0149
    3MOL   H532 1976   2.408   3.963   6.261  2.6118 -0.0862 -1.9638
    3MOL   H533 1977   2.574   4.021   6.444  1.8163 -1.2614  1.1599
    3MOL   H534 1978   2.532   3.873   6.522 -1.6454  0.3124  0.0809
    3MOL   H535 1979   2.301   3.959   6.543  2.8576 -3.4079 -0.2401
    3MOL   H536 1980   2.345   4.113   6.458 -0.3997 -0.2933  0.2591
    3MOL   H537 1981   2.681   4.126   6.815 -2.3050 -1.2431 -2.9812
    3MOL   H538 1982   2.620   4.249   6.924  1.3188 -1.8042 -0.2927
    3MOL   H539 1983   2.572   4.253   6.762  1.0376 -0.1026 -0.2140
    3MOL   H540 1984   2.492   4.085   7.095  0.4677 -2.2033  0.8805
    3MOL   H541 1985   2.401   3.959   7.026  0.8459 -1.6475  2.0336
    3MOL   C542 1986   3.029   4.977   7.102 -0.7653 -0.7993 -0.3014
    3MOL   C543 1987   2.887   4.974   7.054 -0.8710  0.0685 -0.7172
    3MOL   C544 1988   2.839   4.835   7.009 -0.0001 -0.4994 -0.5032
    3MOL   C545 1989   2.885   4.722   7.104  1.3459  0.6629 -0.3276
    3MOL   C546 1990   2.804   4.593   7.081  0.2370  0.0754  0.5478
    3MOL   C547 1991   2.842   4.477   7.179 -0.0130 -0.0938  0.1385
    3MOL   C548 1992   2.782   4.346   7.139  0.0126 -0.8582 -0.0946
    3MOL   C549 1993   2.824   4.213   7.195  0.2281 -0.1163  0.1669
    3MOL   O550 1994   2.718   4.117   7.160  0.3090 -0.2704  0.0746
    3MOL   C551 1995   2.740   4.026   7.064 -1.1337  0.2576  0.0811
    3MOL   O552 1996   2.851   4.012   7.004 -0.0728 -0.4873 -0.5371
    3MOL   C553 1997   2.622   3.932   7.037  0.0377  0.6248  0.5369
    3MOL   C554 1998   2.647   3.842   6.918 -0.9065 -0.7719  0.4612
    3MOL   C555 1999   2.586   3.835   7.157 -0.1754  0.2020  0.3528
    3MOL   H556 2000   3.054   5.083   7.116  1.1679 -1.1080 -1.2792
    3MOL   H557 2001   3.096   4.936   7.026 -0.2481 -0.4573 -0.0348
    3MOL   H558 2002   3.043   4.924   7.196 -0.2010 -4.0259 -2.1190
    3MOL   H559 2003   2.845   5.013   7.147  1.7315  1.0353  0.0815
    3MOL   H560 2004   2.867   5.047   6.975  0.2095 -0.5017 -1.5259
    3MOL   H561 2005   2.856   4.811   6.904 -2.8785  2.5257 -1.7493
    3MOL   H562 2006   2.730   4.828   7.017 -0.0697 -0.2404 -1.2011
    3MOL   H563 2007   2.990   4.704   7.083  1.5581  0.1431  1.0709
    3MOL   H564 2008   2.873   4.768   7.203 -1.6108  1.7461 -1.1453
    3MOL   H565 2009   2.844   4.566   6.983 -0.0607 -0.7367  0.6507
    3MOL   H566 2010   2.697   4.614   7.081 -0.0474 -1.3527  1.1676
    3MOL   H567 2011   2.949   4.469   7.163 -0.1978 -1.4345 -0.4773
    3MOL   H568 2012   2.816   4.497   7.283  2.6562  0.7619  0.6736
    3MOL   H569 2013   2.673   4.344   7.145 -0.0887 -0.1603 -1.4758
    3MOL   H570 2014   2.798   4.340   7.031  3.1656  4.7963 -0.0868
    3MOL   H571 2015   2.837   4.216   7.303 -2.6130 -1.8788  0.6131
    3MOL   H572 2016   2.920   4.181   7.155 -0.4777 -2.2134  0.0918
    3MOL   H573 2017   2.573   3.769   6.884  0.1628 -0.3951 -2.8567
    3MOL   H574 2018   2.737   3.782   6.923  0.5926  1.4376  0.5131
    3MOL   H575 2019   2.654   3.890   6.820  1.6412 -0.5843  0.7109
    3MOL   H576 2020   2.509   3.766   7.121 -0.5301  0.7862 -0.0249
    3MOL   H577 2021   2.531   3.896   7.229 -0.3224  1.1540 -0.5447
    3MOL   C578 2022   3.081   3.249   0.255 -0.4112  0.5731 -0.0801
    3MOL   C579 2023   3.045   3.368   0.172  0.0111  0.6769 -0.2701
    3MOL   C580 2024   2.966   3.472   0.259  0.8748 -0.3597 -0.2088
    3MOL   C581 2025   2.924   3.577   0.159 -0.3372 -1.1775 -0.1380
    3MOL   C582 2026   3.045   3.652   0.096  0.2575  0.3745  0.0523
    3MOL   C583 2027   3.009   3.759   7.769  0.3583 -0.2155 -0.2889
    3MOL   C584 2028   2.934   3.705   7.647 -0.0280  0.2818  0.5199
    3MOL   C585 2029   2.914   3.816   7.534  0.1163  0.5731  0.3875
    3MOL   O586 2030   2.840   3.761   7.431 -0.3947 -0.4245 -0.0603
    3MOL   C587 2031   2.740   3.823   7.365  0.0593 -0.2942  0.3439
    3MOL   O588 2032   2.707   3.938   7.393  0.3695 -0.2143 -0.0688
    3MOL   C589 2033   2.685   3.745   7.238  0.1930 -0.0180 -0.4748
    3MOL   C590 2034   2.807   3.695   7.157 -0.1192 -0.9266 -0.8251
    3MOL   C591 2035   2.618   3.612   7.298  0.2566  0.5714  0.2819
    3MOL   H592 2036   2.985   3.207   0.286 -0.2117 -0.0657 -0.3175
    3MOL   H593 2037   3.127   3.273   0.351  0.1168 -0.7786  0.0200
    3MOL   H594 2038   3.131   3.165   0.206 -2.6582 -0.9680  0.1886
    3MOL   H595 2039   2.992   3.332   0.083 -0.1249 -1.1575  0.5455
    3MOL   H596 2040   3.137   3.407   0.128 -0.0822 -0.6558 -1.6684
    3MOL   H597 2041   3.020   3.513   0.344 -0.2934 -0.5531  0.6322
    3MOL   H598 2042   2.880   3.415   0.295  0.7164  0.9378  1.5102
    3MOL   H599 2043   2.860   3.647   0.212 -0.1966  0.0145 -1.5258
    3MOL   H600 2044   2.862   3.530   0.083 -1.2823  0.3215 -0.3152
    3MOL   H601 2045   3.110   3.584   0.042  0.6103  1.2346 -0.6295
    3MOL   H602 2046   3.108   3.703   0.170  0.5364 -0.8360  0.6501
    3MOL   H603 2047   3.110   3.791   7.743 -0.3410  1.2906 -1.1982
    3MOL   H604 2048   2.947   3.842   0.021 -1.9750 -1.7780 -0.6181
    3MOL   H605 2049   2.833   3.670   7.667  0.3691 -1.9094 -1.1770
    3MOL   H606 2050   2.996   3.627   7.604 -2.6145 -0.1887 -2.5379
    3MOL   H607 2051   2.869   3.912   7.560  1.7564  1.4242  0.1618
    3MOL   H608 2052   3.010   3.836   7.485  1.1332  0.8377  2.4224
    3MOL   H609 2053   2.872   3.633   7.220 -1.3590 -0.0440  1.3841
    3MOL   H610 2054   2.769   3.625   7.083 -0.4719 -0.0637 -1.4667
    3MOL   H611 2055   2.866   3.774   7.110 -0.5499 -0.4284 -0.5395
    3MOL   H612 2056   2.696   3.562   7.355 -0.8515 -0.1300  1.2049
    3MOL   H613 2057   2.605   3.545   7.213  0.7474  0.0559  0.6121
    3MOL   C614 2058   2.108   3.424   6.292  0.4186  0.2978 -0.0907
    3MOL   C615 2059   2.099   3.471   6.441  0.0433 -0.0795 -0.5353
    3MOL   C616 2060   2.101   3.625   6.470 -0.0529  0.6568 -0.1201
    3MOL   C617 2061   2.087   3.653   6.619 -0.4146 -0.2899 -0.1407
    3MOL   C618 2062   2.197   3.606   6.717 -0.2365 -0.2662  0.6036
    3MOL   C619 2063   2.167   3.651   6.858  0.4232 -0.2403  0.2422
    3MOL   C620 2064   2.264   3.605   6.960 -0.1946  0.3009 -0.5195
    3MOL   C621 2065   2.248   3.660   7.100 -0.1462  0.1594 -0.4622
    3MOL   O622 2066   2.344   3.609   7.189 -0.5717 -0.0148 -0.4769
    3MOL   C623 2067   2.367   3.672   7.313 -0.1070  0.2581  0.3410
    3MOL   O624 2068   2.291   3.760   7.363 -0.1862 -0.0423  0.2713
    3MOL   C625 2069   2.484   3.605   7.388  0.2916 -0.1204  0.2791
    3MOL   C626 2070   2.457   3.454   7.385 -0.5817 -0.7588 -0.6598
    3MOL   C627 2071   2.512   3.668   7.531 -0.3685  0.3058  0.1247
    3MOL   H628 2072   2.036   3.478   6.231  0.5478 -1.1665 -1.5873
    3MOL   H629 2073   2.085   3.317   6.286  0.6391  0.1806  1.0349
    3MOL   H630 2074   2.209   3.449   6.257  1.7145 -3.1632  0.9428
    3MOL   H631 2075   2.005   3.428   6.476  0.0553  0.1447 -0.2248
    3MOL   H632 2076   2.175   3.420   6.500  0.7971  0.6127 -0.8924
    3MOL   H633 2077   2.020   3.679   6.421 -0.8812 -0.3863  0.0988
    3MOL   H634 2078   2.192   3.671   6.430 -0.6597  1.8056 -0.2194
    3MOL   H635 2079   2.003   3.595   6.656 -0.6016 -0.4874 -0.8677
    3MOL   H636 2080   2.054   3.757   6.623 -0.1203 -0.1773 -0.6146
    3MOL   H637 2081   2.217   3.500   6.707  0.8624 -0.0442  0.4064
    3MOL   H638 2082   2.291   3.653   6.688  0.1536 -0.7273  1.1239
    3MOL   H639 2083   2.150   3.758   6.862 -0.6635 -0.2962 -2.1544
    3MOL   H640 2084   2.071   3.611   6.892  0.0163 -0.8760 -1.6002
    3MOL   H641 2085   2.361   3.638   6.921  0.7961 -2.8600 -0.9030
    3MOL   H642 2086   2.263   3.497   6.945 -3.4425  0.0689  0.9788
    3MOL   H643 2087   2.262   3.768   7.092 -0.1331  0.2202  0.3909
    3MOL   H644 2088   2.152   3.633   7.145  0.0629  0.2369  0.0378
    3MOL   H645 2089   2.530   3.408   7.451 -0.5178  0.1351 -0.1013
    3MOL   H646 2090   2.467   3.398   7.291  0.1150 -1.3478 -0.2457
    3MOL   H647 2091   2.362   3.423   7.427 -1.8482  1.5161 -1.7607
    3MOL   H648 2092   2.515   3.776   7.529  0.5510  0.4054  3.6139
    3MOL   H649 2093   2.619   3.654   7.548 -0.2394  2.1358  0.8634
    3MOL   C650 2094   3.292   3.466   7.444 -0.4398  1.0344  0.1803
    3MOL   C651 2095   3.222   3.359   7.354 -0.4686 -1.0620 -0.1934
    3MOL   C652 2096   3.142   3.260   7.440  0.2640  0.5218 -0.0847
    3MOL   C653 2097   3.016   3.343   7.496  0.1105 -0.1756 -0.2342
    3MOL   C654 2098   2.916   3.260   7.584  0.2206  0.1460  0.1996
    3MOL   C655 2099   2.789   3.333   7.623 -0.3961  0.5766 -0.1890
    3MOL   C656 2100   2.707   3.258   7.725  0.9568 -0.0489  0.7823
    3MOL   C657 2101   2.560   3.294   7.703  0.2522 -0.5703  0.1551
    3MOL   O658 2102   2.546   3.438   7.702  0.2532 -0.4341  0.3495
    3MOL   C659 2103   2.423   3.492   7.689  0.3956  0.3655  0.3246
    3MOL   O660 2104   2.314   3.431   7.681  0.0083  0.2761 -0.8946
    3MOL   C661 2105   2.430   3.640   7.668  0.4036 -0.1303 -0.5436
    3MOL   C662 2106   2.281   3.695   7.649 -0.7055 -0.0246  0.3844
    3MOL   C663 2107   2.502   3.696   0.026  0.5810 -0.6974  0.5575
    3MOL   H664 2108   3.234   3.554   7.471 -1.4498  0.4090  0.0947
    3MOL   H665 2109   3.387   3.502   7.404 -0.2477 -0.9046 -1.1897
    3MOL   H666 2110   3.330   3.420   7.535 -1.8160  1.4488  0.9722
    3MOL   H667 2111   3.302   3.304   7.304 -1.0014  0.0209 -2.2527
    3MOL   H668 2112   3.159   3.404   7.278 -0.1128 -1.9098 -1.0002
    3MOL   H669 2113   3.194   3.217   7.526  1.0142 -1.9278 -1.7134
    3MOL   H670 2114   3.106   3.184   7.371 -0.4238 -0.3564  1.2377
    3MOL   H671 2115   2.958   3.392   7.418  0.3467  0.4376 -0.0212
    3MOL   H672 2116   3.041   3.429   7.557 -1.4130  0.1010  0.0202
    3MOL   H673 2117   2.968   3.219   7.670  0.2641 -0.4961 -0.1364
    3MOL   H674 2118   2.894   3.167   7.532 -1.7973 -0.1675  1.5509
    3MOL   H675 2119   2.802   3.437   7.651  2.3270  0.2304 -0.0528
    3MOL   H676 2120   2.732   3.339   7.531 -3.1209  2.5169  1.5294
    3MOL   H677 2121   2.746   3.278   0.045 -1.8347 -4.9022  3.0506
    3MOL   H678 2122   2.717   3.151   7.709 -0.6375  0.1069 -1.4145
    3MOL   H679 2123   2.496   3.241   7.774 -1.0508  0.1680 -0.4432
    3MOL   H680 2124   2.529   3.256   7.605  0.1106  2.7155 -1.1371
    3MOL   H681 2125   2.213   3.690   7.734 -0.6091  0.2839  0.4825
    3MOL   H682 2126   2.228   3.637   7.574 -2.0776 -2.3017  3.0223
    3MOL   H683 2127   2.284   3.800   7.617  1.8126  0.0015  0.5938
    3MOL   H684 2128   2.590   3.640   0.056 -0.3503 -0.5482  3.7516
    3MOL   H685 2129   2.559   3.784   7.774  3.5374 -3.7018 -2.9291
    3MOL   C686 2130   2.313   4.500   7.318  0.2872  0.0574  0.2359
    3MOL   C687 2131   2.455   4.523   7.372  0.2862  0.6248  0.1047
    3MOL   C688 2132   2.517   4.389   7.418 -0.6479 -0.1357  0.1385
    3MOL   C689 2133   2.458   4.326   7.546  0.4896  1.4235 -0.0656
    3MOL   C690 2134   2.507   4.175   7.560  0.2520  0.5778 -0.2173
    3MOL   C691 2135   2.454   4.116   7.692 -0.2847  0.2899  0.5187
    3MOL   C692 2136   2.308   4.126   7.731 -0.1144 -0.3844 -0.0487
    3MOL   C693 2137   2.280   4.066   0.093  0.2082 -0.3361  0.7457
    3MOL   O694 2138   2.371   3.951   0.111 -0.5209  0.3111  1.3223
    3MOL   C695 2139   2.324   3.833   0.163  0.1063 -0.4365  0.0979
    3MOL   O696 2140   2.214   3.817   0.214  0.0699 -0.2101 -0.8772
    3MOL   C697 2141   2.427   3.713   0.160  0.5634 -0.6728 -0.2042
    3MOL   C698 2142   2.542   3.751   0.263 -0.2958  0.1765 -0.1344
    3MOL   C699 2143   2.361   3.586   0.204 -0.0856 -0.5172  0.6472
    3MOL   H700 2144   2.260   4.588   7.281  0.6188 -0.3846 -1.3363
    3MOL   H701 2145   2.257   4.462   7.404  0.1092  0.9127  0.4994
    3MOL   H702 2146   2.324   4.433   7.232 -0.5010  0.3337 -0.0886
    3MOL   H703 2147   2.446   4.596   7.452  0.4118  3.2053 -2.1439
    3MOL   H704 2148   2.509   4.573   7.292  1.8339  1.3579  1.5922
    3MOL   H705 2149   2.623   4.401   7.437 -0.3002 -1.6915 -0.7612
    3MOL   H706 2150   2.512   4.322   7.332 -0.9148 -0.4253  0.3778
    3MOL   H707 2151   2.350   4.322   7.539  0.3920 -0.7275  2.1665
    3MOL   H708 2152   2.475   4.380   7.639 -2.3264  0.0703  1.2703
    3MOL   H709 2153   2.615   4.162   7.554  0.7334  3.4463  1.2160
    3MOL   H710 2154   2.464   4.111   7.482 -1.2816  0.8727  0.3712
    3MOL   H711 2155   2.477   4.009   7.690  1.0935  0.5921 -0.4352
    3MOL   H712 2156   2.510   4.151   7.778 -0.6315 -3.0002  2.1848
    3MOL   H713 2157   2.278   4.230   7.735  1.5595  0.1289 -0.2061
    3MOL   H714 2158   2.252   4.074   7.653 -1.1024  1.1800 -0.3887
    3MOL   H715 2159   2.175   4.038   0.104  0.1315 -0.4179 -0.1884
    3MOL   H716 2160   2.317   4.138   0.165  0.2191 -1.2978  1.7211
    3MOL   H717 2161   2.610   3.667   0.278 -0.8158 -0.3341 -0.6305
    3MOL   H718 2162   2.608   3.835   0.245 -1.2666  0.4602 -2.5138
    3MOL   H719 2163   2.488   3.776   0.355 -0.9118 -1.1588 -0.1161
    3MOL   H720 2164   2.441   3.512   0.201  0.8817  0.5233  0.1618
    3MOL   H721 2165   2.288   3.548   0.133  0.1370 -1.2688  0.8150
    3MOL   H722 2166   2.309   3.588   0.300 -2.2791  0.1370 -0.5282
    4MOL     C1 2167   4.348   5.354   1.325  0.7989  0.4017 -0.2480
    4MOL     C2 2168   4.401   5.331   1.186 -1.5221  0.1289  0.2010
    4MOL     C3 2169   4.301   5.366   1.071 -0.2578  0.1619  0.3553
    4MOL     C4 2170   4.366   5.357   0.931 -0.5879  0.0519  0.3937
    4MOL     C5 2171   4.264   5.402   0.819  0.1895 -0.6795  0.5129
    4MOL     C6 2172   4.303   5.378   0.678 -0.6039 -0.2010 -0.6037
    4MOL     C7 2173   4.208   5.431   0.569 -0.3669 -0.5017  0.2305
    4MOL     C8 2174   4.251   5.387   0.428  0.0259  0.0493 -0.4521
    4MOL     O9 2175   4.347   5.471   0.371 -0.3939  0.3693  0.1248
    4MOL    C10 2176   4.454   5.420   0.285 -0.1969 -0.0434  0.1345
    4MOL    O11 2177   4.463   5.300   0.256  0.2346 -0.2289 -0.1679
    4MOL    C12 2178   4.549   5.528   0.227  0.0463  1.3630 -0.4382
    4MOL    C13 2179   4.467   5.621   0.143 -0.3574 -0.0167 -0.5064
    4MOL    C14 2180   4.638   5.612   0.328 -0.2046 -0.1207  0.4889
    4MOL    H15 2181   4.437   5.335   1.386  1.0812 -0.5140 -0.9350
    4MOL    H16 2182   4.268   5.283   1.346  0.7236  0.1619 -1.3317
    4MOL    H17 2183   4.295   5.447   1.344 -2.2676 -1.2776 -0.2227
    4MOL    H18 2184   4.420   5.224   1.177  0.8034  0.7127 -2.0772
    4MOL    H19 2185   4.487   5.393   1.165 -0.0132 -2.1508 -0.5003
    4MOL    H20 2186   4.216   5.298   1.070  1.1424 -1.6810  2.3093
    4MOL    H21 2187   4.257   5.464   1.090  1.6174  1.0354  0.2652
    4MOL    H22 2188   4.446   5.431   0.921 -0.5780 -0.1935 -1.5460
    4MOL    H23 2189   4.418   5.265   0.906 -0.5700  0.1408  0.1005
    4MOL    H24 2190   4.242   5.508   0.828  1.5839 -0.1219 -1.9419
    4MOL    H25 2191   4.169   5.350   0.830 -0.4322 -0.0652 -1.6427
    4MOL    H26 2192   4.328   5.273   0.663  4.5630  1.0914 -1.9723
    4MOL    H27 2193   4.392   5.437   0.657 -2.0289  1.8117 -1.2514
    4MOL    H28 2194   4.201   5.540   0.572  0.2410 -0.4170 -0.8895
    4MOL    H29 2195   4.108   5.395   0.593 -1.8593  2.1392 -1.7275
    4MOL    H30 2196   4.166   5.371   0.362  1.0834 -0.5852 -1.6931
    4MOL    H31 2197   4.302   5.291   0.431 -0.5260 -0.1850  2.0536
    4MOL    H32 2198   4.525   5.678   0.070 -1.5925  2.3409  0.2795
    4MOL    H33 2199   4.386   5.578   0.084  0.2013 -2.7375  0.6203
    4MOL    H34 2200   4.412   5.692   0.205 -0.4018  0.2789 -0.8779
    4MOL    H35 2201   4.580   5.640   0.415  2.0770 -0.2020  2.0782
    4MOL    H36 2202   4.669   5.701   0.273  1.0445 -0.7262  0.1933
    4MOL    H37 2203   4.620   5.478   0.160  0.8892 -0.5286  1.7759
    4MOL    C38 2204   5.463   5.552   7.285 -0.8281 -0.4643  0.0574
    4MOL    C39 2205   5.440   5.684   7.357 -0.4328 -0.4583 -0.2269
    4MOL    C40 2206   5.343   5.663   7.484  0.7077  0.1428  0.1458
    4MOL    C41 2207   5.406   5.579   7.597 -0.3645  0.5786  0.0528
    4MOL    C42 2208   5.322   5.570   7.724  0.0382 -0.2327  0.3934
    4MOL    C43 2209   5.168   5.544   7.703  0.1204 -0.4920 -0.7195
    4MOL    C44 2210   5.105   5.539   0.060 -0.0735  0.0732 -0.6739
    4MOL    C45 2211   4.958   5.493   0.061 -0.4150 -0.1538  0.3530
    4MOL    O46 2212   4.904   5.544   0.181  0.9113 -0.5720 -0.0622
    4MOL    C47 2213   4.837   5.470   0.267  0.2006  0.4675  1.0410
    4MOL    O48 2214   4.834   5.348   0.264  0.1685  0.2820  0.0029
    4MOL    C49 2215   4.769   5.549   0.385 -0.7523  0.8300  0.0402
    4MOL    C50 2216   4.735   5.456   0.501  0.0826 -0.2384  0.1191
    4MOL    C51 2217   4.861   5.673   0.425  0.1345  0.0354 -0.2237
    4MOL    H52 2218   5.536   5.489   7.335 -1.0819 -0.4717  0.4232
    4MOL    H53 2219   5.497   5.564   7.182  2.0748 -1.0848  0.8932
    4MOL    H54 2220   5.369   5.499   7.274 -1.1958  0.5726 -1.9638
    4MOL    H55 2221   5.397   5.755   7.288  2.0733  0.5388 -0.8155
    4MOL    H56 2222   5.539   5.716   7.388  0.5541 -2.6890 -0.9309
    4MOL    H57 2223   5.313   5.763   7.515  0.9893  0.8101 -1.6691
    4MOL    H58 2224   5.255   5.614   7.442  2.5857 -2.2151 -1.1839
    4MOL    H59 2225   5.496   5.635   7.622 -0.4755  0.1622  1.3995
    4MOL    H60 2226   5.444   5.483   7.563 -2.8730  0.0447 -1.4368
    4MOL    H61 2227   5.369   5.499   0.013 -0.3821 -0.0454  0.8819
    4MOL    H62 2228   5.332   5.668   7.771 -1.4855  0.3544 -0.4581
    4MOL    H63 2229   5.134   5.628   7.642  0.7025 -0.5798 -1.1733
    4MOL    H64 2230   5.161   5.453   7.643  2.2366 -1.1316 -0.0404
    4MOL    H65 2231   5.124   5.632   0.114 -0.1519 -1.0360  1.3372
    4MOL    H66 2232   5.167   5.475   0.123 -0.3350  1.0034  0.5381
    4MOL    H67 2233   4.946   5.386   0.043 -1.6526  0.0327  0.0707
    4MOL    H68 2234   4.903   5.561   7.777 -1.4249 -1.9540 -0.7396
    4MOL    H69 2235   4.822   5.402   0.540  0.5074 -0.4405 -1.0614
    4MOL    H70 2236   4.686   5.509   0.582  2.1732  1.1094  0.5413
    4MOL    H71 2237   4.654   5.389   0.473 -1.5996  2.3021 -1.3738
    4MOL    H72 2238   4.793   5.742   0.475  0.7843 -0.2123  1.0264
    4MOL    H73 2239   4.896   5.729   0.338 -1.1927  1.1023 -0.0769
    4MOL    C74 2240   4.024   5.786   1.269  0.2284  0.7591  0.2598
    4MOL    C75 2241   4.180   5.785   1.253  0.3818 -0.0413 -0.6035
    4MOL    C76 2242   4.229   5.778   1.110  0.2449  0.5163 -0.6748
    4MOL    C77 2243   4.383   5.784   1.117  0.0563 -0.6670 -0.2060
    4MOL    C78 2244   4.443   5.791   0.978 -0.3129  0.0449  0.1558
    4MOL    C79 2245   4.589   5.756   0.977 -0.2208  0.2225  0.2330
    4MOL    C80 2246   4.644   5.745   0.835 -0.0642  0.0400  0.8331
    4MOL    C81 2247   4.782   5.670   0.829 -0.6655 -0.1798 -0.5068
    4MOL    O82 2248   4.837   5.694   0.701  0.3469 -0.3341 -0.3013
    4MOL    C83 2249   4.949   5.643   0.669 -0.1228  0.5579 -0.9861
    4MOL    O84 2250   5.013   5.574   0.748  0.8257 -0.2202 -0.3204
    4MOL    C85 2251   4.995   5.658   0.516 -0.3664  0.7307  0.0243
    4MOL    C86 2252   5.081   5.532   0.480  0.1492  0.3796  0.1626
    4MOL    C87 2253   5.085   5.777   0.490 -0.4184 -1.1239 -0.8861
    4MOL    H88 2254   3.990   5.761   1.370 -0.9005  0.2874 -0.2244
    4MOL    H89 2255   3.981   5.702   1.214  1.7455 -0.4659  0.9098
    4MOL    H90 2256   3.981   5.880   1.236  0.3128 -0.0216 -2.1803
    4MOL    H91 2257   4.213   5.695   1.305  1.2775  0.6941  0.1222
    4MOL    H92 2258   4.220   5.871   1.307 -2.2595  0.2488  0.9202
    4MOL    H93 2259   4.222   5.677   1.069 -0.1704 -0.1619  1.0053
    4MOL    H94 2260   4.192   5.852   1.039  1.1857  0.4180 -1.2746
    4MOL    H95 2261   4.422   5.700   1.175  1.1144 -0.0405  0.0119
    4MOL    H96 2262   4.411   5.876   1.168  0.1461 -0.3360 -0.8513
    4MOL    H97 2263   4.388   5.724   0.911  0.4002 -2.3754  1.9175
    4MOL    H98 2264   4.412   5.888   0.941 -4.5336 -1.2662 -0.0575
    4MOL    H99 2265   4.636   5.841   1.026 -1.1602  0.4371  0.7778
    4MOL   H100 2266   4.617   5.669   1.036  2.0261 -0.6363 -1.9736
    4MOL   H101 2267   4.580   5.703   0.758 -1.7195  3.6134  0.1531
    4MOL   H102 2268   4.668   5.844   0.797  1.6216 -0.2373  1.1390
    4MOL   H103 2269   4.780   5.562   0.842 -0.5741 -0.3257 -1.6492
    4MOL   H104 2270   4.849   5.714   0.903  1.1613 -1.0801 -1.5974
    4MOL   H105 2271   5.132   5.543   0.385  0.8036  1.1359  0.6057
    4MOL   H106 2272   5.040   5.431   0.487 -0.5997  0.6075 -0.8375
    4MOL   H107 2273   5.160   5.516   0.553  1.6200 -0.5761 -1.5992
    4MOL   H108 2274   5.186   5.759   0.525 -0.1119 -0.0706 -1.2181
    4MOL   H109 2275   5.105   5.779   0.383 -0.6593  0.2504 -0.9149
    4MOL   C110 2276   6.022   5.944   0.990 -0.5282  0.6439  0.7569
    4MOL   C111 2277   5.886   5.904   1.042  0.7365 -0.1924 -0.2154
    4MOL   C112 2278   5.806   6.022   1.088 -0.0496 -0.5890 -0.3427
    4MOL   C113 2279   5.657   6.007   1.119  0.5138 -0.3939  0.3275
    4MOL   C114 2280   5.584   5.922   1.013  0.5337  0.6973 -0.6258
    4MOL   C115 2281   5.428   5.925   1.028 -0.2090  0.5790 -0.5074
    4MOL   C116 2282   5.364   5.891   0.893  0.1876  0.0505  0.6768
    4MOL   C117 2283   5.213   5.890   0.877 -0.4464 -0.4721  0.2011
    4MOL   O118 2284   5.186   5.895   0.735 -0.0633  0.0204 -0.6418
    4MOL   C119 2285   5.061   5.938   0.691 -0.2391 -0.2218 -0.2562
    4MOL   O120 2286   4.976   5.994   0.763 -0.1140 -0.1066 -0.3393
    4MOL   C121 2287   5.050   5.933   0.537  0.0466 -0.1651 -0.5083
    4MOL   C122 2288   4.915   5.988   0.478  0.4033  0.0893  0.1045
    4MOL   C123 2289   5.155   6.035   0.484  0.7573 -0.5024  0.3600
    4MOL   H124 2290   6.093   5.861   0.983  1.5986  2.4864 -0.1758
    4MOL   H125 2291   6.004   5.996   0.896 -2.1232  0.9316  1.2095
    4MOL   H126 2292   6.064   6.012   1.065  3.1206 -1.1349  0.4305
    4MOL   H127 2293   5.893   5.829   1.120  0.3689  0.9313  0.9141
    4MOL   H128 2294   5.839   5.861   0.953  0.5575  0.1164 -0.2706
    4MOL   H129 2295   5.816   6.096   1.008 -1.8210 -1.6842 -1.6192
    4MOL   H130 2296   5.842   6.075   1.176 -4.2584  1.1278  0.4586
    4MOL   H131 2297   5.633   5.969   1.218 -1.2542  2.3789  1.0115
    4MOL   H132 2298   5.608   6.103   1.109  0.8973 -0.3034 -0.7286
    4MOL   H133 2299   5.611   5.817   1.011 -1.8587  0.0695 -1.2781
    4MOL   H134 2300   5.624   5.956   0.918  0.3597 -0.2184 -1.0333
    4MOL   H135 2301   5.399   5.847   1.099  2.2022 -0.3455 -0.4857
    4MOL   H136 2302   5.403   6.024   1.066  3.4511  0.4712  2.4670
    4MOL   H137 2303   5.397   5.797   0.848 -2.2425  0.6437 -2.5549
    4MOL   H138 2304   5.409   5.958   0.820 -1.6923 -1.0149 -1.5414
    4MOL   H139 2305   5.162   5.806   0.924  0.3902  0.1371  2.2418
    4MOL   H140 2306   5.174   5.979   0.926  2.0993  1.2868 -0.8175
    4MOL   H141 2307   4.829   5.942   0.526 -0.5343 -0.0106 -1.6443
    4MOL   H142 2308   4.906   6.096   0.489  1.1429  0.1988 -0.3339
    4MOL   H143 2309   4.909   5.958   0.373 -3.8521  1.9092 -0.2633
    4MOL   H144 2310   5.247   6.024   0.542  0.7864  3.0764  1.0889
    4MOL   H145 2311   5.118   6.135   0.506  0.2775 -0.5885 -0.0493
    4MOL   C146 2312   5.798   6.353   0.876  0.3279  0.1572  0.5145
    4MOL   C147 2313   5.913   6.282   0.810 -0.2129  0.1355  0.3427
    4MOL   C148 2314   5.933   6.295   0.658 -0.2265  0.0515 -0.1629
    4MOL   C149 2315   5.817   6.247   0.578 -0.4793  0.4013 -0.5417
    4MOL   C150 2316   5.793   6.091   0.580  0.0012 -0.1098  0.2165
    4MOL   C151 2317   5.667   6.046   0.494 -0.1083 -0.3195  0.1584
    4MOL   C152 2318   5.642   5.896   0.511  0.1240 -0.3466 -0.7963
    4MOL   C153 2319   5.529   5.833   0.424  0.1566 -0.2708  0.1089
    4MOL   O154 2320   5.421   5.925   0.426  0.5444 -0.0156  0.8816
    4MOL   C155 2321   5.321   5.921   0.328 -0.0197  0.0884 -0.0766
    4MOL   O156 2322   5.315   5.824   0.255  0.1942 -0.7158 -0.0070
    4MOL   C157 2323   5.222   6.036   0.340 -0.2159 -0.7513 -0.0015
    4MOL   C158 2324   5.118   6.023   0.225 -0.5553 -0.7615 -1.0311
    4MOL   C159 2325   5.298   6.173   0.332  0.6435 -0.1848 -0.0821
    4MOL   H160 2326   5.798   6.458   0.848 -1.8671 -0.2435 -1.1499
    4MOL   H161 2327   5.785   6.326   0.981  0.8415 -0.5501  0.4027
    4MOL   H162 2328   5.709   6.317   0.825  0.3439  0.4994  0.2482
    4MOL   H163 2329   6.003   6.323   0.857  1.0385 -1.5469 -0.5429
    4MOL   H164 2330   5.916   6.175   0.829  0.7368  0.2479  0.8614
    4MOL   H165 2331   6.034   6.264   0.630  1.0262  0.7353  3.3242
    4MOL   H166 2332   5.943   6.395   0.614 -1.7397  0.6948  0.8889
    4MOL   H167 2333   5.723   6.300   0.594 -1.0039 -0.4607 -0.7194
    4MOL   H168 2334   5.846   6.283   0.480  1.0619  1.2579  0.2062
    4MOL   H169 2335   5.768   6.048   0.677  0.5530 -0.0382  0.3926
    4MOL   H170 2336   5.893   6.058   0.549  1.0177  1.5054  1.7019
    4MOL   H171 2337   5.697   6.060   0.390  1.7030 -1.6423  0.4751
    4MOL   H172 2338   5.586   6.114   0.520  2.4739  2.0859  2.3388
    4MOL   H173 2339   5.736   5.840   0.511  1.0811  1.1886  2.0340
    4MOL   H174 2340   5.618   5.873   0.614 -0.1577 -0.8254 -0.9667
    4MOL   H175 2341   5.555   5.823   0.319  0.9816  1.5057  0.1343
    4MOL   H176 2342   5.492   5.740   0.467 -0.3233 -0.3611 -0.4990
    4MOL   H177 2343   5.048   6.107   0.223 -0.3793 -0.5235  1.3006
    4MOL   H178 2344   5.052   5.936   0.238 -0.4493 -0.7819 -0.6353
    4MOL   H179 2345   5.164   5.995   0.130 -1.0245 -1.9013 -0.9351
    4MOL   H180 2346   5.376   6.167   0.408 -0.0473 -1.3735  0.5561
    4MOL   H181 2347   5.233   6.246   0.382  1.1951 -0.9687  1.8278
    4MOL   C182 2348   4.743   6.565   0.927 -0.1214 -0.1548 -0.5568
    4MOL   C183 2349   4.756   6.476   0.802  0.2536 -0.3237 -0.7708
    4MOL   C184 2350   4.780   6.550   0.680 -0.1628  0.0475  0.3253
    4MOL   C185 2351   4.846   6.464   0.567 -0.6860  0.2393  0.3984
    4MOL   C186 2352   4.871   6.542   0.429  0.5509  0.3562  0.0064
    4MOL   C187 2353   4.966   6.463   0.334 -0.0710 -0.4091 -0.2800
    4MOL   C188 2354   5.007   6.534   0.209 -0.3633  0.0434 -0.2039
    4MOL   C189 2355   5.067   6.436   0.112 -0.4436  0.4621 -0.1101
    4MOL   O190 2356   5.184   6.385   0.172  0.3618  0.2814  0.1421
    4MOL   C191 2357   5.255   6.285   0.109 -0.2427 -0.7509  0.0144
    4MOL   O192 2358   5.236   6.246   7.773  0.5458  0.2233 -0.1534
    4MOL   C193 2359   5.368   6.232   0.203 -0.3374  0.6828  0.0926
    4MOL   C194 2360   5.461   6.126   0.121  0.2674 -0.3785 -0.2514
    4MOL   C195 2361   5.441   6.361   0.261  0.4562  0.0555  0.3580
    4MOL   H196 2362   4.732   6.506   1.017  2.7591 -0.0951 -0.1094
    4MOL   H197 2363   4.832   6.623   0.951 -1.3550  0.9160  1.5564
    4MOL   H198 2364   4.654   6.626   0.909 -0.5853 -0.6383  0.1185
    4MOL   H199 2365   4.669   6.411   0.795  0.7047 -0.8338 -1.7970
    4MOL   H200 2366   4.839   6.409   0.824 -0.3396 -0.6821  0.3950
    4MOL   H201 2367   4.693   6.609   0.651 -0.2709 -0.7079 -0.9155
    4MOL   H202 2368   4.865   6.615   0.701  0.4988 -0.3757 -0.9742
    4MOL   H203 2369   4.942   6.425   0.600 -1.4432 -0.4314  1.8703
    4MOL   H204 2370   4.787   6.375   0.544  0.2788 -0.3825  0.3424
    4MOL   H205 2371   4.920   6.638   0.448  2.2747 -0.0306 -2.2750
    4MOL   H206 2372   4.779   6.567   0.376  0.8529  1.9984  0.2083
    4MOL   H207 2373   4.938   6.361   0.310  0.9042  0.0257 -3.4534
    4MOL   H208 2374   5.062   6.451   0.384 -1.2559  0.5048  2.3071
    4MOL   H209 2375   4.921   6.582   0.163 -0.7258 -0.7582 -0.3838
    4MOL   H210 2376   5.086   6.603   0.235 -1.0719  2.3261 -3.7288
    4MOL   H211 2377   5.085   6.472   0.011 -1.7123  0.3790 -0.3758
    4MOL   H212 2378   4.990   6.360   0.095 -0.7843  1.3610 -2.7679
    4MOL   H213 2379   5.540   6.068   0.169  1.0236  0.8689  0.0428
    4MOL   H214 2380   5.387   6.056   0.082 -0.1411 -0.2487  0.2763
    4MOL   H215 2381   5.496   6.163   0.025 -1.0396  0.4284 -0.4182
    4MOL   H216 2382   5.371   6.425   0.315  0.7261 -0.1738  0.9900
    4MOL   H217 2383   5.504   6.334   0.346 -0.9519 -0.3675  1.2669
    4MOL   C218 2384   5.161   6.858   0.453 -0.1975  0.1703  0.2081
    4MOL   C219 2385   5.077   6.899   0.331 -1.1281 -0.0689 -0.4685
    4MOL   C220 2386   5.165   6.934   0.215 -0.0694  0.0022 -0.2016
    4MOL   C221 2387   5.109   6.917   0.077  0.4086  0.0090 -0.4388
    4MOL   C222 2388   5.204   6.948   7.741  0.1121 -0.3843 -0.5152
    4MOL   C223 2389   5.320   6.850   7.729  0.1650 -0.3333  0.4888
    4MOL   C224 2390   5.291   6.714   7.654 -0.1352  0.1245 -0.2101
    4MOL   C225 2391   5.404   6.608   7.647  0.5400  0.0220 -0.2182
    4MOL   O226 2392   5.423   6.565   7.779  0.1331 -0.0173 -0.6871
    4MOL   C227 2393   5.511   6.463   0.020  0.9859  0.1366 -0.5463
    4MOL   O228 2394   5.567   6.407   7.707 -0.1857 -0.1970  0.0722
    4MOL   C229 2395   5.538   6.450   0.171 -0.5530 -0.1362 -0.1639
    4MOL   C230 2396   5.677   6.380   0.190  0.2725  0.0560 -0.2673
    4MOL   C231 2397   5.551   6.592   0.249  0.3124  0.4085 -0.3395
    4MOL   H232 2398   5.104   6.831   0.542  0.8239  0.4996  0.9617
    4MOL   H233 2399   5.223   6.941   0.487  0.1169 -0.2617  0.6951
    4MOL   H234 2400   5.217   6.770   0.423 -1.4524 -1.3462  2.1679
    4MOL   H235 2401   5.016   6.985   0.359  0.1962  0.6912  0.1075
    4MOL   H236 2402   5.023   6.805   0.319  0.5007 -1.3907  1.9656
    4MOL   H237 2403   5.193   7.038   0.230  0.0298  0.3825 -2.7281
    4MOL   H238 2404   5.258   6.881   0.237 -0.3993 -0.2368  0.6195
    4MOL   H239 2405   5.075   6.815   0.059 -1.5222  0.6834 -0.7945
    4MOL   H240 2406   5.016   6.974   0.070  0.3885  0.1917  1.2477
    4MOL   H241 2407   5.154   6.947   7.644  4.2707  0.4083 -2.7799
    4MOL   H242 2408   5.244   7.048   7.754  1.0721 -0.7705 -0.4608
    4MOL   H243 2409   5.385   6.897   7.655 -0.6399  0.0947  0.0580
    4MOL   H244 2410   5.376   6.842   0.043  3.8289  2.1267 -1.3706
    4MOL   H245 2411   5.254   6.743   7.556  1.0818  0.5150 -0.5607
    4MOL   H246 2412   5.208   6.661   7.700 -0.1503  1.2872  1.1355
    4MOL   H247 2413   5.497   6.645   7.605  0.1414 -1.5429 -2.5913
    4MOL   H248 2414   5.372   6.519   7.593 -0.9250  0.8141 -0.7018
    4MOL   H249 2415   5.687   6.275   0.159  0.6919 -0.2984  1.0301
    4MOL   H250 2416   5.719   6.369   0.290  2.6576 -2.1465 -1.4389
    4MOL   H251 2417   5.754   6.439   0.140  0.8685 -1.6213 -1.3899
    4MOL   H252 2418   5.459   6.645   0.226  0.4942  0.6314 -0.5719
    4MOL   H253 2419   5.553   6.583   0.357  0.7234 -2.1921 -0.5412
    4MOL   C254 2420   5.427   7.448   7.218 -0.1053  0.3221 -0.2901
    4MOL   C255 2421   5.412   7.344   7.330 -0.1094 -0.3029 -0.6140
    4MOL   C256 2422   5.466   7.379   7.465  0.0739 -0.3161 -0.6064
    4MOL   C257 2423   5.448   7.261   7.568  0.2620  0.4079  0.0798
    4MOL   C258 2424   5.565   7.269   7.668  0.1647  0.3403 -0.1587
    4MOL   C259 2425   5.526   7.189   0.011 -0.0135  0.5929  0.5983
    4MOL   C260 2426   5.640   7.173   0.116 -0.1524  0.1153 -0.6958
    4MOL   C261 2427   5.615   7.072   0.232 -0.0909 -0.7709 -0.2029
    4MOL   O262 2428   5.645   6.937   0.187  0.3585 -0.4828 -0.2110
    4MOL   C263 2429   5.613   6.836   0.268 -0.6259  0.6631  0.3160
    4MOL   O264 2430   5.549   6.848   0.373 -0.1931 -0.3211  0.2145
    4MOL   C265 2431   5.673   6.697   0.228  0.3738 -0.1985 -0.5803
    4MOL   C266 2432   5.711   6.707   0.071 -0.1236 -0.2566  0.4212
    4MOL   C267 2433   5.798   6.662   0.324 -0.4792 -0.1748 -0.3004
    4MOL   H268 2434   5.527   7.482   7.192 -0.5020  0.8197 -1.1868
    4MOL   H269 2435   5.383   7.401   7.130 -2.2608  1.5679  0.0776
    4MOL   H270 2436   5.368   7.536   7.246  1.4295  0.8973  1.2504
    4MOL   H271 2437   5.311   7.316   7.358  0.7282 -0.9224  1.9475
    4MOL   H272 2438   5.446   7.246   7.295 -0.0833 -1.3245  2.1400
    4MOL   H273 2439   5.404   7.462   7.499  0.9545  0.6353 -1.2835
    4MOL   H274 2440   5.571   7.409   7.461  0.3042 -0.8146  1.1316
    4MOL   H275 2441   5.455   7.162   7.523  0.4169 -2.4628  5.9716
    4MOL   H276 2442   5.350   7.264   7.615 -0.1912  1.3332 -0.9053
    4MOL   H277 2443   5.664   7.238   7.635  0.5544 -0.7796  1.9691
    4MOL   H278 2444   5.577   7.373   7.698  2.5568  0.0665 -0.0702
    4MOL   H279 2445   5.491   7.093   7.753  2.0879  0.9479 -2.4479
    4MOL   H280 2446   5.439   7.231   0.061 -0.2648  1.2057 -0.3240
    4MOL   H281 2447   5.736   7.148   0.070 -1.0909 -2.8838 -1.1321
    4MOL   H282 2448   5.666   7.269   0.160  0.5225  0.6226 -2.1895
    4MOL   H283 2449   5.675   7.096   0.320  1.8994  0.6967 -1.9153
    4MOL   H284 2450   5.515   7.071   0.276  0.1734  2.1536  0.5853
    4MOL   H285 2451   5.770   6.797   0.055 -2.5105  0.8482 -2.8117
    4MOL   H286 2452   5.746   6.615   0.025 -0.2729 -0.3202  0.4334
    4MOL   H287 2453   5.618   6.726   0.018 -0.1614 -1.5802  0.0126
    4MOL   H288 2454   5.846   6.576   0.279 -1.8095 -0.5868 -0.9720
    4MOL   H289 2455   5.761   6.617   0.416  0.8442  1.1276  0.9046
    4MOL   C290 2456   5.239   6.268   0.863 -0.0046  0.1667  0.9049
    4MOL   C291 2457   5.255   6.347   0.736  0.0322  0.1490  0.5116
    4MOL   C292 2458   5.328   6.483   0.762 -0.2876  0.1098  1.2718
    4MOL   C293 2459   5.348   6.560   0.632 -0.4356  0.0978 -0.3289
    4MOL   C294 2460   5.415   6.692   0.655  0.0418 -0.1988  0.3319
    4MOL   C295 2461   5.563   6.688   0.699  0.3154  0.6732 -0.2695
    4MOL   C296 2462   5.624   6.830   0.708 -0.0199 -0.8238 -0.2037
    4MOL   C297 2463   5.776   6.823   0.720  0.1228 -0.4225 -0.5156
    4MOL   O298 2464   5.838   6.778   0.600  0.0416 -0.3296  0.3797
    4MOL   C299 2465   5.852   6.848   0.491 -0.1720 -0.2761 -0.0914
    4MOL   O300 2466   5.828   6.967   0.478  0.3092 -0.0791  0.1072
    4MOL   C301 2467   5.911   6.763   0.373 -0.3945  0.2612  0.1823
    4MOL   C302 2468   6.026   6.674   0.433  0.0449  0.1727  0.2143
    4MOL   C303 2469   5.958   6.852   0.254 -0.1567 -0.4271  0.1016
    4MOL   H304 2470   5.210   6.166   0.840 -2.2917  0.7979  0.8855
    4MOL   H305 2471   5.158   6.316   0.919 -0.6555 -0.1986  0.2834
    4MOL   H306 2472   5.330   6.275   0.923 -1.4949  0.2826  3.1923
    4MOL   H307 2473   5.161   6.367   0.685 -0.3335  1.1358  1.5600
    4MOL   H308 2474   5.325   6.291   0.673  0.4846  1.1096  0.1602
    4MOL   H309 2475   5.427   6.465   0.802  1.2203  0.0931 -2.2292
    4MOL   H310 2476   5.275   6.541   0.838 -0.3757  1.5815  0.1162
    4MOL   H311 2477   5.396   6.505   0.551 -0.5291  1.2833 -1.2147
    4MOL   H312 2478   5.253   6.580   0.583 -1.4167 -1.6459  0.8188
    4MOL   H313 2479   5.411   6.751   0.564 -0.7455  1.0278  1.1632
    4MOL   H314 2480   5.347   6.741   0.725 -0.0984 -0.4385  0.3648
    4MOL   H315 2481   5.615   6.632   0.621 -3.9594 -1.6760 -1.5725
    4MOL   H316 2482   5.574   6.634   0.793 -0.0203  1.2045  0.0763
    4MOL   H317 2483   5.577   6.878   0.794  0.7201  0.1860 -0.3564
    4MOL   H318 2484   5.593   6.888   0.622 -2.3414 -2.9890 -0.9007
    4MOL   H319 2485   5.798   6.765   0.809 -2.3131  1.0836  1.1423
    4MOL   H320 2486   5.807   6.926   0.736 -0.7442 -0.3721  1.0627
    4MOL   H321 2487   6.049   6.589   0.369  1.1838  0.7012 -0.1005
    4MOL   H322 2488   5.999   6.634   0.530 -0.1793  0.5412  0.3058
    4MOL   H323 2489   6.122   6.724   0.450  0.5763 -0.7723  0.0445
    4MOL   H324 2490   5.955   6.786   0.167 -1.2656 -0.6382  0.2927
    4MOL   H325 2491   5.873   6.918   0.238  0.9629  0.9282 -0.4114
    4MOL   C326 2492   6.172   6.449   1.122  0.0771  0.6038  0.2283
    4MOL   C327 2493   6.241   6.558   1.035  0.6111  0.8824  0.3567
    4MOL   C328 2494   6.149   6.666   0.972 -0.0370 -0.2356 -0.0662
    4MOL   C329 2495   6.228   6.778   0.902  0.1794 -0.8893 -0.1752
    4MOL   C330 2496   6.127   6.885   0.847 -0.5461  0.9742  0.3772
    4MOL   C331 2497   6.202   6.982   0.763  0.0550 -0.4564 -0.0667
    4MOL   C332 2498   6.101   7.072   0.691 -0.1370  0.0188 -0.4941
    4MOL   C333 2499   6.147   7.144   0.559 -0.0830  0.1979 -0.1749
    4MOL   O334 2500   6.080   7.078   0.453 -0.1531  0.2721  0.4905
    4MOL   C335 2501   6.149   6.988   0.377  0.8993  0.2206  0.4161
    4MOL   O336 2502   6.261   6.949   0.412 -0.2448 -0.4612 -0.5950
    4MOL   C337 2503   6.084   6.942   0.247 -0.4485 -0.1398 -0.0814
    4MOL   C338 2504   6.196   6.848   0.187  0.4226  0.1721 -0.0931
    4MOL   C339 2505   6.039   7.061   0.161  0.0831 -0.4414 -0.7125
    4MOL   H340 2506   6.085   6.422   1.064 -0.0331  2.7352 -0.6604
    4MOL   H341 2507   6.151   6.504   1.214  0.4079  4.4743 -1.8661
    4MOL   H342 2508   6.229   6.357   1.136 -0.7491 -0.0080 -0.4250
    4MOL   H343 2509   6.287   6.512   0.947  0.4048  1.2714  0.0431
    4MOL   H344 2510   6.326   6.595   1.092  1.4476 -2.2804  1.2397
    4MOL   H345 2511   6.089   6.709   1.052 -1.1642  0.5764 -1.3283
    4MOL   H346 2512   6.082   6.622   0.898 -1.0238  1.3157 -0.1103
    4MOL   H347 2513   6.292   6.729   0.829  2.2962 -1.4268  1.9931
    4MOL   H348 2514   6.290   6.836   0.970 -0.7037  1.4321 -1.3067
    4MOL   H349 2515   6.055   6.829   0.788 -0.9647  2.1010 -0.1846
    4MOL   H350 2516   6.071   6.931   0.927  2.3982  1.7437  2.0917
    4MOL   H351 2517   6.271   7.039   0.824  0.0184  0.5891 -0.9826
    4MOL   H352 2518   6.257   6.936   0.681 -0.8968 -1.5513 -0.1192
    4MOL   H353 2519   6.081   7.149   0.765  0.0495 -1.3845  1.0412
    4MOL   H354 2520   6.010   7.015   0.674 -1.8376  2.0638  1.5903
    4MOL   H355 2521   6.111   7.246   0.563 -0.8882 -0.0930  0.0764
    4MOL   H356 2522   6.253   7.143   0.533 -0.5479 -0.5070 -2.1143
    4MOL   H357 2523   6.296   6.891   0.184  0.9006 -0.6665  2.4393
    4MOL   H358 2524   6.212   6.749   0.229  0.2903  0.1088 -0.1899
    4MOL   H359 2525   6.165   6.816   0.087 -1.2638  1.0884  0.1226
    4MOL   H360 2526   5.960   7.030   0.092  0.6942  1.1208 -2.1363
    4MOL   H361 2527   5.995   7.135   0.228  1.3303  1.8405 -2.3553
    4MOL   C362 2528   5.741   6.429   7.075  0.4894  0.4286  0.3488
    4MOL   C363 2529   5.634   6.542   7.085  0.3676  0.4670 -0.2194
    4MOL   C364 2530   5.678   6.652   7.190  0.0870 -0.0618 -0.0442
    4MOL   C365 2531   5.726   6.586   7.318  0.7874 -0.1044 -1.2958
    4MOL   C366 2532   5.738   6.692   7.430 -0.7844  0.9427 -1.0858
    4MOL   C367 2533   5.858   6.784   7.414 -0.2606 -0.7682 -0.9371
    4MOL   C368 2534   5.902   6.849   7.555  0.2781 -0.0431  0.9491
    4MOL   C369 2535   6.049   6.902   7.564 -1.2981  0.2100 -0.2202
    4MOL   O370 2536   6.052   6.984   7.681  0.2958  0.4428  0.2370
    4MOL   C371 2537   6.157   7.044   7.725 -0.6576 -0.4785 -0.0975
    4MOL   O372 2538   6.273   7.017   7.695 -0.4327  0.3845  0.5617
    4MOL   C373 2539   6.133   7.140   0.066  0.1743 -0.7192  0.7078
    4MOL   C374 2540   6.267   7.185   0.122  0.3954 -0.4975  0.5688
    4MOL   C375 2541   6.055   7.267   0.005 -0.2224  0.0935  0.1462
    4MOL   H376 2542   5.769   6.372   7.163  1.4396 -0.1733 -0.3269
    4MOL   H377 2543   5.700   6.348   7.014 -0.0792  0.4284  0.7278
    4MOL   H378 2544   5.835   6.456   7.027  0.1082 -0.1264 -0.7539
    4MOL   H379 2545   5.543   6.489   7.114  2.2880 -2.3232  0.9479
    4MOL   H380 2546   5.606   6.585   6.989  1.3599 -1.2711 -1.3314
    4MOL   H381 2547   5.600   6.726   7.210  0.5182  0.2882  0.3431
    4MOL   H382 2548   5.760   6.710   7.147  1.8756 -1.1803  1.8086
    4MOL   H383 2549   5.822   6.537   7.302  0.3924 -0.6075 -2.1512
    4MOL   H384 2550   5.646   6.518   7.346 -0.1479  1.6166  0.3451
    4MOL   H385 2551   5.648   6.755   7.430  0.5402  2.8954 -0.0875
    4MOL   H386 2552   5.753   6.640   7.525 -0.8503  0.9714 -1.0594
    4MOL   H387 2553   5.835   6.868   7.348 -1.5607 -0.7263 -0.4527
    4MOL   H388 2554   5.933   6.719   7.371 -1.1392 -2.2264 -0.2876
    4MOL   H389 2555   5.899   6.779   7.638 -1.4351 -0.1434  0.8192
    4MOL   H390 2556   5.834   6.932   7.576 -0.2872  0.0691 -1.1800
    4MOL   H391 2557   6.117   6.818   7.579 -0.5728  1.1234  1.8010
    4MOL   H392 2558   6.060   6.954   7.469  1.5269  1.2140  0.6110
    4MOL   H393 2559   6.255   7.257   0.203 -1.1328 -0.0458 -0.0325
    4MOL   H394 2560   6.316   7.102   0.174 -0.6741 -0.9899  0.8189
    4MOL   H395 2561   6.348   7.204   0.051 -2.1440  2.0137 -1.7925
    4MOL   H396 2562   5.950   7.243   7.769 -0.0979  0.6110 -1.6090
    4MOL   H397 2563   6.047   7.331   0.093  2.5810 -1.1237  1.3598
    4MOL   C398 2564   5.533   0.202   6.990  0.1418 -0.5954  0.2396
    4MOL   C399 2565   5.621   0.196   7.110  0.0792 -0.1995  0.1578
    4MOL   C400 2566   5.574   0.091   7.219  0.6238  0.4284 -0.3838
    4MOL   C401 2567   5.678   0.077   7.330  0.2137  0.4114  0.2002
    4MOL   C402 2568   5.636   7.769   7.447 -0.1555 -0.0290 -0.2915
    4MOL   C403 2569   5.751   7.743   7.560 -0.1148  0.0245 -0.0014
    4MOL   C404 2570   5.695   7.635   7.648 -0.2852  0.2262 -0.2811
    4MOL   C405 2571   5.801   7.592   7.751  0.5263  0.5391  0.3557
    4MOL   O406 2572   5.886   7.490   7.701  0.1784  0.0508 -0.1725
    4MOL   C407 2573   6.018   7.497   7.689  0.3795 -0.8747  0.1420
    4MOL   O408 2574   6.088   7.597   7.713 -0.1131  0.4523  0.6933
    4MOL   C409 2575   6.087   7.354   7.656  0.1424 -0.6586 -0.2171
    4MOL   C410 2576   6.239   7.377   7.626  0.0718 -0.6792 -0.7078
    4MOL   C411 2577   6.012   7.286   7.535 -0.0867  0.0155  0.5333
    4MOL   H412 2578   5.439   0.148   7.007 -1.5428  1.7099 -1.4714
    4MOL   H413 2579   5.577   0.175   6.895 -0.0016  2.1353 -0.6577
    4MOL   H414 2580   5.501   0.305   6.975  0.0568 -0.7472 -0.6225
    4MOL   H415 2581   5.628   0.295   7.157 -0.1096  0.5291 -1.3258
    4MOL   H416 2582   5.720   0.172   7.073 -0.5274 -0.1976 -1.4913
    4MOL   H417 2583   5.474   0.114   7.256  1.2997  0.0849  1.7386
    4MOL   H418 2584   5.554   7.771   7.179 -1.3170  0.3534  0.7135
    4MOL   H419 2585   5.706   0.176   7.364 -0.4647  0.6950 -0.0602
    4MOL   H420 2586   5.766   0.033   7.283 -0.4092 -2.4734  1.6456
    4MOL   H421 2587   5.546   0.034   7.490  0.5381 -1.1020  2.3495
    4MOL   H422 2588   5.616   7.671   7.404 -0.2712 -0.3301  0.4443
    4MOL   H423 2589   5.771   0.059   7.607 -0.8189  0.5487 -0.7381
    4MOL   H424 2590   5.838   7.709   7.504 -0.3091  0.9433 -0.8909
    4MOL   H425 2591   5.618   7.686   7.705 -0.6051  0.6390 -1.0755
    4MOL   H426 2592   5.648   7.552   7.595 -0.4549  0.7024 -0.8751
    4MOL   H427 2593   5.860   7.680   7.777  1.0875  0.4102 -0.4534
    4MOL   H428 2594   5.760   7.556   0.066  0.7961  1.2612  0.7513
    4MOL   H429 2595   6.278   7.286   7.581 -1.2684 -1.8184  0.4069
    4MOL   H430 2596   6.297   7.413   7.712 -0.4373 -0.7945 -0.3160
    4MOL   H431 2597   6.262   7.451   7.549  1.3420 -1.6774 -1.3058
    4MOL   H432 2598   5.910   7.266   7.569 -0.6165 -1.4311 -1.8080
    4MOL   H433 2599   6.056   7.186   7.537  0.4979  0.1962 -1.8870
    4MOL   C434 2600   6.755   0.429   7.025 -0.4809 -0.7857  0.2827
    4MOL   C435 2601   6.614   0.408   7.074 -0.5411 -0.1412  0.3447
    4MOL   C436 2602   6.570   0.254   7.070  0.0205 -0.0921 -0.6492
    4MOL   C437 2603   6.433   0.256   7.146  0.2323 -0.1617  0.1057
    4MOL   C438 2604   6.386   0.115   7.183  0.6871 -0.3226 -0.1928
    4MOL   C439 2605   6.253   0.096   7.243 -0.0298 -0.1485 -0.2385
    4MOL   C440 2606   6.234   7.732   7.300 -1.0492  1.2558 -0.5951
    4MOL   C441 2607   6.096   7.696   7.355 -0.1374  0.4079 -0.0943
    4MOL   O442 2608   6.094   7.558   7.380 -0.0815 -0.0719 -0.2011
    4MOL   C443 2609   5.991   7.485   7.357 -0.6178  0.9235  0.1692
    4MOL   O444 2610   5.883   7.526   7.315  0.4166 -0.1865  0.3108
    4MOL   C445 2611   6.018   7.332   7.388  0.4117  0.6139 -0.7061
    4MOL   C446 2612   5.893   7.253   7.326 -0.6153 -0.0834 -0.4323
    4MOL   C447 2613   6.155   7.285   7.320  0.0214  0.7111 -0.1449
    4MOL   H448 2614   6.758   0.391   6.923 -1.0068 -0.3150  0.0864
    4MOL   H449 2615   6.823   0.382   7.095 -0.9095 -0.8266  0.6802
    4MOL   H450 2616   6.775   0.536   7.018 -2.7075 -0.3112  0.7632
    4MOL   H451 2617   6.535   0.460   7.020 -1.2760  0.9517  2.3991
    4MOL   H452 2618   6.615   0.450   7.175  1.5552 -2.3116  1.2831
    4MOL   H453 2619   6.636   0.191   7.129  0.5113 -0.0417 -1.1369
    4MOL   H454 2620   6.556   0.213   6.970  0.3092 -0.7340 -0.4314
    4MOL   H455 2621   6.356   0.300   7.084  0.2551 -0.1038  0.1184
    4MOL   H456 2622   6.435   0.318   7.236  1.6667  0.1765 -0.1509
    4MOL   H457 2623   6.398   0.055   7.092  3.3452  0.9044 -0.7101
    4MOL   H458 2624   6.455   0.080   7.260 -0.9674 -2.4607  0.3655
    4MOL   H459 2625   6.177   0.113   7.167  0.9341 -1.3557 -1.5011
    4MOL   H460 2626   6.228   0.160   7.328  0.3542 -0.3959  0.0636
    4MOL   H461 2627   6.262   7.665   7.218  3.1292  1.2794  0.6970
    4MOL   H462 2628   6.302   7.720   7.383 -3.4386 -1.7290  1.0279
    4MOL   H463 2629   6.017   7.716   7.283  0.3532 -1.3950 -1.1496
    4MOL   H464 2630   6.073   7.751   7.447  1.0675 -0.5009  0.7734
    4MOL   H465 2631   5.884   7.147   7.349  1.2177 -0.3356 -0.8047
    4MOL   H466 2632   5.804   7.284   7.382  1.5589  2.0867  1.9319
    4MOL   H467 2633   5.864   7.275   7.223 -0.8948 -2.4275 -0.8872
    4MOL   H468 2634   6.225   7.369   7.319 -1.8360  2.2962 -1.7619
    4MOL   H469 2635   6.200   7.211   7.386 -1.8681 -0.3551 -0.0339
    4MOL   C470 2636   5.382   6.925   7.341 -0.5055  0.1238 -0.0374
    4MOL   C471 2637   5.328   6.979   7.207 -0.5630  0.1311  0.4549
    4MOL   C472 2638   5.419   6.955   7.087  0.6679 -0.4056 -0.1722
    4MOL   C473 2639   5.560   7.000   7.094  0.1861  0.4672 -0.2033
    4MOL   C474 2640   5.628   7.020   6.957  0.2184 -0.2154  0.2206
    4MOL   C475 2641   5.780   7.056   6.971  0.0608 -0.0838  0.3121
    4MOL   C476 2642   5.867   6.937   7.018  0.1856 -0.0487 -0.6678
    4MOL   C477 2643   6.009   6.957   6.979 -0.5194  0.2397  0.2970
    4MOL   O478 2644   6.073   7.078   7.020  0.2597 -0.3973 -0.2125
    4MOL   C479 2645   6.094   7.100   7.141  1.0303 -0.7719 -0.0505
    4MOL   O480 2646   6.065   7.030   7.235  0.3727  0.7237  0.9697
    4MOL   C481 2647   6.163   7.235   7.167  0.0284  0.3501 -0.0112
    4MOL   C482 2648   6.097   7.341   7.076 -0.3378  0.3226  0.0146
    4MOL   C483 2649   6.313   7.236   7.122 -0.6592  0.2150  0.3260
    4MOL   H484 2650   5.401   6.819   7.321  1.3897  0.3040  0.7046
    4MOL   H485 2651   5.313   6.944   7.423 -0.8993 -0.4147 -0.2404
    4MOL   H486 2652   5.482   6.967   7.355 -0.6847  0.4965  0.1181
    4MOL   H487 2653   5.235   6.931   7.177 -0.5024 -0.1126  0.6531
    4MOL   H488 2654   5.311   7.086   7.219 -0.6475 -0.2069  3.6543
    4MOL   H489 2655   5.426   6.849   7.061 -2.1478 -0.9324  0.9627
    4MOL   H490 2656   5.372   7.011   7.006  0.3329 -0.6757 -0.1676
    4MOL   H491 2657   5.562   7.101   7.134 -1.0147 -0.0589  1.2506
    4MOL   H492 2658   5.616   6.931   7.158 -2.2986 -0.8785  0.5757
    4MOL   H493 2659   5.613   6.931   6.895  1.3833 -0.5447  0.4075
    4MOL   H494 2660   5.587   7.111   6.912 -0.2319 -0.1846  0.6906
    4MOL   H495 2661   5.823   7.075   6.872 -0.1158 -0.6825  0.1202
    4MOL   H496 2662   5.797   7.141   7.037  0.5029 -2.2350  3.0474
    4MOL   H497 2663   5.851   6.933   7.126 -0.9647  0.7088 -0.7943
    4MOL   H498 2664   5.825   6.840   6.993 -0.5869  0.0425  0.2274
    4MOL   H499 2665   6.000   6.953   6.870 -1.3689 -1.6161  0.4194
    4MOL   H500 2666   6.071   6.869   6.996 -1.1515 -0.4723 -1.0297
    4MOL   H501 2667   6.117   7.443   7.109 -0.0870  0.6694 -1.1912
    4MOL   H502 2668   5.989   7.336   7.069 -0.4744  0.7335  1.6316
    4MOL   H503 2669   6.141   7.345   6.977  1.1605  1.5356  0.7069
    4MOL   H504 2670   6.309   7.210   7.016 -0.6645  0.9273  0.1463
    4MOL   H505 2671   6.341   7.342   7.123  1.3544 -0.3105  2.1227
    4MOL   C506 2672   7.286   7.096   0.218 -0.0884 -0.2019 -0.0746
    4MOL   C507 2673   7.272   7.190   0.092 -0.0775 -0.3765 -0.1216
    4MOL   C508 2674   7.150   7.162   0.004  0.4633  0.0066  0.3733
    4MOL   C509 2675   7.150   7.258   7.661  0.3348 -0.3201 -0.3421
    4MOL   C510 2676   7.047   7.226   7.552  0.3525  0.3440  0.6156
    4MOL   C511 2677   6.895   7.249   7.573 -0.2934 -0.2181  0.2733
    4MOL   C512 2678   6.802   7.196   7.463 -0.5421  0.5839 -0.2304
    4MOL   C513 2679   6.654   7.208   7.493  0.2889  0.8372 -0.2276
    4MOL   O514 2680   6.574   7.151   7.388 -0.1619 -0.3069 -0.2741
    4MOL   C515 2681   6.487   7.226   7.316 -0.1839  0.0634 -0.4761
    4MOL   O516 2682   6.473   7.346   7.338  0.5419  0.7722  0.0630
    4MOL   C517 2683   6.427   7.152   7.193 -0.6789 -0.9827  0.3541
    4MOL   C518 2684   6.379   7.014   7.241  0.0840 -0.2439  0.0456
    4MOL   C519 2685   6.555   7.130   7.093  0.3858 -0.5834 -0.4611
    4MOL   H520 2686   7.350   7.151   0.287  0.7145  2.0312 -2.5284
    4MOL   H521 2687   7.324   6.997   0.193  0.5062 -0.2348  0.9125
    4MOL   H522 2688   7.190   7.088   0.269  0.6724 -1.3207  1.2184
    4MOL   H523 2689   7.364   7.188   0.033  0.2410  2.0088  0.2591
    4MOL   H524 2690   7.261   7.290   0.133 -0.7126  0.0687 -1.3367
    4MOL   H525 2691   7.148   7.059   7.748  0.1997  0.7861 -1.9752
    4MOL   H526 2692   7.051   7.172   0.047  0.6757 -0.6494  1.0130
    4MOL   H527 2693   7.143   7.361   7.695 -1.6788 -0.1680 -1.1551
    4MOL   H528 2694   7.246   7.245   7.612  0.0167  1.1664 -1.3890
    4MOL   H529 2695   7.062   7.283   7.460  0.0452  0.9485  0.9414
    4MOL   H530 2696   7.065   7.123   7.520 -1.0857  0.1940  0.2657
    4MOL   H531 2697   6.864   7.349   7.604 -1.9220 -0.9051  0.8967
    4MOL   H532 2698   6.874   7.193   7.664 -0.5141  0.7040  0.7983
    4MOL   H533 2699   6.825   7.090   7.457 -1.7684  0.2245  1.1370
    4MOL   H534 2700   6.819   7.248   7.369  0.1728  1.3708  0.3226
    4MOL   H535 2701   6.630   7.311   7.518 -0.6287  1.2673 -2.7519
    4MOL   H536 2702   6.642   7.141   7.578  1.4591 -0.3407 -0.9703
    4MOL   H537 2703   6.460   6.948   7.272 -0.0195 -0.1855  0.4453
    4MOL   H538 2704   6.326   6.955   7.167  0.6353 -0.1749 -0.4005
    4MOL   H539 2705   6.316   7.024   7.330 -0.9001  3.0333 -0.9305
    4MOL   H540 2706   6.643   7.109   7.153  0.5749  0.3695 -0.3928
    4MOL   H541 2707   6.532   7.035   7.044  0.0061 -0.0000 -1.4223
    4MOL   C542 2708   7.390   7.536   7.545  0.5823 -0.0921  0.8811
    4MOL   C543 2709   7.303   7.513   7.426  0.5739 -0.2042 -0.2439
    4MOL   C544 2710   7.164   7.580   7.436 -0.0049  0.5625  0.4633
    4MOL   C545 2711   7.080   7.559   7.307 -0.3341  0.5512 -0.7637
    4MOL   C546 2712   6.941   7.617   7.322  0.5242 -0.0379  0.0355
    4MOL   C547 2713   6.847   7.580   7.205  0.1791  0.6476 -0.5042
    4MOL   C548 2714   6.707   7.625   7.229  0.3004  0.2538 -0.4330
    4MOL   C549 2715   6.607   7.569   7.123  0.2855 -0.0457 -0.0030
    4MOL   O550 2716   6.634   7.431   7.095 -0.0986 -0.7029 -0.0892
    4MOL   C551 2717   6.564   7.374   6.993  0.2533 -0.3165  0.1614
    4MOL   O552 2718   6.491   7.432   6.914  0.6724  0.4542 -0.2681
    4MOL   C553 2719   6.600   7.227   6.972  0.6779 -0.0599 -0.3484
    4MOL   C554 2720   6.535   7.178   6.842 -0.6171  0.2057  0.9889
    4MOL   C555 2721   6.758   7.199   6.951  0.0505  0.3181  0.3174
    4MOL   H556 2722   7.338   7.507   7.636  2.6280 -0.1272  2.0799
    4MOL   H557 2723   7.416   7.642   7.554 -3.1663  0.9662  0.1101
    4MOL   H558 2724   7.473   7.466   7.553  0.4033 -0.6588 -1.8416
    4MOL   H559 2725   7.341   7.554   7.333 -0.1936  0.8481 -0.0986
    4MOL   H560 2726   7.283   7.405   7.422 -0.3539 -0.0808  0.8791
    4MOL   H561 2727   7.173   7.684   7.467 -0.2449  0.6781  0.1406
    4MOL   H562 2728   7.116   7.546   7.528  2.9144  1.4468  2.4031
    4MOL   H563 2729   7.119   7.613   7.221  0.0274 -0.1005 -1.0100
    4MOL   H564 2730   7.074   7.452   7.289 -3.2491  0.1520  2.0743
    4MOL   H565 2731   6.935   7.724   7.340  0.8494 -0.0614  0.2871
    4MOL   H566 2732   6.894   7.578   7.413  1.2916 -1.4508 -0.1602
    4MOL   H567 2733   6.875   7.621   7.108  1.3645  1.1122  0.0242
    4MOL   H568 2734   6.870   7.475   7.191  2.0934  0.8475  0.8391
    4MOL   H569 2735   6.674   7.580   7.323 -1.6041 -3.1871 -2.6339
    4MOL   H570 2736   6.700   7.734   7.231 -0.5909  0.1900  1.4646
    4MOL   H571 2737   6.598   7.629   7.032 -0.0486 -0.7987 -0.4737
    4MOL   H572 2738   6.506   7.579   7.165  1.8998 -0.1599  4.1433
    4MOL   H573 2739   6.551   7.252   6.763 -2.8198  0.5140  0.7987
    4MOL   H574 2740   6.426   7.167   6.841 -0.6395  0.4448  0.3982
    4MOL   H575 2741   6.569   7.077   6.817  0.2162  0.2284  2.0411
    4MOL   H576 2742   6.776   7.094   6.972  2.4688  0.5986 -0.2632
    4MOL   H577 2743   6.817   7.239   7.033 -0.4106 -0.8549  1.2184
    4MOL   C578 2744   7.392   0.048   7.247 -0.3243 -0.3564 -0.2520
    4MOL   C579 2745   7.352   0.161   7.150  0.3674 -0.0334 -0.5478
    4MOL   C580 2746   7.204   0.155   7.109 -0.5277  0.2470  0.2268
    4MOL   C581 2747   7.173   0.058   6.997  0.3982  0.2862 -0.4425
    4MOL   C582 2748   7.028   0.077   6.955 -0.1567 -0.4040  0.1667
    4MOL   C583 2749   6.979   7.735   6.870  0.4522  0.1987  0.4790
    4MOL   C584 2750   6.827   7.730   6.850  1.1984  0.1424  0.0736
    4MOL   C585 2751   6.786   7.605   6.774 -0.2475  0.3428  0.0148
    4MOL   O586 2752   6.816   7.475   6.833  0.0702  0.1516 -0.0063
    4MOL   C587 2753   6.793   7.362   6.760 -0.4309 -0.4316  0.1362
    4MOL   O588 2754   6.745   7.365   6.643 -0.4334 -0.2586  0.1830
    4MOL   C589 2755   6.839   7.231   6.821  0.0098  0.1196 -0.7531
    4MOL   C590 2756   6.827   7.121   6.712  0.2013  0.4790 -0.7963
    4MOL   C591 2757   6.993   7.250   6.852 -0.1183  0.5909 -0.5368
    4MOL   H592 2758   7.338   0.043   7.342 -0.3560  0.7798 -0.2140
    4MOL   H593 2759   7.499   0.059   7.266 -0.0667 -1.4147 -1.0089
    4MOL   H594 2760   7.391   7.731   7.196  0.9519  0.2421 -1.4216
    4MOL   H595 2761   7.407   0.156   7.056 -2.1752  0.0474 -2.0769
    4MOL   H596 2762   7.376   0.260   7.191 -1.3710 -0.3289  1.2572
    4MOL   H597 2763   7.161   0.253   7.088 -1.8928 -0.0966  1.3925
    4MOL   H598 2764   7.143   0.129   7.196 -0.5172 -2.6565 -0.5692
    4MOL   H599 2765   7.178   7.732   7.025 -0.1817 -0.8719 -4.3483
    4MOL   H600 2766   7.247   0.068   6.918  0.9887 -1.0151 -0.0793
    4MOL   H601 2767   7.014   0.165   6.892 -1.0753  0.3928  1.4601
    4MOL   H602 2768   6.963   0.105   7.038  3.3444  2.1291  2.1799
    4MOL   H603 2769   6.998   7.636   6.912  0.3295  0.6205  1.5398
    4MOL   H604 2770   7.032   7.731   6.775  0.5530 -0.5138  0.5621
    4MOL   H605 2771   6.774   0.037   6.810  1.5029  0.0593 -0.5184
    4MOL   H606 2772   6.774   7.730   6.945  0.7404  0.3049 -0.1805
    4MOL   H607 2773   6.677   7.614   6.774 -0.3601 -0.5987  2.3607
    4MOL   H608 2774   6.831   7.615   6.675  0.8810 -0.1511  0.4686
    4MOL   H609 2775   6.730   7.124   6.663  0.2248  1.3373 -0.7937
    4MOL   H610 2776   6.904   7.133   6.636 -0.1689 -0.6323 -1.3598
    4MOL   H611 2777   6.851   7.022   6.750 -2.0637 -0.0162 -0.5645
    4MOL   H612 2778   7.001   7.335   6.919  0.8589  1.1070 -1.2945
    4MOL   H613 2779   7.037   7.282   6.757  1.2436  0.9820  0.2152
    4MOL   C614 2780   6.534   6.361   7.361  0.3627  0.5358  0.6095
    4MOL   C615 2781   6.647   6.448   7.285 -0.1070  0.1151  0.0060
    4MOL   C616 2782   6.795   6.405   7.315  0.1389 -0.2814  0.0866
    4MOL   C617 2783   6.889   6.503   7.258 -0.2747  0.5327 -0.0608
    4MOL   C618 2784   6.888   6.647   7.328 -0.1389 -0.1652  0.4961
    4MOL   C619 2785   6.987   6.742   7.261 -0.0605  0.0352 -0.3450
    4MOL   C620 2786   6.979   6.882   7.304  0.1488  0.4754 -0.2818
    4MOL   C621 2787   7.095   6.965   7.243  0.2389  0.4479  0.1322
    4MOL   O622 2788   7.072   7.001   7.102 -0.4396 -0.1677 -0.7924
    4MOL   C623 2789   7.067   7.124   7.063 -0.2461 -0.3020 -0.5131
    4MOL   O624 2790   7.058   7.222   7.139  0.5452  0.5458 -1.0913
    4MOL   C625 2791   7.094   7.145   6.912 -0.0036  0.5900 -0.1543
    4MOL   C626 2792   7.102   7.013   6.829 -0.6114 -0.2415 -0.2548
    4MOL   C627 2793   7.233   7.223   6.894  0.1916  0.2392  0.4728
    4MOL   H628 2794   6.544   6.359   7.469 -0.0756 -1.1566  0.6248
    4MOL   H629 2795   6.542   6.261   7.318  2.9160 -0.0618  2.3654
    4MOL   H630 2796   6.439   6.403   7.326 -0.7449  0.2467  3.1751
    4MOL   H631 2797   6.621   6.459   7.179 -1.1591 -1.4273  0.0959
    4MOL   H632 2798   6.635   6.545   7.334 -2.9518  0.4710 -1.2508
    4MOL   H633 2799   6.816   6.311   7.263  0.8511  0.9367 -1.8871
    4MOL   H634 2800   6.821   6.392   7.420  2.3617 -2.6686 -0.6878
    4MOL   H635 2801   6.876   6.511   7.150  0.1971  2.0676 -0.0029
    4MOL   H636 2802   6.985   6.453   7.269 -0.9906 -0.8106  0.3258
    4MOL   H637 2803   6.789   6.690   7.319 -0.5198 -1.4066 -1.9975
    4MOL   H638 2804   6.909   6.646   7.435  0.7335  0.3711  0.3307
    4MOL   H639 2805   7.084   6.710   7.300 -0.0186  1.3729  0.6936
    4MOL   H640 2806   6.982   6.724   7.154 -0.7098  0.6465 -0.4196
    4MOL   H641 2807   6.993   6.887   7.412  0.5858 -0.5717 -0.2846
    4MOL   H642 2808   6.883   6.931   7.286 -0.0790  1.4912  3.3217
    4MOL   H643 2809   7.111   7.059   7.297  2.1317 -0.2296  0.7887
    4MOL   H644 2810   7.188   6.912   7.261 -0.0327 -0.5676 -1.4031
    4MOL   H645 2811   7.029   6.937   6.856  0.2739 -1.3102 -0.7920
    4MOL   H646 2812   7.193   6.955   6.848  0.0753  0.4827 -1.2793
    4MOL   H647 2813   7.115   7.038   6.724  2.6455  0.1242  0.1678
    4MOL   H648 2814   7.220   7.332   6.890 -0.7575  0.2128  2.2474
    4MOL   H649 2815   7.260   7.202   6.791  1.9333 -2.0090  1.3678
    4MOL   C650 2816   7.474   6.434   6.270 -0.5796  0.1686  0.3388
    4MOL   C651 2817   7.395   6.481   6.387 -0.4964  0.9694 -0.4009
    4MOL   C652 2818   7.452   6.608   6.452 -0.4558 -0.3755 -0.1668
    4MOL   C653 2819   7.367   6.646   6.575  0.5136  0.0029  0.4629
    4MOL   C654 2820   7.351   6.794   6.605 -1.0939 -0.8278 -0.0998
    4MOL   C655 2821   7.486   6.865   6.630 -0.1380 -0.0600  0.1394
    4MOL   C656 2822   7.571   6.822   6.743  0.1384 -0.0428 -0.0894
    4MOL   C657 2823   7.491   6.848   6.877  0.3591 -0.1225 -0.1802
    4MOL   O658 2824   7.458   6.990   6.874 -0.3246  0.3286 -0.7275
    4MOL   C659 2825   7.401   7.046   6.990  0.1679  0.0603  0.1812
    4MOL   O660 2826   7.385   6.980   7.095 -0.3435 -0.0842 -0.0401
    4MOL   C661 2827   7.371   7.198   6.980 -0.2501 -0.6401  0.1282
    4MOL   C662 2828   7.369   7.260   7.119 -0.2073 -0.1838  0.3236
    4MOL   C663 2829   7.491   7.264   6.898  0.1358  0.4322  0.8419
    4MOL   H664 2830   7.438   6.333   6.245 -1.1083  0.8369 -1.7022
    4MOL   H665 2831   7.580   6.422   6.290 -0.4027 -1.5264 -1.3969
    4MOL   H666 2832   7.454   6.489   6.179  0.8222 -0.6755 -0.4980
    4MOL   H667 2833   7.393   6.398   6.457  0.2058  0.8012 -0.5687
    4MOL   H668 2834   7.289   6.497   6.368 -0.8391  0.1270  0.7825
    4MOL   H669 2835   7.456   6.690   6.381 -1.0473  0.3330  0.6052
    4MOL   H670 2836   7.554   6.587   6.484  0.3998  1.2072 -1.8000
    4MOL   H671 2837   7.415   6.600   6.661  2.7870  0.1633 -0.6832
    4MOL   H672 2838   7.270   6.600   6.558  0.9168 -0.4869 -0.6125
    4MOL   H673 2839   7.284   6.809   6.691  0.7392  0.1614  1.1903
    4MOL   H674 2840   7.300   6.840   6.520 -1.4496  1.3387  1.2445
    4MOL   H675 2841   7.551   6.850   6.544 -0.7731 -0.5666 -0.2593
    4MOL   H676 2842   7.466   6.972   6.633  1.3419  0.2177  0.1726
    4MOL   H677 2843   7.664   6.879   6.749 -0.0771  0.4128 -0.9033
    4MOL   H678 2844   7.590   6.717   6.721 -2.1809 -0.2376 -1.3329
    4MOL   H679 2845   7.563   6.829   6.957 -0.2168 -2.2954 -0.1493
    4MOL   H680 2846   7.407   6.780   6.888  0.6781 -0.4856  0.0020
    4MOL   H681 2847   7.457   7.248   7.182 -0.2444 -0.4927  0.3183
    4MOL   H682 2848   7.289   7.222   7.183 -0.3012 -0.4217  0.0682
    4MOL   H683 2849   7.356   7.367   7.108 -1.6675 -0.1696  2.0588
    4MOL   H684 2850   7.506   7.207   6.806 -0.3006  1.6963 -0.0325
    4MOL   H685 2851   7.451   7.361   6.867  1.5234  0.3156 -1.4767
    4MOL   C686 2852   0.298   7.199   0.041  0.3860  0.0287  0.1613
    4MOL   C687 2853   0.316   7.295   7.707 -0.1180 -0.0857  0.3825
    4MOL   C688 2854   0.206   7.391   7.688  0.5948  0.5294  0.3333
    4MOL   C689 2855   0.251   7.502   7.587 -0.0709 -0.0912  0.4182
    4MOL   C690 2856   0.141   7.605   7.549 -1.5735  0.0798 -0.5041
    4MOL   C691 2857   0.018   7.546   7.479  0.6480  0.2726 -0.0616
    4MOL   C692 2858   0.025   7.480   7.337 -0.2787  0.0038 -0.7510
    4MOL   C693 2859   7.673   7.418   7.303  0.1574  0.2981  0.4584
    4MOL   O694 2860   7.691   7.343   7.183  0.7802  0.6761  0.2621
    4MOL   C695 2861   7.647   7.387   7.064 -0.0194  0.4273 -0.0279
    4MOL   O696 2862   7.608   7.502   7.058  0.0306 -0.2508  0.3309
    4MOL   C697 2863   7.640   7.278   6.956  0.2262  0.1134  0.1364
    4MOL   C698 2864   7.730   7.322   6.834 -0.1793 -0.6495  0.0148
    4MOL   C699 2865   7.698   7.144   7.008 -0.3295 -0.2364  0.0822
    4MOL   H700 2866   0.386   7.135   0.051  1.8712  1.8381 -1.1278
    4MOL   H701 2867   0.218   7.126   0.028 -0.7083  0.9143  1.7538
    4MOL   H702 2868   0.269   7.254   0.131 -2.7655 -0.4696 -0.4952
    4MOL   H703 2869   0.336   7.227   7.624 -0.0975 -0.7565  0.9298
    4MOL   H704 2870   0.415   7.338   7.722 -0.8521  2.4866 -1.8451
    4MOL   H705 2871   0.181   7.436   0.005  0.1774  0.3416  0.3144
    4MOL   H706 2872   0.124   7.325   7.661  2.0789 -1.7948  1.3832
    4MOL   H707 2873   0.276   7.451   7.494 -1.7590 -0.7970  0.3287
    4MOL   H708 2874   0.337   7.555   7.628  0.5129 -1.1318  0.5560
    4MOL   H709 2875   0.191   7.679   7.487 -0.5741 -1.1110 -1.1392
    4MOL   H710 2876   0.119   7.654   7.644  0.4994 -0.4829  0.2973
    4MOL   H711 2877   7.747   7.478   7.548  0.1864  0.8031  0.1321
    4MOL   H712 2878   7.734   7.633   7.463 -1.1120 -0.9549  0.1620
    4MOL   H713 2879   0.048   7.545   7.253  0.9477  0.9038  0.2647
    4MOL   H714 2880   0.109   7.410   7.336  0.0625  0.4181 -1.0620
    4MOL   H715 2881   7.600   7.497   7.285 -0.5273 -0.2587  0.7241
    4MOL   H716 2882   7.625   7.366   7.386 -0.3381  2.5966  1.6414
    4MOL   H717 2883   7.748   7.243   6.761  0.1631  0.9160 -1.6170
    4MOL   H718 2884   7.680   7.400   6.777 -1.9545 -2.4016 -0.9306
    4MOL   H719 2885   0.048   7.360   6.864 -0.3426 -0.5718  0.4438
    4MOL   H720 2886   7.662   7.113   7.106 -0.8866  1.8668  0.5700
    4MOL   H721 2887   0.027   7.156   7.016 -0.5157 -0.0235  2.4618
    4MOL   H722 2888   7.695   7.059   6.940 -1.7200  0.2589 -0.4819
    5MOL     C1 2889   3.871   0.625   1.550  0.3176  0.0342  1.1641
    5MOL     C2 2890   3.747   0.712   1.548 -0.0882 -0.0869 -0.0212
    5MOL     C3 2891   3.747   0.814   1.661  0.0757  0.4732  0.7038
    5MOL     C4 2892   3.845   0.938   1.659  0.2347 -0.0156 -0.0423
    5MOL     C5 2893   3.823   1.051   1.764 -1.3446  0.6150  0.2535
    5MOL     C6 2894   3.684   1.119   1.771 -0.1022 -0.4332  0.1815
    5MOL     C7 2895   3.685   1.254   1.851  0.4532 -1.0981  1.1790
    5MOL     C8 2896   3.550   1.325   1.871  0.0017 -0.4790  0.0566
    5MOL     O9 2897   3.586   1.421   1.968 -0.6615  0.0802  0.1839
    5MOL    C10 2898   3.551   1.412   2.095 -0.8533  0.2804 -0.4335
    5MOL    O11 2899   3.478   1.332   2.144  0.2368 -0.6989  0.7187
    5MOL    C12 2900   3.620   1.531   2.175 -0.3609  0.3111 -0.2790
    5MOL    C13 2901   3.767   1.500   2.190 -0.1867 -0.2896  0.1219
    5MOL    C14 2902   3.594   1.674   2.112 -0.2818  0.4690 -0.2631
    5MOL    H15 2903   3.867   0.549   1.473 -1.7603  1.3923 -0.1271
    5MOL    H16 2904   3.885   0.568   1.642  2.7256 -2.1831 -0.5053
    5MOL    H17 2905   3.967   0.675   1.538 -0.2031  0.8621  0.4109
    5MOL    H18 2906   3.660   0.650   1.568 -0.9172  1.3397  0.8524
    5MOL    H19 2907   3.721   0.755   1.451 -0.6734  2.1585  1.0746
    5MOL    H20 2908   3.644   0.850   1.672  0.2401  1.5291 -1.1348
    5MOL    H21 2909   3.757   0.760   1.755  1.1363 -0.8666 -0.1735
    5MOL    H22 2910   3.949   0.907   1.669  1.0757  2.6413 -0.2713
    5MOL    H23 2911   3.835   0.997   1.568  1.8911  1.0529  0.4457
    5MOL    H24 2912   3.899   1.129   1.754  0.7924 -1.4052  0.1828
    5MOL    H25 2913   3.828   1.008   1.864 -2.7229  2.1194  0.9868
    5MOL    H26 2914   3.610   1.053   1.816  0.7100 -1.4469  0.0611
    5MOL    H27 2915   3.653   1.137   1.668 -0.6705 -0.9291  0.2655
    5MOL    H28 2916   3.751   1.319   1.795  0.5123 -3.0488 -1.1216
    5MOL    H29 2917   3.713   1.221   1.951 -2.4163 -1.6807  1.8615
    5MOL    H30 2918   3.468   1.257   1.889  0.0790 -1.0466 -1.6205
    5MOL    H31 2919   3.513   1.374   1.780  2.1218  1.1721  0.0357
    5MOL    H32 2920   3.781   1.399   2.227  1.2053  0.4092  1.5537
    5MOL    H33 2921   3.825   1.520   2.100 -1.0266  0.8526 -0.1770
    5MOL    H34 2922   3.807   1.565   2.267  0.0366 -0.1803 -0.0871
    5MOL    H35 2923   3.574   1.669   2.005 -1.4684  4.0074 -0.2626
    5MOL    H36 2924   3.684   1.736   2.109  0.8446 -1.1746 -1.1431
    5MOL    H37 2925   3.583   1.526   2.278 -0.4368 -0.7240 -0.3500
    5MOL    C38 2926   3.254   2.150   1.220  0.2627 -0.8330 -0.3402
    5MOL    C39 2927   3.308   2.166   1.362  0.7968  0.0538  0.3848
    5MOL    C40 2928   3.309   2.033   1.441 -0.0715 -1.0553 -0.0521
    5MOL    C41 2929   3.185   2.015   1.525  0.1221 -0.1254  0.4737
    5MOL    C42 2930   3.182   1.886   1.604 -0.2450  0.7946  0.0723
    5MOL    C43 2931   3.230   1.899   1.754 -0.6096 -0.4320  0.1195
    5MOL    C44 2932   3.361   1.977   1.775  0.0133  1.1832 -0.7526
    5MOL    C45 2933   3.411   2.014   1.914  0.3865 -0.1664  0.0270
    5MOL    O46 2934   3.416   1.894   1.994 -0.5679  0.1332 -0.2831
    5MOL    C47 2935   3.488   1.896   2.100 -0.5799  0.3038  0.0608
    5MOL    O48 2936   3.550   1.994   2.137  0.1404  0.0901  0.4192
    5MOL    C49 2937   3.494   1.765   2.182  0.8556  0.2523 -0.7978
    5MOL    C50 2938   3.545   1.798   2.327  0.1550  0.2696  0.6799
    5MOL    C51 2939   3.358   1.692   2.183  0.1101  0.2501 -0.1947
    5MOL    H52 2940   3.308   2.067   1.175  2.5215 -0.2437  1.1810
    5MOL    H53 2941   3.285   2.242   1.171 -0.9185  1.2173  2.6097
    5MOL    H54 2942   3.148   2.135   1.201 -0.2471  0.1711  1.5901
    5MOL    H55 2943   3.257   2.250   1.410 -0.5354 -0.5117 -0.0148
    5MOL    H56 2944   3.414   2.193   1.362  0.8044  0.0456  1.1263
    5MOL    H57 2945   3.326   1.950   1.373  1.2494 -1.0290  0.2386
    5MOL    H58 2946   3.392   2.042   1.511 -0.6607 -0.1401  0.5384
    5MOL    H59 2947   3.093   2.019   1.468  0.2599  1.9115  0.3698
    5MOL    H60 2948   3.174   2.097   1.595 -0.5435 -0.1105  0.3535
    5MOL    H61 2949   3.078   1.856   1.606  0.4553 -1.7680  0.0048
    5MOL    H62 2950   3.233   1.804   1.553  2.4404  1.1029  2.1602
    5MOL    H63 2951   3.153   1.941   1.819  0.1040 -1.3503  1.5774
    5MOL    H64 2952   3.249   1.804   1.804 -0.0635 -0.4999 -0.2174
    5MOL    H65 2953   3.338   2.070   1.724  1.4593  2.4162  0.7621
    5MOL    H66 2954   3.442   1.924   1.725 -0.1829  0.0105  0.1512
    5MOL    H67 2955   3.339   2.082   1.959  1.2610  0.4919  0.4359
    5MOL    H68 2956   3.507   2.065   1.910 -0.5480  1.5163 -1.4209
    5MOL    H69 2957   3.479   1.855   2.393 -1.3074 -2.0089  1.2446
    5MOL    H70 2958   3.559   1.705   2.382  1.2921 -0.5150 -0.9019
    5MOL    H71 2959   3.643   1.845   2.331 -0.3753  1.3574  1.3400
    5MOL    H72 2960   3.376   1.591   2.219  0.3357  0.5749  0.6205
    5MOL    H73 2961   3.323   1.676   2.081 -0.3938  1.8706 -0.2908
    5MOL    C74 2962   3.113   0.658   2.239 -0.4666 -0.4046 -0.1494
    5MOL    C75 2963   3.085   0.792   2.294  0.4365 -0.1413 -0.0213
    5MOL    C76 2964   3.212   0.876   2.322  0.5757  1.2095  0.0153
    5MOL    C77 2965   3.185   1.024   2.359  0.1383  0.4741  0.0105
    5MOL    C78 2966   3.300   1.116   2.409 -0.0421  0.4180  0.3179
    5MOL    C79 2967   3.259   1.263   2.429 -0.7629  0.5150  0.1421
    5MOL    C80 2968   3.367   1.355   2.477  0.0721 -0.1315  0.3774
    5MOL    C81 2969   3.317   1.494   2.522 -0.4878 -0.2624 -0.1480
    5MOL    O82 2970   3.267   1.551   2.408  0.5143  0.0272 -0.2314
    5MOL    C83 2971   3.256   1.692   2.409  0.0820  0.5120  0.2534
    5MOL    O84 2972   3.264   1.764   2.506 -0.2608 -0.1852  0.0954
    5MOL    C85 2973   3.237   1.747   2.263 -1.0111  0.5804 -0.4197
    5MOL    C86 2974   3.233   1.907   2.263  0.0851 -0.0980 -0.2485
    5MOL    C87 2975   3.108   1.687   2.188 -0.3396  0.4191 -0.4304
    5MOL    H88 2976   3.175   0.665   2.150  0.1277  1.4091  0.3790
    5MOL    H89 2977   3.025   0.605   2.203 -0.0876 -1.2512  0.1456
    5MOL    H90 2978   3.175   0.599   2.307  0.1652  0.3977 -0.0257
    5MOL    H91 2979   3.037   0.787   2.392  0.0727  0.0231 -0.1904
    5MOL    H92 2980   3.024   0.846   2.221 -0.9775 -0.0005  1.2398
    5MOL    H93 2981   3.268   0.828   2.402 -0.7252  0.9499  0.7937
    5MOL    H94 2982   3.279   0.857   2.239  1.2071  1.8562  0.3676
    5MOL    H95 2983   3.110   1.037   2.438 -0.5386 -2.5356 -0.0628
    5MOL    H96 2984   3.132   1.068   2.275  0.0604  0.6330  0.1431
    5MOL    H97 2985   3.317   1.084   2.512 -0.6748  0.5871  0.4774
    5MOL    H98 2986   3.398   1.097   2.365 -0.7105  1.6166 -1.7055
    5MOL    H99 2987   3.216   1.312   2.342  0.4564  2.9388  0.8777
    5MOL   H100 2988   3.181   1.262   2.506 -0.8969  0.7124  0.0083
    5MOL   H101 2989   3.426   1.322   2.562 -1.8460  0.6624  2.0371
    5MOL   H102 2990   3.443   1.378   2.401 -0.1352 -2.8019 -0.7090
    5MOL   H103 2991   3.404   1.550   2.555 -0.1605  0.1461 -1.6781
    5MOL   H104 2992   3.242   1.483   2.601  0.8333 -2.5028  0.8265
    5MOL   H105 2993   3.234   1.940   2.159 -0.6456  0.8009  0.0191
    5MOL   H106 2994   3.310   1.965   2.315 -0.7830  0.7127  0.1688
    5MOL   H107 2995   3.139   1.948   2.300 -0.0730 -1.1675  0.5496
    5MOL   H108 2996   3.115   1.709   2.081  1.1175 -0.7512 -0.5905
    5MOL   H109 2997   3.122   1.580   2.202  3.0281  0.9214  0.4456
    5MOL   C110 2998   3.407   2.050   2.654 -0.3132  0.1243  0.1998
    5MOL   C111 2999   3.287   2.132   2.707  0.7518 -0.0939  0.6022
    5MOL   C112 3000   3.170   2.113   2.601 -0.2602 -0.4515  0.0325
    5MOL   C113 3001   3.043   2.199   2.621  0.3401  0.1748  0.3408
    5MOL   C114 3002   2.963   2.223   2.488 -0.2937  0.3318 -0.4091
    5MOL   C115 3003   2.882   2.103   2.443 -0.4770 -0.5276 -0.7946
    5MOL   C116 3004   2.837   2.115   2.298  0.2035 -0.0074 -0.9511
    5MOL   C117 3005   2.741   2.007   2.240  0.1044  0.1100  0.5330
    5MOL   O118 3006   2.786   1.874   2.256 -0.8262  0.3127 -0.0692
    5MOL   C119 3007   2.902   1.842   2.199  0.2171 -0.4521  0.0575
    5MOL   O120 3008   2.958   1.908   2.107  0.2478 -0.4412  0.0840
    5MOL   C121 3009   2.963   1.703   2.246  0.0250 -0.0248  0.7503
    5MOL   C122 3010   2.950   1.699   2.402 -0.3976  0.1193  0.3454
    5MOL   C123 3011   2.872   1.581   2.204 -0.0631 -0.0696  0.3234
    5MOL   H124 3012   3.497   2.071   2.713  0.4027 -0.0346 -0.8139
    5MOL   H125 3013   3.398   1.942   2.659  0.7353  0.0439  0.6155
    5MOL   H126 3014   3.424   2.075   2.549 -3.9269  0.7234 -0.2951
    5MOL   H127 3015   3.308   2.239   2.711 -0.8562  0.2553  0.4186
    5MOL   H128 3016   3.248   2.093   2.801  1.8280 -1.5137  0.4665
    5MOL   H129 3017   3.151   2.006   2.597 -1.4693 -0.2017 -2.0621
    5MOL   H130 3018   3.215   2.142   2.506 -2.3184  1.6699 -0.3662
    5MOL   H131 3019   2.965   2.156   2.684  1.5650 -1.0828  1.0333
    5MOL   H132 3020   3.067   2.279   2.691 -1.8126  0.5191  0.7232
    5MOL   H133 3021   3.029   2.258   2.408  0.2856 -0.3234 -0.2124
    5MOL   H134 3022   2.890   2.304   2.496  0.5309  1.0311  0.1322
    5MOL   H135 3023   2.925   2.005   2.460 -1.2039 -0.5663  0.9632
    5MOL   H136 3024   2.800   2.094   2.514  1.3572 -1.9807  1.1877
    5MOL   H137 3025   2.921   2.124   2.229  1.5963  1.4512  0.8795
    5MOL   H138 3026   2.785   2.210   2.288 -1.0807 -0.5414  0.4208
    5MOL   H139 3027   2.643   2.001   2.287 -1.5216 -2.5854 -2.9119
    5MOL   H140 3028   2.727   2.027   2.133  1.0944 -0.1233  0.3560
    5MOL   H141 3029   2.980   1.605   2.447  0.8211  0.1252 -0.4276
    5MOL   H142 3030   2.994   1.788   2.448  3.7592 -1.2241 -0.8227
    5MOL   H143 3031   2.845   1.704   2.429 -0.6789 -0.1801 -0.6756
    5MOL   H144 3032   2.781   1.572   2.262 -0.9329  0.7221 -0.9010
    5MOL   H145 3033   2.924   1.495   2.246  0.4121  1.0345  2.0435
    5MOL   C146 3034   2.957   0.586   1.812  0.9107 -0.3324  0.0738
    5MOL   C147 3035   2.947   0.735   1.825  0.0368 -0.1855 -0.8834
    5MOL   C148 3036   3.080   0.797   1.864  0.1522  0.6918 -0.1454
    5MOL   C149 3037   3.063   0.954   1.892 -0.3633 -0.0611  0.2558
    5MOL   C150 3038   3.192   1.015   1.966 -0.6391  0.2091  0.4310
    5MOL   C151 3039   3.174   1.157   2.027  0.0350  0.4666 -0.2204
    5MOL   C152 3040   3.167   1.257   1.917 -0.7885 -0.0768 -0.4108
    5MOL   C153 3041   3.163   1.403   1.969 -0.1503  0.1370 -0.0167
    5MOL   O154 3042   3.039   1.427   2.037 -0.0969 -0.3098 -0.3063
    5MOL   C155 3043   2.943   1.505   1.975 -0.3879 -0.1991  1.1834
    5MOL   O156 3044   2.947   1.536   1.856  0.9877 -0.1246 -0.8622
    5MOL   C157 3045   2.820   1.538   2.061  0.1757  0.6194 -0.2320
    5MOL   C158 3046   2.759   1.396   2.083  0.0437  0.2094  0.0034
    5MOL   C159 3047   2.729   1.654   1.999 -0.3517  0.1249  0.5813
    5MOL   H160 3048   3.019   0.560   1.726 -2.0449  1.0791 -2.5507
    5MOL   H161 3049   2.860   0.539   1.793  0.1132  0.7370  1.4452
    5MOL   H162 3050   2.982   0.554   1.913 -0.0739 -0.4508  0.2806
    5MOL   H163 3051   2.915   0.788   1.734 -1.9329 -0.7124 -0.5216
    5MOL   H164 3052   2.873   0.774   1.895  2.5215  0.4340  1.4822
    5MOL   H165 3053   3.138   0.786   1.772 -1.5132  1.3059 -1.2876
    5MOL   H166 3054   3.128   0.746   1.947 -0.7189  0.3025  0.1284
    5MOL   H167 3055   3.051   0.992   1.791  3.1410  1.6698  0.4355
    5MOL   H168 3056   2.976   0.981   1.952 -2.5771 -1.0012 -2.4070
    5MOL   H169 3057   3.281   1.022   1.904 -0.2473  0.7557  1.0491
    5MOL   H170 3058   3.209   0.945   2.048 -1.6772  1.0665  1.3840
    5MOL   H171 3059   3.255   1.180   2.096  0.9177  0.1603 -1.1626
    5MOL   H172 3060   3.081   1.158   2.085  1.3075  0.4320  1.8572
    5MOL   H173 3061   3.255   1.239   1.855 -0.2143  0.7099  0.1570
    5MOL   H174 3062   3.079   1.231   1.858 -0.1124 -1.9446 -0.6512
    5MOL   H175 3063   3.241   1.436   2.037 -0.7063  0.0868  0.6487
    5MOL   H176 3064   3.162   1.463   1.878 -0.9289 -0.3060 -0.3039
    5MOL   H177 3065   2.821   1.326   2.138  1.9578  3.1522  1.7661
    5MOL   H178 3066   2.739   1.348   1.987 -1.0293 -1.8999  1.2413
    5MOL   H179 3067   2.673   1.410   2.148 -0.1191  1.3574 -0.4372
    5MOL   H180 3068   2.790   1.724   1.941 -0.0335 -0.3720  0.3096
    5MOL   H181 3069   2.691   1.708   2.085 -1.4118 -0.1888  0.3203
    5MOL   C182 3070   2.544   2.105   2.878 -0.3790  0.1105 -0.1567
    5MOL   C183 3071   2.587   2.015   2.759  0.1349 -0.0581  0.5060
    5MOL   C184 3072   2.570   1.865   2.785  0.0893 -0.3820  0.2521
    5MOL   C185 3073   2.585   1.760   2.668  0.0142 -0.7231 -0.3296
    5MOL   C186 3074   2.465   1.756   2.577 -0.4055 -0.2884 -0.2110
    5MOL   C187 3075   2.486   1.673   2.446 -0.1845 -0.1941  0.2711
    5MOL   C188 3076   2.362   1.694   2.349 -0.4868  0.4463  0.2113
    5MOL   C189 3077   2.367   1.601   2.231  0.1962 -0.2265  0.3589
    5MOL   O190 3078   2.461   1.642   2.134 -0.0607  0.2015 -0.0245
    5MOL   C191 3079   2.497   1.559   2.019 -0.3715 -0.3329  0.2321
    5MOL   O192 3080   2.460   1.445   2.005 -0.4727  0.5670 -0.1281
    5MOL   C193 3081   2.595   1.622   1.925  0.3591 -0.3927  0.0884
    5MOL   C194 3082   2.627   1.536   1.800  0.2437  0.0404 -0.1739
    5MOL   C195 3083   2.539   1.762   1.882 -0.3407 -0.0652  0.3619
    5MOL   H196 3084   2.585   2.206   2.868  0.4506 -0.4212 -2.4538
    5MOL   H197 3085   2.435   2.112   2.879 -0.4723 -1.2418  2.1367
    5MOL   H198 3086   2.564   2.067   2.978 -1.5475  0.2525  0.1416
    5MOL   H199 3087   2.689   2.044   2.732 -0.4366 -0.7210 -2.4736
    5MOL   H200 3088   2.529   2.042   2.671 -3.9783 -2.2398  2.4330
    5MOL   H201 3089   2.656   1.838   2.846  1.2157  2.2920 -0.0451
    5MOL   H202 3090   2.481   1.854   2.846 -0.0791 -2.1493 -0.2765
    5MOL   H203 3091   2.677   1.777   2.612 -0.2160 -0.9816 -0.7884
    5MOL   H204 3092   2.585   1.660   2.711  0.3764 -0.1075  1.1474
    5MOL   H205 3093   2.435   1.858   2.551 -0.9741  0.4277  2.9331
    5MOL   H206 3094   2.383   1.706   2.628  0.3872 -1.7030 -0.3121
    5MOL   H207 3095   2.506   1.569   2.474 -0.0322  0.1238  1.3653
    5MOL   H208 3096   2.574   1.714   2.397  0.4327 -1.7029  0.0982
    5MOL   H209 3097   2.270   1.672   2.404  0.1730  0.0228  1.1639
    5MOL   H210 3098   2.361   1.794   2.305  2.5564 -0.2859 -1.6653
    5MOL   H211 3099   2.267   1.599   2.189 -0.7626  2.0885  2.4505
    5MOL   H212 3100   2.387   1.497   2.258 -1.9734 -0.8510 -0.3428
    5MOL   H213 3101   2.686   1.584   1.722  0.7038 -1.2092 -0.6126
    5MOL   H214 3102   2.660   1.433   1.818 -0.2052  0.4035  2.8732
    5MOL   H215 3103   2.533   1.505   1.754  0.5193 -1.8285  0.4877
    5MOL   H216 3104   2.556   1.830   1.966  1.2668 -1.4782  1.1937
    5MOL   H217 3105   2.610   1.802   1.810  0.9214  0.7911  2.0489
    5MOL   C218 3106   3.166   1.668   1.246 -0.5377 -0.0241 -0.4548
    5MOL   C219 3107   3.059   1.756   1.175  0.2793 -0.3295  0.1109
    5MOL   C220 3108   2.924   1.686   1.132  0.1103  0.3855  0.1298
    5MOL   C221 3109   2.838   1.642   1.250  0.5482  0.2373 -0.3289
    5MOL   C222 3110   2.695   1.613   1.205 -0.6257 -0.7602  0.0913
    5MOL   C223 3111   2.594   1.563   1.306  0.8958  0.4387  0.0324
    5MOL   C224 3112   2.561   1.656   1.426 -0.2406  1.4590 -0.1111
    5MOL   C225 3113   2.439   1.614   1.497 -0.0605 -0.4666 -0.0012
    5MOL   O226 3114   2.444   1.710   1.597  0.4529 -0.2988 -0.1842
    5MOL   C227 3115   2.349   1.711   1.700 -0.0686 -0.1559 -0.2272
    5MOL   O228 3116   2.248   1.647   1.694  0.8021  0.0189  0.0558
    5MOL   C229 3117   2.388   1.799   1.824 -0.9798  0.1581  0.0486
    5MOL   C230 3118   2.401   1.943   1.775  0.1234 -0.0144 -0.4065
    5MOL   C231 3119   2.273   1.787   1.933 -0.3224  0.4151  0.7496
    5MOL   H232 3120   3.135   1.600   1.325 -0.7149  0.7632  0.1543
    5MOL   H233 3121   3.250   1.725   1.285 -1.5615  1.5543 -0.5227
    5MOL   H234 3122   3.216   1.599   1.178  1.7375 -1.4063  2.5453
    5MOL   H235 3123   3.109   1.818   1.100 -1.0245  0.6343  0.0177
    5MOL   H236 3124   3.027   1.831   1.248 -0.7197 -1.1585  0.5229
    5MOL   H237 3125   2.879   1.764   1.070 -0.1208  1.0353  1.0934
    5MOL   H238 3126   2.932   1.608   1.057 -2.0302  1.2804 -1.0513
    5MOL   H239 3127   2.883   1.564   1.312  2.7439  0.6493 -1.3605
    5MOL   H240 3128   2.838   1.730   1.314  0.9539 -0.2036  0.2834
    5MOL   H241 3129   2.652   1.702   1.161  2.5803  0.4783 -0.7221
    5MOL   H242 3130   2.701   1.536   1.128 -2.2267 -2.2675  1.4340
    5MOL   H243 3131   2.505   1.529   1.252  2.3390 -0.4379 -1.8716
    5MOL   H244 3132   2.623   1.464   1.342  1.0852  0.0774 -1.0685
    5MOL   H245 3133   2.561   1.757   1.384  0.2405  0.7131 -1.9833
    5MOL   H246 3134   2.649   1.662   1.490  0.3949 -0.5202 -0.7841
    5MOL   H247 3135   2.463   1.514   1.533  0.2326 -1.4015 -2.7158
    5MOL   H248 3136   2.343   1.622   1.445 -0.4979 -1.5777  0.6130
    5MOL   H249 3137   2.495   1.946   1.720 -0.5192 -1.7890 -1.6275
    5MOL   H250 3138   2.414   2.025   1.847 -1.3312  0.4837 -0.7012
    5MOL   H251 3139   2.325   1.975   1.704 -1.4713 -3.1680 -0.1914
    5MOL   H252 3140   2.250   1.681   1.942  0.5328  0.0843 -0.7283
    5MOL   H253 3141   2.316   1.795   2.033  1.6778 -0.6316  0.0289
    5MOL   C254 3142   1.283   2.411   1.555 -0.1465 -0.1460 -0.4733
    5MOL   C255 3143   1.427   2.386   1.619  0.4084 -0.2867 -0.2430
    5MOL   C256 3144   1.497   2.271   1.545  0.0312  0.3024  0.3122
    5MOL   C257 3145   1.627   2.229   1.615  0.4868 -0.2543 -0.2724
    5MOL   C258 3146   1.716   2.139   1.533 -0.2712 -0.1201 -0.6892
    5MOL   C259 3147   1.847   2.093   1.607 -0.5787  0.3538  0.0203
    5MOL   C260 3148   1.882   1.949   1.570  0.0073 -0.6434 -0.5474
    5MOL   C261 3149   2.033   1.921   1.580 -0.4877  0.0408  0.2490
    5MOL   O262 3150   2.081   1.931   1.711  0.2351 -0.6273 -0.0263
    5MOL   C263 3151   2.046   1.838   1.805 -0.2471 -0.4591 -0.5369
    5MOL   O264 3152   1.962   1.749   1.787 -0.0705 -0.4487  0.3737
    5MOL   C265 3153   2.136   1.866   1.932  0.5034  0.4986 -0.2880
    5MOL   C266 3154   2.159   2.013   1.955 -0.9041  0.6625 -0.4266
    5MOL   C267 3155   2.062   1.806   2.063  0.1257  0.4477  1.2287
    5MOL   H268 3156   1.229   2.318   1.573  2.0689 -1.4197 -0.3284
    5MOL   H269 3157   1.231   2.498   1.597 -1.7823 -1.3500  0.0731
    5MOL   H270 3158   1.292   2.421   1.447 -0.0440  0.3617 -0.4229
    5MOL   H271 3159   1.481   2.481   1.606  1.3000 -1.0176 -2.1801
    5MOL   H272 3160   1.437   2.370   1.726  2.2967 -1.8548 -0.6209
    5MOL   H273 3161   1.501   2.304   1.442 -0.0532 -0.9578 -0.1089
    5MOL   H274 3162   1.431   2.185   1.535 -0.9776  1.0348  0.5321
    5MOL   H275 3163   1.585   2.187   1.707  0.6868 -2.2420 -1.0697
    5MOL   H276 3164   1.676   2.323   1.642  0.0252 -0.2507  0.5769
    5MOL   H277 3165   1.650   2.053   1.524 -0.8376  0.5155 -3.1857
    5MOL   H278 3166   1.734   2.165   1.428  1.4820 -2.3439 -0.9787
    5MOL   H279 3167   1.845   2.101   1.716  0.9776 -1.6293  0.2292
    5MOL   H280 3168   1.928   2.157   1.574  0.8410 -0.6740  1.4262
    5MOL   H281 3169   1.828   1.874   1.627  1.7617 -0.9597  0.7505
    5MOL   H282 3170   1.849   1.932   1.468 -1.9371 -1.5037  0.2068
    5MOL   H283 3171   2.056   1.816   1.559  1.6058  0.3729  0.7771
    5MOL   H284 3172   2.093   1.981   1.511 -0.1293 -0.8685 -0.2473
    5MOL   H285 3173   2.205   2.061   1.869 -0.7844  0.7310 -0.3226
    5MOL   H286 3174   2.065   2.066   1.969 -0.6336  1.2204 -0.7132
    5MOL   H287 3175   2.226   2.023   2.040 -0.5271 -1.4170 -0.4412
    5MOL   H288 3176   2.140   1.783   2.135  1.1844  1.2431  0.3715
    5MOL   H289 3177   2.021   1.712   2.028  0.6993  0.0678  1.5755
    5MOL   C290 3178   2.184   1.619   3.114  0.1987  0.8568  0.4738
    5MOL   C291 3179   2.061   1.606   3.024 -0.5883  0.0979 -0.2156
    5MOL   C292 3180   2.016   1.742   2.966 -0.7715  0.2844  0.2542
    5MOL   C293 3181   2.123   1.806   2.879 -0.4460  0.4247 -0.0306
    5MOL   C294 3182   2.078   1.944   2.822  0.0083  0.5079 -0.7899
    5MOL   C295 3183   2.163   2.006   2.708  0.1885 -0.3375  0.5717
    5MOL   C296 3184   2.125   1.937   2.574 -0.3446  0.2268 -0.3635
    5MOL   C297 3185   2.157   2.010   2.439 -0.3608  0.9784 -0.5793
    5MOL   O298 3186   2.113   1.934   2.327  0.1145  0.0125 -0.1506
    5MOL   C299 3187   2.019   1.985   2.233 -0.3277 -0.1055 -0.4090
    5MOL   O300 3188   1.980   2.102   2.234 -0.2798 -0.1134  0.5231
    5MOL   C301 3189   1.952   1.875   2.146  1.0975 -0.1610  0.1776
    5MOL   C302 3190   1.834   1.916   2.054 -0.1860  0.1146 -0.1559
    5MOL   C303 3191   1.895   1.765   2.244  0.0242 -0.3759  0.0573
    5MOL   H304 3192   2.186   1.702   3.185 -0.0828  0.6888  0.6782
    5MOL   H305 3193   2.270   1.634   3.049 -0.0316 -2.0494 -0.5773
    5MOL   H306 3194   2.184   1.527   3.172  3.6763  1.1659  1.1224
    5MOL   H307 3195   1.973   1.558   3.067  0.1598  0.6399  2.0392
    5MOL   H308 3196   2.082   1.537   2.942  1.0412  0.4199 -0.0891
    5MOL   H309 3197   1.986   1.812   3.043  0.3772 -0.1881  1.1422
    5MOL   H310 3198   1.935   1.743   2.893 -0.5172 -0.4323 -0.0492
    5MOL   H311 3199   2.208   1.819   2.945 -0.0714 -1.3408 -0.1214
    5MOL   H312 3200   2.150   1.739   2.797 -1.4007  2.1481 -1.7981
    5MOL   H313 3201   1.970   1.945   2.804 -0.1616 -1.2278  0.0577
    5MOL   H314 3202   2.087   2.018   2.902  1.8942 -0.1798 -0.3471
    5MOL   H315 3203   2.270   2.009   2.730  0.8688  0.5920 -2.5585
    5MOL   H316 3204   2.140   2.112   2.693 -0.1898 -0.6823 -1.3627
    5MOL   H317 3205   2.017   1.929   2.571 -0.4351  0.0255  2.4726
    5MOL   H318 3206   2.152   1.832   2.564 -0.7696  0.2478 -1.9167
    5MOL   H319 3207   2.264   2.027   2.432  0.1783 -0.5337  2.9187
    5MOL   H320 3208   2.112   2.109   2.443 -3.6356 -0.5036  2.6739
    5MOL   H321 3209   1.766   1.982   2.107  1.4356  1.7659 -0.0596
    5MOL   H322 3210   1.772   1.833   2.020 -0.1268 -0.2133  0.5198
    5MOL   H323 3211   1.849   1.983   1.970  0.8101 -2.5941 -2.2404
    5MOL   H324 3212   1.885   1.677   2.179  0.2516 -1.5890  1.6302
    5MOL   H325 3213   1.981   1.725   2.299  0.6695  1.8244  0.6669
    5MOL   C326 3214   1.454   1.078   1.449 -0.1864 -1.0119  1.0953
    5MOL   C327 3215   1.464   1.198   1.544 -0.1373 -0.3314  0.7920
    5MOL   C328 3216   1.450   1.161   1.693  0.6385  0.3474 -0.1703
    5MOL   C329 3217   1.485   1.280   1.787  0.6966  0.4261 -0.5772
    5MOL   C330 3218   1.437   1.261   1.928 -0.0141  0.2891 -0.3200
    5MOL   C331 3219   1.421   1.394   2.003 -0.3214  1.0423 -0.7624
    5MOL   C332 3220   1.553   1.458   2.055  0.1955  0.2736 -0.6662
    5MOL   C333 3221   1.515   1.590   2.130  0.0311  0.3338  0.8326
    5MOL   O334 3222   1.639   1.648   2.164  0.3576  0.0360  0.6854
    5MOL   C335 3223   1.640   1.761   2.232  0.1908 -0.7552  1.1284
    5MOL   O336 3224   1.549   1.842   2.222  0.1784  0.1456  0.2022
    5MOL   C337 3225   1.761   1.777   2.327 -0.5103  0.3927  0.2501
    5MOL   C338 3226   1.759   1.656   2.418 -0.3058  0.1805 -0.2126
    5MOL   C339 3227   1.764   1.912   2.403  0.9657 -0.3888 -0.2412
    5MOL   H340 3228   1.431   0.988   1.506 -2.2248  0.4226  2.6030
    5MOL   H341 3229   1.556   1.066   1.411 -0.7404  0.6157 -1.0227
    5MOL   H342 3230   1.383   1.105   1.371 -0.6428 -1.2229  1.4373
    5MOL   H343 3231   1.378   1.258   1.514 -0.1876 -0.3812  0.8346
    5MOL   H344 3232   1.560   1.246   1.526 -1.2194  1.4148 -0.5376
    5MOL   H345 3233   1.505   1.070   1.714 -0.6270 -0.6835 -1.2541
    5MOL   H346 3234   1.352   1.117   1.715  0.7503 -1.0655 -2.3736
    5MOL   H347 3235   1.455   1.373   1.738 -0.7254  0.0249 -0.4886
    5MOL   H348 3236   1.592   1.301   1.788  1.3071 -2.5507  0.2981
    5MOL   H349 3237   1.355   1.189   1.926  0.4759 -0.3352  1.2667
    5MOL   H350 3238   1.511   1.199   1.979 -2.0478 -2.3199 -0.3987
    5MOL   H351 3239   1.370   1.462   1.936 -4.1447  0.6687  1.6331
    5MOL   H352 3240   1.356   1.381   2.089 -0.8233  0.0964 -1.2734
    5MOL   H353 3241   1.630   1.462   1.978  0.8143  0.9587 -0.0230
    5MOL   H354 3242   1.589   1.389   2.131 -3.6095 -2.6154 -1.3491
    5MOL   H355 3243   1.456   1.655   2.065  1.4376  0.4584 -0.3417
    5MOL   H356 3244   1.461   1.566   2.222  0.7438  1.0174  1.4346
    5MOL   H357 3245   1.803   1.567   2.372  0.2677  0.7269 -0.7388
    5MOL   H358 3246   1.820   1.683   2.504 -0.5670 -0.0341  0.0416
    5MOL   H359 3247   1.663   1.620   2.455 -0.7519  1.8447  0.2664
    5MOL   H360 3248   1.866   1.934   2.436  0.7148 -0.0870  0.3389
    5MOL   H361 3249   1.747   1.985   2.325  1.7743  1.0597  0.9032
    5MOL   C362 3250   1.977   2.996   2.322 -0.5822 -0.0860  0.3125
    5MOL   C363 3251   2.003   2.894   2.207 -0.6491  0.0128  0.1138
    5MOL   C364 3252   1.955   2.750   2.212 -0.0739 -0.1329 -0.0190
    5MOL   C365 3253   2.026   2.667   2.310 -0.0863 -0.2481  0.5484
    5MOL   C366 3254   1.986   2.520   2.316  0.1022  0.1029  0.2826
    5MOL   C367 3255   1.849   2.496   2.386  0.4257  0.0722  0.0658
    5MOL   C368 3256   1.823   2.349   2.385 -0.0097  0.3009 -0.0508
    5MOL   C369 3257   1.697   2.306   2.468 -0.6812 -0.0204 -1.0473
    5MOL   O370 3258   1.669   2.170   2.461 -0.6298 -0.3825  0.0297
    5MOL   C371 3259   1.704   2.089   2.565 -0.1518 -0.4465  0.4580
    5MOL   O372 3260   1.763   2.119   2.669  0.2539 -0.0690 -0.8207
    5MOL   C373 3261   1.676   1.940   2.534  0.2804  0.0407 -0.9210
    5MOL   C374 3262   1.731   1.853   2.654 -1.0006  0.1937 -0.9985
    5MOL   C375 3263   1.523   1.912   2.505  0.2023  0.0966 -0.0517
    5MOL   H376 3264   1.987   3.098   2.286  0.6937 -0.0980  0.6183
    5MOL   H377 3265   1.878   2.980   2.366  0.2485 -1.6722  1.6731
    5MOL   H378 3266   2.049   2.983   2.403 -0.2552  1.6547  0.3086
    5MOL   H379 3267   2.108   2.904   2.181 -0.4833 -2.0923 -0.1237
    5MOL   H380 3268   1.959   2.943   2.120 -0.1808 -0.3799 -0.3507
    5MOL   H381 3269   1.954   2.704   2.113  0.0143 -0.0328 -0.0663
    5MOL   H382 3270   1.852   2.750   2.247 -0.1095 -0.1231 -0.1236
    5MOL   H383 3271   2.013   2.707   2.410 -1.8988 -1.3016  0.7550
    5MOL   H384 3272   2.128   2.658   2.273  0.1976  0.8377  1.0473
    5MOL   H385 3273   1.975   2.478   2.216 -1.4447 -0.4748  0.6673
    5MOL   H386 3274   2.069   2.471   2.367 -2.7014 -4.6942  0.6070
    5MOL   H387 3275   1.780   2.555   2.327  1.9304  2.0364  0.2307
    5MOL   H388 3276   1.859   2.538   2.486 -0.2976  2.4158 -0.8283
    5MOL   H389 3277   1.909   2.293   2.422  0.2844  0.2423 -0.8107
    5MOL   H390 3278   1.807   2.333   2.278 -1.6665  1.4616  0.0090
    5MOL   H391 3279   1.695   2.347   2.568 -1.2673 -0.5238 -0.8490
    5MOL   H392 3280   1.610   2.343   2.414 -0.3383 -0.9008 -2.2547
    5MOL   H393 3281   1.839   1.848   2.659 -1.0397  0.3966  0.0494
    5MOL   H394 3282   1.685   1.895   2.743  0.2485  1.1823 -0.8120
    5MOL   H395 3283   1.693   1.751   2.652  2.5376 -1.1869 -1.3350
    5MOL   H396 3284   1.498   1.965   2.413 -1.4900  2.9732  1.9723
    5MOL   H397 3285   1.519   1.805   2.487 -2.8283 -0.3933  3.0691
    5MOL   C398 3286   1.984   2.392   2.770 -0.3912 -0.4127  0.6442
    5MOL   C399 3287   1.945   2.459   2.896  0.4846 -0.0436 -0.0136
    5MOL   C400 3288   1.830   2.380   2.964  0.6584 -0.0440  0.9312
    5MOL   C401 3289   1.881   2.262   3.044  0.0282  0.4050  0.8202
    5MOL   C402 3290   1.761   2.175   3.105 -0.0719  0.1503 -0.0876
    5MOL   C403 3291   1.676   2.087   3.009  0.2623  0.0722  0.1860
    5MOL   C404 3292   1.537   2.045   3.057  0.7609  1.0479 -0.2224
    5MOL   C405 3293   1.469   1.939   2.965  0.7063  0.5279  0.3278
    5MOL   O406 3294   1.452   1.984   2.837 -0.2206  0.2677  0.2814
    5MOL   C407 3295   1.424   1.892   2.738 -0.4746  0.4553 -0.5497
    5MOL   O408 3296   1.437   1.770   2.757  0.2917 -0.0241 -0.1558
    5MOL   C409 3297   1.399   1.946   2.595 -0.2218 -0.6605  0.4952
    5MOL   C410 3298   1.381   2.102   2.593 -0.0383  0.4459  0.4589
    5MOL   C411 3299   1.292   1.852   2.532  0.3646 -0.5586  0.3062
    5MOL   H412 3300   1.963   2.285   2.765 -1.5109 -0.1686 -0.0510
    5MOL   H413 3301   2.093   2.393   2.759 -0.3554 -0.4693  0.9770
    5MOL   H414 3302   1.934   2.429   2.681 -0.2748 -0.4986  0.5424
    5MOL   H415 3303   1.919   2.563   2.878 -1.6893 -0.2149  1.8387
    5MOL   H416 3304   2.033   2.451   2.961  0.0215 -1.2460  0.4817
    5MOL   H417 3305   1.768   2.443   3.027 -2.4689 -1.1173 -0.9735
    5MOL   H418 3306   1.759   2.346   2.889  0.1657 -1.9345  2.2127
    5MOL   H419 3307   1.922   2.299   3.138  0.1816  1.5141  0.3265
    5MOL   H420 3308   1.948   2.197   2.989 -2.2224 -1.1335 -0.2106
    5MOL   H421 3309   1.773   2.116   3.195 -2.0321  0.2665  0.2618
    5MOL   H422 3310   1.681   2.244   3.133  0.7598  1.6027 -1.1848
    5MOL   H423 3311   1.735   1.997   2.990  1.0141  0.5287  0.3398
    5MOL   H424 3312   1.682   2.140   2.914  1.3933  1.6292  1.1053
    5MOL   H425 3313   1.545   1.995   3.154 -0.6265 -0.1421 -0.7081
    5MOL   H426 3314   1.478   2.136   3.069  0.5709  0.8641  0.2678
    5MOL   H427 3315   1.519   1.843   2.952 -0.5262  0.0010 -0.5915
    5MOL   H428 3316   1.372   1.914   3.008  0.7790 -1.7184 -0.7340
    5MOL   H429 3317   1.382   2.141   2.492 -0.4314 -1.0628 -0.1445
    5MOL   H430 3318   1.464   2.152   2.643  1.8687 -0.8456 -1.3718
    5MOL   H431 3319   1.289   2.131   2.644  0.0784 -0.0920  0.9828
    5MOL   H432 3320   1.290   1.754   2.580  1.9835 -1.2864 -1.0411
    5MOL   H433 3321   1.316   1.832   2.427  1.7461  4.6445 -0.4906
    5MOL   C434 3322   1.953   2.503   1.898  0.0935 -0.2019  0.1110
    5MOL   C435 3323   1.804   2.510   1.902  0.6073  1.1919 -0.1508
    5MOL   C436 3324   1.753   2.383   1.970 -0.0595  0.8564 -0.9194
    5MOL   C437 3325   1.604   2.383   2.016 -0.1810  0.3115  0.3053
    5MOL   C438 3326   1.560   2.240   2.073 -0.1238 -0.0729 -0.0245
    5MOL   C439 3327   1.406   2.237   2.098  0.0664  0.0566 -0.4021
    5MOL   C440 3328   1.361   2.111   2.167 -0.2175  0.6934 -0.1657
    5MOL   C441 3329   1.219   2.121   2.214  0.6169  0.0322  0.3695
    5MOL   O442 3330   1.190   2.012   2.299 -0.2739 -0.0318  0.0634
    5MOL   C443 3331   1.127   2.028   2.415 -0.1505  0.0466 -0.3910
    5MOL   O444 3332   1.084   2.139   2.449  0.1747  0.5741 -0.3041
    5MOL   C445 3333   1.139   1.903   2.519 -0.3063 -0.3638  0.5858
    5MOL   C446 3334   1.082   1.943   2.653 -0.0385 -0.4472  0.6950
    5MOL   C447 3335   1.066   1.779   2.459  0.5291 -0.7154 -0.2568
    5MOL   H448 3336   1.981   2.411   1.846 -1.2955  0.1447 -1.2750
    5MOL   H449 3337   2.006   2.487   1.992  0.2697 -0.6005 -0.0543
    5MOL   H450 3338   2.002   2.586   1.848 -1.0369 -0.0142 -0.7077
    5MOL   H451 3339   1.762   2.519   1.802  0.0943 -2.2325 -0.2774
    5MOL   H452 3340   1.774   2.592   1.967 -0.9268  0.7561 -0.2985
    5MOL   H453 3341   1.823   2.338   2.040  0.4479  1.3065 -1.1395
    5MOL   H454 3342   1.751   2.305   1.894 -1.4696 -0.3283  0.2948
    5MOL   H455 3343   1.550   2.400   1.923  1.2874 -1.8145 -0.9516
    5MOL   H456 3344   1.573   2.462   2.086 -0.2555 -0.8463  1.5940
    5MOL   H457 3345   1.595   2.170   1.997 -0.9949  0.0602 -0.5554
    5MOL   H458 3346   1.617   2.218   2.164 -0.8051  0.9204  0.6414
    5MOL   H459 3347   1.351   2.246   2.004 -2.1031  0.9112  0.9071
    5MOL   H460 3348   1.378   2.317   2.167 -0.8396 -0.6591  0.0741
    5MOL   H461 3349   1.375   2.027   2.099  1.3636 -0.1838  1.2324
    5MOL   H462 3350   1.428   2.090   2.250  0.6948  3.0950 -0.2462
    5MOL   H463 3351   1.152   2.112   2.129 -2.3126 -0.2078  2.6385
    5MOL   H464 3352   1.191   2.214   2.264  0.3891 -0.5391  1.3300
    5MOL   H465 3353   1.002   2.017   2.647 -0.0265 -0.3496  1.6690
    5MOL   H466 3354   1.048   1.863   2.718 -3.3997  0.9873  0.8239
    5MOL   H467 3355   1.157   1.991   2.716  0.1870 -0.0372  0.1206
    5MOL   H468 3356   1.135   1.712   2.406  0.8335  1.4436 -2.7186
    5MOL   H469 3357   1.040   1.726   2.550  0.6872 -0.2735  0.0445
    5MOL   C470 3358   1.043   0.994   1.619 -0.1362  0.1244 -0.1991
    5MOL   C471 3359   1.045   1.148   1.643  0.2386 -0.3999 -0.6471
    5MOL   C472 3360   1.004   1.194   1.782  0.3813 -0.0824  0.5678
    5MOL   C473 3361   0.987   1.347   1.786  0.3457 -0.1137  0.3591
    5MOL   C474 3362   0.976   1.395   1.933  0.1336 -0.2598  0.4954
    5MOL   C475 3363   0.965   1.546   1.958  0.0975 -0.2394 -0.5226
    5MOL   C476 3364   1.097   1.622   1.980 -0.1901 -0.0673 -0.4436
    5MOL   C477 3365   1.066   1.766   2.043  0.0061 -0.6422 -0.3561
    5MOL   O478 3366   1.018   1.743   2.174 -0.2565  0.2901 -0.0261
    5MOL   C479 3367   0.942   1.832   2.237  0.2941  0.3744  0.4881
    5MOL   O480 3368   0.906   1.938   2.187  0.2652  0.2707 -0.4062
    5MOL   C481 3369   0.927   1.783   2.384  0.3158 -0.2271  1.2284
    5MOL   C482 3370   0.888   1.634   2.388  0.4463 -0.7492 -0.1437
    5MOL   C483 3371   0.820   1.872   2.471 -0.1372 -0.0221  0.3586
    5MOL   H484 3372   1.122   0.947   1.678  0.1166  0.7183 -0.0684
    5MOL   H485 3373   1.063   0.973   1.514 -2.9412  2.5987 -1.2788
    5MOL   H486 3374   0.940   0.961   1.633  0.3012 -1.4201 -0.4908
    5MOL   H487 3375   1.136   1.201   1.618  0.4842 -1.6305 -2.4443
    5MOL   H488 3376   0.969   1.197   1.583 -1.8084  0.0851  2.1969
    5MOL   H489 3377   0.906   1.151   1.801  0.0917  0.1354 -0.3874
    5MOL   H490 3378   1.079   1.157   1.852  0.6959 -2.7152 -1.0496
    5MOL   H491 3379   1.076   1.394   1.744  0.7709 -1.0304  0.2218
    5MOL   H492 3380   0.897   1.387   1.739  2.4222  2.7301 -1.4379
    5MOL   H493 3381   0.888   1.344   1.974 -0.9980  1.7024  0.5565
    5MOL   H494 3382   1.051   1.351   1.999  1.9613 -0.4825 -1.6726
    5MOL   H495 3383   0.905   1.591   1.879 -2.3455 -0.1022  1.3517
    5MOL   H496 3384   0.887   1.562   2.033  0.4153 -1.2116  0.0247
    5MOL   H497 3385   1.167   1.560   2.036 -1.4294 -0.6676  0.4491
    5MOL   H498 3386   1.145   1.641   1.883  2.5228 -0.2038  0.8219
    5MOL   H499 3387   0.997   1.829   1.988  0.0730  0.8829  1.2234
    5MOL   H500 3388   1.158   1.822   2.060 -1.0329  0.4472  1.9279
    5MOL   H501 3389   0.964   1.563   2.356  0.0620  0.0454 -3.0252
    5MOL   H502 3390   0.810   1.619   2.314 -0.1797 -1.9426  0.7555
    5MOL   H503 3391   0.853   1.612   2.488  0.5765 -2.6065 -0.4892
    5MOL   H504 3392   0.828   1.847   2.576  0.6654  1.4352  0.6663
    5MOL   H505 3393   0.844   1.978   2.454  1.9149 -0.5274 -0.0205
    5MOL   C506 3394   0.478   1.385   1.537 -0.1091 -0.3753 -0.1519
    5MOL   C507 3395   0.512   1.448   1.675 -0.6379 -0.1743  0.2665
    5MOL   C508 3396   0.565   1.348   1.777 -0.2138  0.4278 -0.9464
    5MOL   C509 3397   0.607   1.411   1.911 -0.7208  0.2280 -0.1244
    5MOL   C510 3398   0.493   1.442   2.012 -0.4428 -0.1731  0.3356
    5MOL   C511 3399   0.554   1.497   2.138  0.5545  0.4062 -0.3962
    5MOL   C512 3400   0.467   1.486   2.270 -0.2624 -0.4994  0.1126
    5MOL   C513 3401   0.550   1.530   2.394  0.2104 -0.3738  0.1770
    5MOL   O514 3402   0.599   1.657   2.383 -0.2965 -0.1626  0.3856
    5MOL   C515 3403   0.598   1.738   2.485 -0.0435  0.4702  0.6587
    5MOL   O516 3404   0.543   1.715   2.600 -0.2803  0.2435 -0.1287
    5MOL   C517 3405   0.659   1.878   2.450 -0.4936 -0.5069  0.5209
    5MOL   C518 3406   0.605   1.985   2.556 -0.3220  0.0850  0.2689
    5MOL   C519 3407   0.631   1.935   2.301  0.2382 -0.2303 -0.1314
    5MOL   H520 3408   0.562   1.325   1.501 -2.3234 -2.0183 -2.6880
    5MOL   H521 3409   0.465   1.464   1.463 -0.6809 -0.8049 -0.5141
    5MOL   H522 3410   0.392   1.319   1.535  1.3259 -2.2180 -2.2068
    5MOL   H523 3411   0.424   1.503   1.709  1.7323  0.9864  4.8292
    5MOL   H524 3412   0.594   1.519   1.670 -1.6180  0.9847  0.1913
    5MOL   H525 3413   0.489   1.273   1.803 -0.0386  0.5142 -0.1674
    5MOL   H526 3414   0.641   1.290   1.725 -1.0950 -0.8964 -0.7829
    5MOL   H527 3415   0.668   1.324   1.937 -0.1799  0.7480  0.3585
    5MOL   H528 3416   0.669   1.497   1.887 -1.6742  1.0091  0.1845
    5MOL   H529 3417   0.425   1.515   1.967  0.4323 -0.7755 -2.0258
    5MOL   H530 3418   0.449   1.344   2.031 -1.0395 -0.1025 -0.6421
    5MOL   H531 3419   0.586   1.598   2.111 -0.5902  0.7965 -0.3495
    5MOL   H532 3420   0.642   1.434   2.151  1.4681  1.5949 -0.7124
    5MOL   H533 3421   0.430   1.386   2.289  4.1676 -2.5378 -1.3605
    5MOL   H534 3422   0.373   1.540   2.262 -0.5597 -1.2572 -1.7145
    5MOL   H535 3423   0.636   1.465   2.407  1.7271  1.1071 -2.3328
    5MOL   H536 3424   0.482   1.507   2.477 -0.6959 -0.3784 -0.5507
    5MOL   H537 3425   0.654   2.079   2.534  0.4097 -0.9022 -2.4744
    5MOL   H538 3426   0.614   1.958   2.662 -0.4925  1.0572  0.5322
    5MOL   H539 3427   0.497   1.994   2.543 -0.1624  0.0280 -1.0900
    5MOL   H540 3428   0.700   2.019   2.296 -0.8684  0.6025 -1.7037
    5MOL   H541 3429   0.672   1.857   2.237 -0.1872  0.4464 -1.2244
    5MOL   C542 3430   0.939   2.698   2.923 -0.6868  0.6562 -0.3742
    5MOL   C543 3431   0.876   2.686   2.777 -0.4033  0.6009 -0.2999
    5MOL   C544 3432   0.871   2.538   2.727 -0.3894 -0.3287 -0.2060
    5MOL   C545 3433   0.835   2.524   2.577  0.3290  0.4036  0.5325
    5MOL   C546 3434   0.805   2.383   2.530  0.3412  0.3474  0.1791
    5MOL   C547 3435   0.785   2.366   2.380  0.2689 -0.0334  0.6420
    5MOL   C548 3436   0.656   2.430   2.331  0.4016 -0.0861  0.3056
    5MOL   C549 3437   0.528   2.347   2.351 -0.0559  0.0473 -0.2426
    5MOL   O550 3438   0.546   2.218   2.294  0.3774  0.0029 -0.1386
    5MOL   C551 3439   0.453   2.124   2.305  0.7159 -0.1019  0.5058
    5MOL   O552 3440   0.334   2.148   2.350  0.0392 -0.4484  0.4985
    5MOL   C553 3441   0.489   1.990   2.247  0.3955  0.0698  0.6228
    5MOL   C554 3442   0.376   1.889   2.281  1.5427  0.1008 -0.0974
    5MOL   C555 3443   0.506   2.005   2.090 -0.3464 -0.0891 -0.2085
    5MOL   H556 3444   0.885   2.650   3.005 -2.1738 -0.7540 -2.1340
    5MOL   H557 3445   0.954   2.804   2.943  0.1058  0.6976 -1.2160
    5MOL   H558 3446   1.039   2.656   2.931  0.1086  3.0155  3.3476
    5MOL   H559 3447   0.775   2.727   2.764 -1.1786 -1.2051 -0.0700
    5MOL   H560 3448   0.928   2.749   2.705 -1.1793  0.0565 -1.3368
    5MOL   H561 3449   0.798   2.475   2.778 -0.2649  1.0523  1.7351
    5MOL   H562 3450   0.971   2.501   2.749  0.2616  1.7884  0.5333
    5MOL   H563 3451   0.747   2.585   2.555 -0.3044 -1.0202 -0.9336
    5MOL   H564 3452   0.924   2.561   2.525  0.2912  0.7354  0.6988
    5MOL   H565 3453   0.726   2.332   2.585  0.8809 -1.7405 -0.9194
    5MOL   H566 3454   0.899   2.330   2.545  0.7359  1.3964  1.4745
    5MOL   H567 3455   0.866   2.406   2.318 -0.6114  1.0767  0.2037
    5MOL   H568 3456   0.792   2.260   2.357  0.5132 -0.3124  1.9480
    5MOL   H569 3457   0.650   2.527   2.380 -1.7302  0.3050 -0.7043
    5MOL   H570 3458   0.668   2.442   2.223 -2.0481 -5.7634 -0.7650
    5MOL   H571 3459   0.435   2.390   2.314  0.6684  2.7021  0.9377
    5MOL   H572 3460   0.519   2.334   2.459 -1.2170  1.5414 -0.1452
    5MOL   H573 3461   0.402   1.789   2.247 -0.3506 -0.6668  0.6734
    5MOL   H574 3462   0.284   1.906   2.225  0.7794  0.1309  1.1457
    5MOL   H575 3463   0.343   1.894   2.384 -1.1300  3.2862 -1.0040
    5MOL   H576 3464   0.580   1.930   2.061 -0.2702 -0.4920  1.0208
    5MOL   H577 3465   0.558   2.098   2.068  0.6387 -0.7883 -0.8940
    5MOL   C578 3466   7.280   2.616   1.849 -0.0151  0.2390 -0.1074
    5MOL   C579 3467   7.399   2.608   1.946  0.6301  0.3957 -0.1706
    5MOL   C580 3468   7.526   2.675   1.904 -0.6363  0.8854  0.4885
    5MOL   C581 3469   7.649   2.657   1.991 -0.0173  0.8019  0.1782
    5MOL   C582 3470   7.745   2.550   1.941 -0.1236  0.4211 -0.0308
    5MOL   C583 3471   0.052   2.492   2.054 -0.0671  0.2749  0.0737
    5MOL   C584 3472   0.145   2.384   1.996 -0.1361  0.0883 -0.3337
    5MOL   C585 3473   0.222   2.305   2.108 -0.6353  0.1600 -1.1274
    5MOL   O586 3474   0.319   2.221   2.041  0.4784  0.4121 -0.6298
    5MOL   C587 3475   0.278   2.096   2.011 -0.4784 -0.2740 -0.2779
    5MOL   O588 3476   0.159   2.066   2.016 -0.1941 -0.1537  0.5844
    5MOL   C589 3477   0.393   1.996   1.975  0.2628 -0.0577 -0.1286
    5MOL   C590 3478   0.328   1.857   1.972  0.5291  0.3911  0.8927
    5MOL   C591 3479   0.449   2.039   1.831 -0.0032 -0.2567  0.1140
    5MOL   H592 3480   7.196   2.563   1.893  1.2357 -1.4585  0.2936
    5MOL   H593 3481   7.295   2.569   1.752 -1.1586  2.8058 -1.5642
    5MOL   H594 3482   7.232   2.713   1.834 -1.1767 -0.1102  1.2680
    5MOL   H595 3483   7.401   2.500   1.957 -0.9632  0.4162  0.4059
    5MOL   H596 3484   7.368   2.654   2.040  0.2692  1.0470 -0.6023
    5MOL   H597 3485   7.503   2.781   1.891  1.3140  1.1809 -0.7152
    5MOL   H598 3486   7.546   2.645   1.801 -1.8093  2.1505 -0.1284
    5MOL   H599 3487   7.612   2.636   2.091  0.4799  0.2439  0.2511
    5MOL   H600 3488   7.692   2.757   1.999  1.3645  0.5949 -3.5595
    5MOL   H601 3489   0.029   2.585   1.860  0.1756 -0.3513 -0.1259
    5MOL   H602 3490   7.676   2.480   1.894 -0.5819  0.9401 -0.1463
    5MOL   H603 3491   7.770   2.436   2.125  0.3404 -2.9537 -2.0604
    5MOL   H604 3492   0.108   2.574   2.099  2.8068 -1.4834 -0.2040
    5MOL   H605 3493   0.228   2.413   1.932  1.5671 -1.6824  1.0293
    5MOL   H606 3494   0.081   2.311   1.947  2.4787 -1.2571 -1.8064
    5MOL   H607 3495   0.285   2.378   2.158  0.0916 -2.0686  1.2894
    5MOL   H608 3496   0.155   2.267   2.185  1.2497  0.5894  0.7717
    5MOL   H609 3497   0.271   1.858   1.879 -1.0637  0.9509  1.8478
    5MOL   H610 3498   0.399   1.775   1.966  1.0131  0.7283  1.8893
    5MOL   H611 3499   0.251   1.822   2.041  1.3844 -1.6726  0.8546
    5MOL   H612 3500   0.457   2.147   1.833  1.0368 -0.2934 -1.1507
    5MOL   H613 3501   0.373   2.018   1.756 -0.7868  1.8760  0.2865
    5MOL   C614 3502   1.203   2.845   1.910  0.7984  0.1546  0.1884
    5MOL   C615 3503   1.251   2.720   1.839 -0.2850  0.2371 -0.4670
    5MOL   C616 3504   1.290   2.610   1.943  0.2029  0.4022 -0.0995
    5MOL   C617 3505   1.165   2.549   2.006  0.3128  0.0856  0.3419
    5MOL   C618 3506   1.095   2.439   1.924  0.6850 -0.0731 -0.1435
    5MOL   C619 3507   0.996   2.354   2.010 -0.5335  0.6522  0.4165
    5MOL   C620 3508   0.931   2.237   1.930  0.5585  0.4876  0.3898
    5MOL   C621 3509   0.796   2.182   1.981  0.7226 -0.6135  0.0654
    5MOL   O622 3510   0.714   2.140   1.877 -0.5182  0.2481 -0.2753
    5MOL   C623 3511   0.712   2.014   1.845 -0.1567  0.3028  0.3145
    5MOL   O624 3512   0.801   1.932   1.862 -0.3522 -0.2785  0.1296
    5MOL   C625 3513   0.584   1.984   1.765  0.3468  0.0107  0.2524
    5MOL   C626 3514   0.573   1.825   1.763 -0.2916 -0.8987  0.6284
    5MOL   C627 3515   0.608   2.048   1.618 -0.2115 -0.1362 -0.0932
    5MOL   H628 3516   1.246   2.931   1.857  1.1389 -0.5153 -0.6336
    5MOL   H629 3517   1.213   2.851   2.018  0.0707  2.3014  0.1602
    5MOL   H630 3518   1.098   2.867   1.892  1.1385  1.7568  0.0561
    5MOL   H631 3519   1.161   2.688   1.787 -1.1338  0.6466  0.7196
    5MOL   H632 3520   1.331   2.742   1.769  2.5489 -1.3456  2.1547
    5MOL   H633 3521   1.341   2.663   2.024  0.8652  0.5999 -0.6474
    5MOL   H634 3522   1.354   2.532   1.903 -1.8198 -1.3491 -0.0269
    5MOL   H635 3523   1.090   2.624   2.029 -0.3872 -0.2461 -0.8335
    5MOL   H636 3524   1.203   2.515   2.103 -0.2036 -1.6457 -0.0493
    5MOL   H637 3525   1.041   2.473   1.836  0.6814 -0.8220 -0.4284
    5MOL   H638 3526   1.179   2.380   1.890  1.3906 -0.4339  2.1543
    5MOL   H639 3527   1.038   2.314   2.103  0.3914 -0.2299 -0.3638
    5MOL   H640 3528   0.910   2.419   2.028 -0.3470  2.2069 -3.7669
    5MOL   H641 3529   0.998   2.153   1.912  0.6506  0.4517  0.8864
    5MOL   H642 3530   0.915   2.272   1.828  0.4778  0.1413  0.2838
    5MOL   H643 3531   0.811   2.103   2.055 -1.4519 -0.6003  0.5508
    5MOL   H644 3532   0.725   2.250   2.027  0.1002 -2.9728  2.7644
    5MOL   H645 3533   0.634   1.774   1.689  0.6496 -0.1927  0.9155
    5MOL   H646 3534   0.477   1.773   1.750  0.2736 -2.1271  1.2134
    5MOL   H647 3535   0.603   1.799   1.865  0.4034 -0.8492  0.4393
    5MOL   H648 3536   0.695   2.000   1.574 -0.8159 -1.4315  0.1026
    5MOL   H649 3537   0.636   2.152   1.633  0.3903 -0.1405 -1.1516
    5MOL   C650 3538   7.256   2.220   1.600 -0.6863 -0.0781 -0.3994
    5MOL   C651 3539   7.372   2.207   1.502  0.0641 -0.6836 -0.5554
    5MOL   C652 3540   7.451   2.341   1.496  0.5443  0.1877  0.2463
    5MOL   C653 3541   7.546   2.351   1.373  0.2463 -0.1772  0.6337
    5MOL   C654 3542   7.665   2.256   1.381 -0.2959  0.6328 -0.0467
    5MOL   C655 3543   7.775   2.291   1.272 -0.6976  0.9316 -0.2133
    5MOL   C656 3544   0.117   2.195   1.265 -0.3420 -0.9914 -0.8957
    5MOL   C657 3545   0.204   2.212   1.393 -0.7644  0.3063 -0.7391
    5MOL   O658 3546   0.314   2.125   1.397 -0.1098  0.1003 -0.2546
    5MOL   C659 3547   0.396   2.127   1.500  0.5496  0.4137  0.0214
    5MOL   O660 3548   0.387   2.206   1.591  0.0944  0.2970 -0.1709
    5MOL   C661 3549   0.511   2.024   1.493 -0.3552 -0.3869 -0.3601
    5MOL   C662 3550   0.456   1.883   1.497  0.0806  0.2453  0.0630
    5MOL   C663 3551   0.593   2.034   1.353  0.0071  0.2004  0.0826
    5MOL   H664 3552   7.205   2.314   1.581 -1.6803 -1.1844 -3.4982
    5MOL   H665 3553   7.298   2.229   1.700  1.5297 -0.6853 -1.2487
    5MOL   H666 3554   7.188   2.135   1.600 -3.4886  2.0998  0.0019
    5MOL   H667 3555   7.326   2.183   1.406 -1.7010  1.2935 -0.2418
    5MOL   H668 3556   7.432   2.118   1.522  0.2060 -0.8122 -1.5169
    5MOL   H669 3557   7.503   2.348   1.591  0.8367  1.3782  0.0095
    5MOL   H670 3558   7.382   2.426   1.498 -0.8805 -0.7373 -4.5842
    5MOL   H671 3559   7.570   2.457   1.363  1.6998 -0.8168 -3.7318
    5MOL   H672 3560   7.492   2.339   1.280  0.8755  3.2612 -0.2443
    5MOL   H673 3561   7.633   2.154   1.358 -0.2576  0.5941  0.0740
    5MOL   H674 3562   7.712   2.252   1.479  0.2828  1.2451 -0.2969
    5MOL   H675 3563   7.734   2.304   1.172 -3.0396  1.2092  0.7386
    5MOL   H676 3564   0.023   2.394   1.292  2.3001  0.4919 -1.8633
    5MOL   H677 3565   0.178   2.204   1.175  1.6324 -2.8995  0.1814
    5MOL   H678 3566   0.071   2.097   1.277 -1.1543 -0.6203 -0.9463
    5MOL   H679 3567   0.153   2.185   1.485  0.6750  1.3099  0.3774
    5MOL   H680 3568   0.246   2.312   1.409 -0.6926 -0.2526  2.9594
    5MOL   H681 3569   0.531   1.804   1.503 -0.1547 -0.0343 -0.7216
    5MOL   H682 3570   0.398   1.871   1.406 -1.6743 -2.0078  1.4150
    5MOL   H683 3571   0.380   1.868   1.574 -1.4350 -0.0589 -1.4738
    5MOL   H684 3572   0.655   1.945   1.354  0.6866  0.6432 -0.9916
    5MOL   H685 3573   0.519   2.022   1.273 -1.1376 -1.3602  1.3420
    5MOL   C686 3574   1.614   1.701   1.773 -0.3824 -0.5013  0.2051
    5MOL   C687 3575   1.530   1.825   1.824 -0.6605 -0.6282 -1.6352
    5MOL   C688 3576   1.391   1.826   1.762 -0.2414 -0.3614 -0.2607
    5MOL   C689 3577   1.311   1.951   1.791 -0.4782 -1.2261 -0.3711
    5MOL   C690 3578   1.168   1.953   1.731 -1.0446 -0.0171  0.2268
    5MOL   C691 3579   1.156   1.948   1.576  0.0047 -0.3874 -0.1351
    5MOL   C692 3580   1.005   1.941   1.540 -0.8835  0.5496 -0.3483
    5MOL   C693 3581   1.002   1.963   1.398 -0.3161  0.4873 -0.2247
    5MOL   O694 3582   0.883   1.998   1.348  0.1154 -0.2232  0.4707
    5MOL   C695 3583   0.835   2.123   1.368  0.6723  0.8992  0.3452
    5MOL   O696 3584   0.897   2.207   1.429  0.1374  0.3867  0.1812
    5MOL   C697 3585   0.689   2.149   1.310 -0.7016  0.9897  0.4310
    5MOL   C698 3586   0.644   2.289   1.349  0.0737  0.4055 -0.2988
    5MOL   C699 3587   0.711   2.144   1.155  0.4483  0.2557  0.2731
    5MOL   H700 3588   1.711   1.707   1.821 -0.2545  2.0704 -0.3247
    5MOL   H701 3589   1.629   1.708   1.665 -1.8805  2.3964  0.1624
    5MOL   H702 3590   1.565   1.609   1.805 -0.9724  0.2038  1.3546
    5MOL   H703 3591   1.586   1.917   1.810 -2.5406  1.1070  1.4949
    5MOL   H704 3592   1.509   1.810   1.930  0.5371  0.8310 -1.1855
    5MOL   H705 3593   1.325   1.749   1.801 -1.4380 -0.1552 -1.8503
    5MOL   H706 3594   1.389   1.810   1.654  1.1301 -3.1313  0.0891
    5MOL   H707 3595   1.368   2.033   1.747 -0.3543  0.1217  2.2297
    5MOL   H708 3596   1.315   1.966   1.899 -1.1060 -2.8709 -0.1141
    5MOL   H709 3597   1.114   2.039   1.772  2.3483  1.3986  1.9771
    5MOL   H710 3598   1.119   1.864   1.772 -0.6652 -0.1007  0.4991
    5MOL   H711 3599   1.199   2.044   1.544  1.6089 -0.6047  1.3107
    5MOL   H712 3600   1.216   1.874   1.523  0.1478  0.6767 -1.4968
    5MOL   H713 3601   0.965   1.842   1.561  1.9058 -0.4840  0.3680
    5MOL   H714 3602   0.952   2.013   1.603  2.3179  2.4692  0.3059
    5MOL   H715 3603   1.035   1.873   1.346  1.8737  2.1470 -1.8188
    5MOL   H716 3604   1.080   2.030   1.361 -0.8617  0.1076 -2.1062
    5MOL   H717 3605   0.543   2.305   1.313  0.0995  1.0587 -0.0930
    5MOL   H718 3606   0.649   2.306   1.457  0.1890  3.8672 -0.7769
    5MOL   H719 3607   0.709   2.369   1.313  0.4533  0.6862  0.9726
    5MOL   H720 3608   0.742   2.048   1.115 -3.3663 -0.2880 -1.6367
    5MOL   H721 3609   0.780   2.222   1.123  0.2330 -0.4075 -1.8822
    5MOL   H722 3610   0.613   2.168   1.113  0.8549 -1.3579 -1.6532
    6MOL     C1 3611   6.854   1.011   4.599 -0.4845  0.7862 -0.6655
    6MOL     C2 3612   6.936   1.133   4.559  0.6331  0.2242  0.6469
    6MOL     C3 3613   7.051   1.160   4.650  0.4362 -0.2345 -0.1217
    6MOL     C4 3614   7.012   1.237   4.780  0.2879 -0.1937 -0.4510
    6MOL     C5 3615   7.136   1.285   4.860 -0.4762  0.7736  0.6140
    6MOL     C6 3616   7.102   1.342   4.998 -0.2338  0.6867 -0.7003
    6MOL     C7 3617   7.228   1.368   5.086  0.1395 -0.6444 -0.1724
    6MOL     C8 3618   7.197   1.413   5.229 -0.3869 -0.2867 -0.1107
    6MOL     O9 3619   7.311   1.458   5.305 -0.3740  1.0273  0.5715
    6MOL    C10 3620   7.289   1.530   5.413 -0.0142 -0.3912  0.0210
    6MOL    O11 3621   7.180   1.566   5.460 -0.2853  0.4173  0.1376
    6MOL    C12 3622   7.417   1.590   5.471 -0.4527  0.7587  0.0676
    6MOL    C13 3623   7.417   1.742   5.437  0.2297  0.6138  0.2142
    6MOL    C14 3624   7.440   1.572   5.623  0.1642 -0.1110  0.6138
    6MOL    H15 3625   6.858   0.996   4.707 -0.2152 -1.0478 -0.9174
    6MOL    H16 3626   6.902   0.918   4.568  1.1044  0.9450  1.2163
    6MOL    H17 3627   6.750   1.009   4.567 -0.3968 -0.3881 -0.8927
    6MOL    H18 3628   6.876   1.224   4.569 -1.8896 -1.4546  1.2372
    6MOL    H19 3629   6.988   1.123   4.464  0.6104 -0.6573  0.7251
    6MOL    H20 3630   7.110   1.069   4.662  0.9283  0.1506  0.3765
    6MOL    H21 3631   7.118   1.227   4.597  1.2707 -0.8927  0.0877
    6MOL    H22 3632   6.956   1.324   4.748  1.0709  0.2070 -0.7351
    6MOL    H23 3633   6.948   1.175   4.843  0.5226 -0.3186 -0.3315
    6MOL    H24 3634   7.186   1.367   4.807  1.8984 -0.9140  0.1624
    6MOL    H25 3635   7.213   1.208   4.870  0.3193  1.4707 -0.0317
    6MOL    H26 3636   7.037   1.273   5.052  0.9248  0.4962  0.4645
    6MOL    H27 3637   7.041   1.432   4.993 -0.6740  0.3891 -0.8285
    6MOL    H28 3638   7.289   1.450   5.048  1.8663 -0.9299  1.8962
    6MOL    H29 3639   7.287   1.276   5.094 -0.6039 -0.9621  1.8238
    6MOL    H30 3640   7.160   1.327   5.286  0.3709  0.6344  1.8169
    6MOL    H31 3641   7.116   1.485   5.222 -0.5522 -0.5649 -1.0740
    6MOL    H32 3642   7.361   1.796   5.513 -0.3075  1.4752 -0.7900
    6MOL    H33 3643   7.516   1.786   5.451  0.2309  1.2582 -1.6260
    6MOL    H34 3644   7.374   1.755   5.338  2.1263  0.9019 -0.6062
    6MOL    H35 3645   7.346   1.585   5.677 -0.9088  1.1466 -1.4621
    6MOL    H36 3646   7.489   1.662   5.661  1.0634 -0.1357 -0.4635
    6MOL    H37 3647   7.497   1.544   5.413 -1.0075  1.3048 -1.1430
    6MOL    C38 3648   7.358   0.685   6.330  0.1629 -0.1727 -0.1174
    6MOL    C39 3649   7.368   0.626   6.186 -0.4157 -0.2291 -0.3791
    6MOL    C40 3650   7.423   0.715   6.069 -0.1605  0.5894 -0.3610
    6MOL    C41 3651   7.344   0.841   6.050  0.1040  0.9479  0.6099
    6MOL    C42 3652   7.338   0.894   5.910 -0.0526 -0.5600 -0.1586
    6MOL    C43 3653   7.264   1.033   5.894 -0.7691 -0.3254 -0.0748
    6MOL    C44 3654   7.253   1.072   5.745  0.4847 -0.8379  0.2106
    6MOL    C45 3655   7.214   1.218   5.730 -0.2591  0.5960 -1.0526
    6MOL    O46 3656   7.316   1.313   5.741  0.1547  0.0511 -0.6684
    6MOL    C47 3657   7.408   1.328   5.641 -0.2341 -0.0207 -0.6733
    6MOL    O48 3658   7.413   1.265   5.540 -0.0761 -0.0542 -0.1285
    6MOL    C49 3659   7.509   1.442   5.667 -0.2435  0.4048 -0.1907
    6MOL    C50 3660   7.525   1.458   5.820 -0.6517  0.0847 -0.1107
    6MOL    C51 3661   7.644   1.440   5.592  0.2792  0.4144 -0.2778
    6MOL    H52 3662   7.454   0.722   6.367 -0.1662 -0.1030  0.6568
    6MOL    H53 3663   7.314   0.616   6.401 -0.0816 -0.8475 -0.9184
    6MOL    H54 3664   7.299   0.777   6.329  1.8190  0.9202  0.3431
    6MOL    H55 3665   7.272   0.578   6.164 -0.7978 -0.6691  2.1385
    6MOL    H56 3666   7.430   0.536   6.188  1.5993  1.1663  0.8293
    6MOL    H57 3667   7.529   0.733   6.090  0.1511  2.0378 -2.9637
    6MOL    H58 3668   7.412   0.657   5.978  1.5740 -0.3783  0.0115
    6MOL    H59 3669   7.373   0.921   6.118 -0.6313  1.3323  0.4846
    6MOL    H60 3670   7.241   0.819   6.078  0.7252  0.4501  2.5997
    6MOL    H61 3671   7.439   0.907   5.871  0.3973 -1.0968  0.8015
    6MOL    H62 3672   7.296   0.816   5.847 -2.0384  0.2550  0.1173
    6MOL    H63 3673   7.164   1.015   5.935 -0.2505 -1.6146  0.6699
    6MOL    H64 3674   7.311   1.108   5.956 -0.6009 -0.0061 -0.5899
    6MOL    H65 3675   7.182   1.009   5.689 -1.9974  0.7437  1.4939
    6MOL    H66 3676   7.347   1.065   5.691 -0.4761  0.4342 -1.6874
    6MOL    H67 3677   7.135   1.244   5.801  0.3801 -1.5485  0.4961
    6MOL    H68 3678   7.171   1.226   5.630  1.3422  0.8927 -1.7337
    6MOL    H69 3679   7.576   1.371   5.861 -0.3602 -0.0931 -0.8476
    6MOL    H70 3680   7.581   1.549   5.843  1.1831 -1.6728  2.6379
    6MOL    H71 3681   7.426   1.467   5.865  0.5781  3.3296  2.1652
    6MOL    H72 3682   7.680   1.543   5.588 -1.4506  1.1263  1.5284
    6MOL    H73 3683   7.629   1.416   5.487 -0.2743 -1.1301  0.1390
    6MOL    C74 3684   0.002   2.038   5.412 -0.1497 -0.6568 -0.5298
    6MOL    C75 3685   7.733   2.108   5.541  0.3568 -0.9051  0.1020
    6MOL    C76 3686   7.657   2.026   5.640  0.2257 -0.5101  0.4941
    6MOL    C77 3687   7.723   1.900   5.694  0.0232 -0.2069  0.1203
    6MOL    C78 3688   0.062   1.939   5.784 -0.0088 -0.7295  0.9412
    6MOL    C79 3689   0.092   1.818   5.875 -0.6047 -1.2318 -0.1605
    6MOL    C80 3690   0.204   1.725   5.829 -0.2169 -0.4731  0.3430
    6MOL    C81 3691   0.170   1.577   5.857  0.0206 -0.4936  0.4046
    6MOL    O82 3692   0.095   1.512   5.751  0.2936 -0.5663 -0.1789
    6MOL    C83 3693   0.043   1.391   5.765  0.8083 -0.1380 -0.2361
    6MOL    O84 3694   0.057   1.325   5.864 -0.1818  0.3915  0.0526
    6MOL    C85 3695   7.760   1.338   5.636 -0.1717  0.1392 -0.2996
    6MOL    C86 3696   7.715   1.199   5.658  0.2409 -0.7497 -0.2952
    6MOL    C87 3697   0.087   1.338   5.519  0.0899 -0.0523 -0.1149
    6MOL    H88 3698   0.076   1.959   5.426  0.8466 -0.0406 -2.2081
    6MOL    H89 3699   0.053   2.106   5.343  2.0058 -2.2038 -0.5328
    6MOL    H90 3700   7.695   1.994   5.365  0.3110 -1.3689 -0.7199
    6MOL    H91 3701   7.668   2.191   5.512 -0.2809 -1.7085 -0.8218
    6MOL    H92 3702   0.024   2.173   5.592 -0.7444  1.6973 -1.5473
    6MOL    H93 3703   7.640   2.094   5.723  1.4986  0.1874  0.1838
    6MOL    H94 3704   7.560   2.011   5.593  0.3383  1.4207 -0.3882
    6MOL    H95 3705   7.750   1.845   5.604  0.3416  1.5400 -0.8727
    6MOL    H96 3706   7.646   1.856   5.756 -0.2400 -1.1024 -0.8337
    6MOL    H97 3707   0.146   1.983   5.729 -0.8960 -0.0555  0.1173
    6MOL    H98 3708   0.010   2.010   5.848  0.2838 -0.6686  1.1136
    6MOL    H99 3709   0.125   1.844   5.976  1.2027  0.7557 -1.2190
    6MOL   H100 3710   7.779   1.765   5.897 -0.9873 -0.5286 -0.0692
    6MOL   H101 3711   0.216   1.745   5.722  0.0773 -0.3648  0.3967
    6MOL   H102 3712   0.298   1.751   5.876  0.8258 -0.8891 -1.4472
    6MOL   H103 3713   0.101   1.567   5.940  0.9090 -0.6011  1.1309
    6MOL   H104 3714   0.255   1.509   5.869 -0.2980 -1.2592 -1.4786
    6MOL   H105 3715   7.664   1.156   5.572  1.1974 -0.8707 -0.8053
    6MOL   H106 3716   7.636   1.188   5.732 -0.9003  0.4527 -1.3219
    6MOL   H107 3717   0.013   1.136   5.702  0.2804 -1.2754 -1.1078
    6MOL   H108 3718   0.026   1.308   5.433 -0.9348  2.7836 -0.4251
    6MOL   H109 3719   0.099   1.446   5.511 -2.3619  0.2569 -0.2154
    6MOL   C110 3720   7.744   0.791   6.337  0.3498 -0.0347  0.2423
    6MOL   C111 3721   0.111   0.760   6.311 -0.4419  0.0446  0.0199
    6MOL   C112 3722   0.138   0.698   6.173 -0.5868 -0.1442 -0.7820
    6MOL   C113 3723   0.127   0.808   6.056  0.7753  0.1598 -0.2344
    6MOL   C114 3724   0.186   0.747   5.920 -0.6636  0.3377 -0.0143
    6MOL   C115 3725   0.176   0.850   5.808 -0.6431 -0.0634  0.0892
    6MOL   C116 3726   0.238   0.807   5.678 -1.5592 -0.8086 -0.2012
    6MOL   C117 3727   0.183   0.887   5.564 -0.0148 -0.3204  0.5131
    6MOL   O118 3728   0.209   1.024   5.586  0.3398 -0.5447 -0.0125
    6MOL   C119 3729   0.198   1.113   5.479  0.0711 -0.2662  0.1252
    6MOL   O120 3730   0.174   1.084   5.361 -0.5421  0.0179 -0.1643
    6MOL   C121 3731   0.225   1.261   5.515  0.4395  0.0330  0.1983
    6MOL   C122 3732   0.306   1.258   5.641  0.7248 -0.1068  0.1489
    6MOL   C123 3733   0.305   1.324   5.404 -0.7531  0.6869 -0.2195
    6MOL   H124 3734   7.731   0.856   6.424 -0.0781  1.8603 -1.2122
    6MOL   H125 3735   7.702   0.851   6.256 -0.0228  2.0933  1.9563
    6MOL   H126 3736   7.681   0.703   6.352  1.6114 -0.4478  3.4514
    6MOL   H127 3737   0.132   0.690   6.391 -0.2626  0.2450  0.1472
    6MOL   H128 3738   0.179   0.845   6.319  1.0740 -1.0018 -1.3196
    6MOL   H129 3739   0.062   0.622   6.155  0.8515 -1.2947 -2.2292
    6MOL   H130 3740   0.235   0.648   6.175 -1.0692 -1.0237  0.7748
    6MOL   H131 3741   0.018   0.817   6.053  0.4762 -1.2983  3.0898
    6MOL   H132 3742   0.178   0.901   6.079  0.6130  0.0847  0.4409
    6MOL   H133 3743   0.120   0.662   5.902  0.7652 -0.9894  0.8828
    6MOL   H134 3744   0.288   0.713   5.936 -0.3679  0.9991 -0.4978
    6MOL   H135 3745   0.072   0.869   5.783 -0.0136  0.9876 -1.7946
    6MOL   H136 3746   0.212   0.946   5.845 -0.1911  0.7569 -2.3713
    6MOL   H137 3747   0.230   0.701   5.652  0.4817 -1.1228  0.3329
    6MOL   H138 3748   0.343   0.828   5.698 -2.0377  0.1833  1.3579
    6MOL   H139 3749   0.239   0.849   5.478 -0.8919 -0.6516  0.0736
    6MOL   H140 3750   0.077   0.870   5.543 -0.3094 -0.3636  2.0259
    6MOL   H141 3751   0.400   1.203   5.635  1.2533  0.9982 -2.2499
    6MOL   H142 3752   0.330   1.358   5.674  0.5907 -0.0213 -0.0120
    6MOL   H143 3753   0.241   1.223   5.721 -0.1955  3.0865  0.8503
    6MOL   H144 3754   0.302   1.432   5.418  0.5203  0.4888  1.7005
    6MOL   H145 3755   0.242   1.316   5.315 -0.2929  1.8142 -0.6624
    6MOL   C146 3756   1.199   1.701   5.962 -0.4649  0.5256  0.0543
    6MOL   C147 3757   1.167   1.713   5.813 -0.5759  0.5451  0.9672
    6MOL   C148 3758   1.030   1.768   5.786  0.6760  0.2051 -0.1064
    6MOL   C149 3759   0.982   1.766   5.637 -0.5930 -0.0431  0.1056
    6MOL   C150 3760   0.843   1.810   5.626  0.5955 -0.2078  0.1489
    6MOL   C151 3761   0.732   1.722   5.684  0.2406 -0.0494 -0.2010
    6MOL   C152 3762   0.692   1.597   5.594  0.3700  0.2038 -0.1606
    6MOL   C153 3763   0.578   1.512   5.635 -0.2558 -0.0961 -0.1378
    6MOL   O154 3764   0.519   1.457   5.516 -0.2630 -0.7634  0.0129
    6MOL   C155 3765   0.564   1.338   5.475  0.3047 -0.3997  0.6080
    6MOL   O156 3766   0.663   1.274   5.512  0.4429  0.5480  0.2700
    6MOL   C157 3767   0.465   1.292   5.365  0.2321 -0.9268 -0.7436
    6MOL   C158 3768   0.486   1.136   5.345  0.0267 -0.1186  0.4256
    6MOL   C159 3769   0.502   1.369   5.235  0.7314  0.0627 -0.3734
    6MOL   H160 3770   1.299   1.665   5.988 -0.8979  0.0187  1.0067
    6MOL   H161 3771   1.130   1.633   6.011 -0.0340 -0.5410 -0.8035
    6MOL   H162 3772   1.184   1.799   6.007 -0.4159  0.3028  0.5520
    6MOL   H163 3773   1.240   1.779   5.766 -3.1913  3.3776  0.6377
    6MOL   H164 3774   1.173   1.614   5.768 -1.6949  0.9758 -0.1663
    6MOL   H165 3775   1.017   1.863   5.839  1.8132  0.7705 -0.8092
    6MOL   H166 3776   0.966   1.694   5.833  0.7633  0.6876  0.7882
    6MOL   H167 3777   1.040   1.838   5.579  1.4586  0.1928  2.3679
    6MOL   H168 3778   0.987   1.666   5.594  0.7731  0.9165 -2.0393
    6MOL   H169 3779   0.828   1.817   5.518  1.4150 -2.7347 -0.1680
    6MOL   H170 3780   0.841   1.906   5.679 -0.8260  1.2801 -2.5137
    6MOL   H171 3781   0.645   1.787   5.671  1.4279  1.4951 -0.5402
    6MOL   H172 3782   0.750   1.694   5.788  1.4631  1.8077  0.1119
    6MOL   H173 3783   0.676   1.642   5.495 -0.2779  0.2352 -0.0470
    6MOL   H174 3784   0.781   1.539   5.572 -0.7980 -2.1182  1.0555
    6MOL   H175 3785   0.598   1.436   5.711 -0.0508 -2.3583 -2.3813
    6MOL   H176 3786   0.501   1.578   5.675 -0.8207 -1.1539  0.5741
    6MOL   H177 3787   0.420   1.093   5.270  0.9629 -1.1145  0.1638
    6MOL   H178 3788   0.480   1.083   5.441 -0.2604 -0.6632  0.1111
    6MOL   H179 3789   0.585   1.111   5.308 -0.8576  0.3843 -2.4072
    6MOL   H180 3790   0.501   1.476   5.256 -1.4365 -0.0567  0.2294
    6MOL   H181 3791   0.413   1.368   5.171  1.0182 -1.5560 -0.7854
    6MOL   C182 3792   7.760   1.685   5.298 -0.3654 -0.1249 -0.1793
    6MOL   C183 3793   7.733   1.561   5.207  0.7260 -0.1670  0.3843
    6MOL   C184 3794   0.078   1.508   5.136  0.4592 -0.8487 -0.1551
    6MOL   C185 3795   0.059   1.387   5.039 -0.1314  0.4309 -0.0507
    6MOL   C186 3796   0.174   1.372   4.939  0.7330 -0.2576 -0.2734
    6MOL   C187 3797   0.184   1.235   4.866 -0.4710  0.0944 -0.2085
    6MOL   C188 3798   0.247   1.123   4.952  0.4476  0.1163 -0.1856
    6MOL   C189 3799   0.399   1.111   4.930  0.4242  0.3829  0.0942
    6MOL   O190 3800   0.458   1.200   5.023  0.0394 -0.0476  0.5026
    6MOL   C191 3801   0.589   1.208   5.048  0.1589 -0.2667  0.3587
    6MOL   O192 3802   0.675   1.129   5.004  0.1222 -0.5728 -0.0309
    6MOL   C193 3803   0.619   1.331   5.130  0.3242 -0.3279  0.3449
    6MOL   C194 3804   0.756   1.330   5.211 -0.3007 -0.3577  0.9130
    6MOL   C195 3805   0.620   1.460   5.037  0.0198 -0.1098 -0.4422
    6MOL   H196 3806   7.768   1.776   5.239 -0.2554  0.3718  0.5971
    6MOL   H197 3807   7.684   1.705   5.372 -0.9598 -1.0022 -0.5439
    6MOL   H198 3808   0.069   1.678   5.361 -0.2161  0.4530 -0.3168
    6MOL   H199 3809   7.662   1.600   5.134  0.5977  0.3831  0.7992
    6MOL   H200 3810   7.669   1.489   5.257 -1.3860  1.4213  0.0328
    6MOL   H201 3811   0.118   1.589   5.074  0.2250 -3.4341 -3.8268
    6MOL   H202 3812   0.149   1.479   5.213 -1.3281 -1.7966  1.1800
    6MOL   H203 3813   0.054   1.289   5.087 -0.8224  1.6138  2.4033
    6MOL   H204 3814   7.745   1.389   4.982 -0.0401 -0.8335 -0.2667
    6MOL   H205 3815   0.270   1.389   4.988  0.4550 -1.1195  0.5844
    6MOL   H206 3816   0.159   1.449   4.862  1.8694 -1.0504 -1.3074
    6MOL   H207 3817   0.251   1.242   4.780  0.6155  1.0967  0.6840
    6MOL   H208 3818   0.085   1.206   4.833  0.6707 -1.7863 -2.1257
    6MOL   H209 3819   0.216   1.136   5.056  1.6775  2.4803 -0.0674
    6MOL   H210 3820   0.195   1.030   4.931 -0.9710  1.2000 -1.5612
    6MOL   H211 3821   0.432   1.131   4.828 -0.8652 -0.2185 -0.4494
    6MOL   H212 3822   0.435   1.014   4.964  0.9748  0.4383 -0.3241
    6MOL   H213 3823   0.834   1.326   5.134 -1.1221 -3.3464  0.1809
    6MOL   H214 3824   0.766   1.415   5.278 -0.4504 -0.6028  1.2462
    6MOL   H215 3825   0.766   1.241   5.274 -2.7913 -1.3194 -0.0192
    6MOL   H216 3826   0.514   1.472   5.015  0.0362  2.2460  0.5929
    6MOL   H217 3827   0.637   1.552   5.093 -2.1000  0.4183 -0.6075
    6MOL   C218 3828   0.983   2.008   4.351 -0.3807 -0.0438  1.4279
    6MOL   C219 3829   0.906   1.889   4.296 -0.5165  0.1336  0.0513
    6MOL   C220 3830   0.896   1.767   4.391  1.1632  0.0457  0.0649
    6MOL   C221 3831   0.847   1.644   4.323  0.0073  0.9018  0.4344
    6MOL   C222 3832   0.827   1.518   4.419  0.1027  0.6705  0.2166
    6MOL   C223 3833   0.735   1.413   4.349 -0.1966 -0.1367 -0.1259
    6MOL   C224 3834   0.721   1.292   4.443  0.0901  0.6829 -0.0532
    6MOL   C225 3835   0.630   1.327   4.559 -0.2859  0.1980  0.4085
    6MOL   O226 3836   0.690   1.388   4.673 -0.1571  0.6290  0.3064
    6MOL   C227 3837   0.610   1.406   4.785  0.2021  0.2623  1.2894
    6MOL   O228 3838   0.494   1.375   4.791 -0.4250  0.0777  0.3263
    6MOL   C229 3839   0.689   1.477   4.900  0.9350  0.0963 -0.0757
    6MOL   C230 3840   0.831   1.425   4.901 -0.5710 -1.2087 -0.0765
    6MOL   C231 3841   0.701   1.625   4.858  0.0367  0.6219  0.3422
    6MOL   H232 3842   0.941   2.035   4.448 -0.1601  0.7536  1.3091
    6MOL   H233 3843   0.972   2.093   4.285  2.3748 -0.4683  0.3411
    6MOL   H234 3844   1.090   1.988   4.363 -0.0315  0.4078 -0.7830
    6MOL   H235 3845   0.959   1.860   4.205 -0.7268  0.1978 -0.0905
    6MOL   H236 3846   0.807   1.920   4.262 -0.6355  0.2819  0.5259
    6MOL   H237 3847   0.990   1.743   4.442 -0.5078 -0.9385  2.7800
    6MOL   H238 3848   0.827   1.782   4.474 -0.1073  1.3313 -1.2064
    6MOL   H239 3849   0.751   1.672   4.280  0.5227  1.7843 -0.1466
    6MOL   H240 3850   0.904   1.620   4.234 -0.3064  0.2533  0.4068
    6MOL   H241 3851   0.924   1.488   4.459 -0.2717  0.7364  1.1853
    6MOL   H242 3852   0.768   1.549   4.505 -0.6623  0.9363 -0.3952
    6MOL   H243 3853   0.638   1.458   4.327  0.1035  0.0744 -1.0388
    6MOL   H244 3854   0.779   1.383   4.254 -2.5665  0.7613 -1.5585
    6MOL   H245 3855   0.820   1.259   4.477 -0.4066 -0.0508  0.6969
    6MOL   H246 3856   0.674   1.213   4.385  0.2746 -0.5125  1.4005
    6MOL   H247 3857   0.593   1.231   4.597  1.7180 -0.4318  0.8063
    6MOL   H248 3858   0.550   1.397   4.534  0.3937  0.9151  0.2192
    6MOL   H249 3859   0.888   1.476   4.979 -1.2214 -0.8773  0.1843
    6MOL   H250 3860   0.890   1.451   4.812  0.3858  4.1060  1.9159
    6MOL   H251 3861   0.837   1.319   4.926  1.4950 -1.2212 -0.5081
    6MOL   H252 3862   0.755   1.666   4.943  2.2208 -0.6011 -0.4258
    6MOL   H253 3863   0.770   1.619   4.775 -0.4055  0.3714 -0.0094
    6MOL   C254 3864   1.553   1.816   5.100  0.6988  0.1181 -0.5388
    6MOL   C255 3865   1.565   1.766   4.957 -0.7378  0.4602  0.1658
    6MOL   C256 3866   1.469   1.839   4.870  1.1696 -0.2996 -0.0713
    6MOL   C257 3867   1.317   1.824   4.912 -0.6491 -0.2507  0.2055
    6MOL   C258 3868   1.218   1.905   4.819 -0.3929 -0.6610  0.2100
    6MOL   C259 3869   1.071   1.926   4.861 -0.2191  0.5280  0.3690
    6MOL   C260 3870   0.976   1.978   4.746  0.1319 -0.2217 -1.1965
    6MOL   C261 3871   0.829   2.006   4.794  0.5201  0.4117 -0.2287
    6MOL   O262 3872   0.762   1.885   4.793 -0.1505  0.1341  0.4256
    6MOL   C263 3873   0.641   1.867   4.850 -0.1405 -0.6678 -0.3529
    6MOL   O264 3874   0.581   1.957   4.908  0.0075  0.0995 -0.8457
    6MOL   C265 3875   0.587   1.728   4.814 -0.5753 -0.2585 -0.4108
    6MOL   C266 3876   0.456   1.705   4.895 -0.0870  0.4295  0.0555
    6MOL   C267 3877   0.566   1.729   4.659  0.9036 -0.0740  0.3220
    6MOL   H268 3878   1.460   1.770   5.134  1.8828 -1.8587  0.1065
    6MOL   H269 3879   1.643   1.793   5.156 -0.2265  0.3168  1.0647
    6MOL   H270 3880   1.548   1.925   5.101  0.7636  0.1348 -1.6995
    6MOL   H271 3881   1.662   1.788   4.914 -0.7558 -0.3399 -0.2831
    6MOL   H272 3882   1.553   1.659   4.946  0.7972  0.4709 -1.7385
    6MOL   H273 3883   1.487   1.797   4.771  0.4500  2.4496 -1.4353
    6MOL   H274 3884   1.494   1.943   4.847  1.5843 -0.9444 -2.6543
    6MOL   H275 3885   1.302   1.873   5.009 -3.2425  1.2224 -0.8922
    6MOL   H276 3886   1.290   1.722   4.937  1.7328 -0.6820  1.1687
    6MOL   H277 3887   1.254   2.002   4.784 -2.4853 -0.0352 -0.2384
    6MOL   H278 3888   1.223   1.851   4.724  0.1490 -1.6427  0.7746
    6MOL   H279 3889   1.066   1.992   4.948 -0.0023 -0.9230  1.4816
    6MOL   H280 3890   1.025   1.833   4.893 -1.3893  0.7901 -0.4709
    6MOL   H281 3891   1.015   2.073   4.711  0.7978 -0.7996 -2.0106
    6MOL   H282 3892   0.972   1.906   4.664  1.8552 -1.8106  0.0592
    6MOL   H283 3893   0.844   2.052   4.892  2.6929 -0.0379 -0.3257
    6MOL   H284 3894   0.776   2.062   4.718  0.0337 -0.5937 -0.6387
    6MOL   H285 3895   0.408   1.609   4.879 -1.7888  1.3075 -0.1297
    6MOL   H286 3896   0.478   1.725   5.000  1.9839 -3.0078  0.3424
    6MOL   H287 3897   0.379   1.778   4.871 -1.9513 -1.3825  0.4957
    6MOL   H288 3898   0.565   1.623   4.636  0.8666  0.1384 -0.6738
    6MOL   H289 3899   0.662   1.757   4.615 -0.6369  2.5817 -1.5312
    6MOL   C290 3900   7.080   1.826   5.063 -0.5959  0.2937 -0.1881
    6MOL   C291 3901   7.182   1.754   4.969 -0.1204  0.9011  0.0586
    6MOL   C292 3902   7.327   1.805   4.981 -0.4437 -0.3044  0.2410
    6MOL   C293 3903   7.420   1.746   4.878 -0.0264 -0.2344 -0.0898
    6MOL   C294 3904   7.569   1.768   4.901 -0.3619 -0.1855  0.1118
    6MOL   C295 3905   7.664   1.693   4.801 -0.2213  0.4111  0.5666
    6MOL   C296 3906   0.030   1.750   4.807 -0.0549  0.5476  0.7137
    6MOL   C297 3907   0.108   1.689   4.685  0.4181 -1.0231 -0.2502
    6MOL   O298 3908   0.225   1.772   4.666 -0.7198  0.5548  0.7017
    6MOL   C299 3909   0.325   1.719   4.589  0.0695  0.7986  0.4412
    6MOL   O300 3910   0.327   1.602   4.543  0.0608  0.0091 -0.2118
    6MOL   C301 3911   0.450   1.806   4.574 -0.0504 -0.3064  0.7487
    6MOL   C302 3912   0.432   1.953   4.630 -0.0011  1.1342  0.1381
    6MOL   C303 3913   0.492   1.814   4.421  0.1931 -0.1624 -0.7143
    6MOL   H304 3914   7.088   1.934   5.046 -1.2617  0.5895  1.2463
    6MOL   H305 3915   7.105   1.805   5.167  1.8062 -2.1371 -1.1846
    6MOL   H306 3916   6.980   1.787   5.044  0.2752 -2.0025 -0.2132
    6MOL   H307 3917   7.165   1.782   4.865  1.3688 -2.6330 -1.2343
    6MOL   H308 3918   7.180   1.646   4.983  0.3992  1.0552  1.3388
    6MOL   H309 3919   7.368   1.788   5.080  0.9254 -2.1289 -0.6278
    6MOL   H310 3920   7.331   1.913   4.964 -1.2681  0.0425  2.0777
    6MOL   H311 3921   7.411   1.637   4.875  0.1206 -0.2691  0.6541
    6MOL   H312 3922   7.401   1.778   4.776 -0.2067 -0.4828 -0.1349
    6MOL   H313 3923   7.576   1.876   4.886  0.5219 -0.0163  1.6494
    6MOL   H314 3924   7.598   1.738   5.001  1.2400 -0.5959 -0.4542
    6MOL   H315 3925   7.635   1.709   4.697  0.9525  0.7937  0.2802
    6MOL   H316 3926   7.646   1.586   4.810 -1.4084  0.4193 -1.5157
    6MOL   H317 3927   0.073   1.713   4.900  1.7779  0.8161  0.0132
    6MOL   H318 3928   0.030   1.859   4.805  2.5616  0.5914 -1.2106
    6MOL   H319 3929   0.050   1.678   4.594 -0.4207  1.5096 -0.0352
    6MOL   H320 3930   0.140   1.588   4.712 -0.0002 -1.0658  0.0896
    6MOL   H321 3931   0.398   1.957   4.734 -1.5333  2.1701 -0.3804
    6MOL   H322 3932   0.348   2.005   4.585 -0.2779 -1.3302 -2.3085
    6MOL   H323 3933   0.523   2.012   4.624  2.3549 -2.4139 -0.8082
    6MOL   H324 3934   0.577   1.881   4.424  0.6341 -0.7045 -0.9684
    6MOL   H325 3935   0.537   1.716   4.405  3.0480  0.6207  2.0378
    6MOL   C326 3936   0.913   2.019   3.955  0.3991 -0.2882 -0.2644
    6MOL   C327 3937   0.826   2.137   3.920  1.0465  0.5433  0.2165
    6MOL   C328 3938   0.714   2.160   4.029 -0.8637  0.7391 -0.5267
    6MOL   C329 3939   0.609   2.254   3.975 -0.0027 -0.4978  0.7146
    6MOL   C330 3940   0.494   2.279   4.069 -0.5929  1.0924  0.2429
    6MOL   C331 3941   0.368   2.204   4.029  0.0874  0.1933 -0.0869
    6MOL   C332 3942   0.251   2.206   4.130 -0.7930 -0.3126 -0.3895
    6MOL   C333 3943   0.300   2.193   4.277 -0.9113 -0.2728 -0.3966
    6MOL   O334 3944   0.368   2.072   4.283 -0.1613  0.1241 -0.1967
    6MOL   C335 3945   0.315   1.957   4.312 -0.3973 -0.3694 -0.2856
    6MOL   O336 3946   0.206   1.946   4.371  0.4876 -0.3489 -0.0152
    6MOL   C337 3947   0.404   1.834   4.290 -0.0014  0.1895  0.1494
    6MOL   C338 3948   0.517   1.872   4.184 -0.3993  0.2003  0.5611
    6MOL   C339 3949   0.323   1.709   4.248  0.0457 -0.5890 -0.3312
    6MOL   H340 3950   0.855   1.936   3.995  1.1466 -0.4313  0.5315
    6MOL   H341 3951   0.972   2.048   4.042  1.4506 -1.6166 -0.5089
    6MOL   H342 3952   0.975   1.989   3.870  1.5387 -1.0254  0.8162
    6MOL   H343 3953   0.790   2.109   3.821  3.8486  1.8832 -1.2418
    6MOL   H344 3954   0.884   2.230   3.919  1.3393  0.3921  1.6353
    6MOL   H345 3955   0.763   2.189   4.121 -0.2282 -3.0413  0.3700
    6MOL   H346 3956   0.669   2.061   4.038  1.6893 -0.2228  2.1208
    6MOL   H347 3957   0.584   2.228   3.872  1.8141 -1.5980  0.5223
    6MOL   H348 3958   0.668   2.345   3.968  2.0508 -1.9044 -0.6957
    6MOL   H349 3959   0.534   2.260   4.168  0.2963  1.8940  0.0427
    6MOL   H350 3960   0.477   2.387   4.062 -1.4883  0.9679  0.4080
    6MOL   H351 3961   0.338   2.235   3.929  1.7129  0.5588 -0.4813
    6MOL   H352 3962   0.399   2.100   4.017  0.6502  0.4869 -1.3013
    6MOL   H353 3963   0.170   2.139   4.101 -0.5230 -0.0185 -1.8782
    6MOL   H354 3964   0.194   2.298   4.116 -0.0267 -0.1235 -2.5664
    6MOL   H355 3965   0.370   2.272   4.303  0.6679 -1.6183 -0.4795
    6MOL   H356 3966   0.208   2.208   4.334 -0.1255  0.1038  0.7939
    6MOL   H357 3967   0.586   1.791   4.160 -1.5552 -0.9247  0.9535
    6MOL   H358 3968   0.469   1.921   4.099 -1.4540  2.2497  2.2855
    6MOL   H359 3969   0.574   1.956   4.224  0.2590 -0.0705  0.1893
    6MOL   H360 3970   0.397   1.631   4.265  1.7912  0.5464 -2.5126
    6MOL   H361 3971   0.247   1.696   4.325  0.1007 -1.1146 -0.3626
    6MOL   C362 3972   0.866   0.746   3.709  0.8629 -0.2092 -0.5171
    6MOL   C363 3973   0.832   0.894   3.752 -0.1513  0.0305  0.2077
    6MOL   C364 3974   0.695   0.901   3.820 -0.6727 -0.5179 -0.1921
    6MOL   C365 3975   0.638   1.042   3.813  0.4058  0.1398 -0.6132
    6MOL   C366 3976   0.710   1.151   3.893  0.2778 -0.0507 -0.2079
    6MOL   C367 3977   0.667   1.298   3.869  0.0279 -0.3155 -0.6898
    6MOL   C368 3978   0.542   1.338   3.957 -0.3831  0.3584 -0.5996
    6MOL   C369 3979   0.519   1.489   3.935  0.4335  0.3332  0.0561
    6MOL   O370 3980   0.428   1.545   4.028 -0.1442  0.2023 -0.3042
    6MOL   C371 3981   0.362   1.661   3.998 -0.5571  0.1321 -0.0820
    6MOL   O372 3982   0.386   1.735   3.906  0.0847 -0.4283 -0.3855
    6MOL   C373 3983   0.255   1.696   4.103 -0.6794  0.4602 -0.3083
    6MOL   C374 3984   0.178   1.821   4.070 -0.7336 -0.1845 -0.3425
    6MOL   C375 3985   0.150   1.579   4.121 -1.1884  0.1370 -0.5867
    6MOL   H376 3986   0.952   0.732   3.644  0.1502  1.0369 -1.7801
    6MOL   H377 3987   0.876   0.693   3.804 -0.1037 -0.7453 -0.7034
    6MOL   H378 3988   0.779   0.716   3.650 -0.9991  0.2441  1.8800
    6MOL   H379 3989   0.834   0.963   3.668 -0.7264 -1.5563 -1.1510
    6MOL   H380 3990   0.910   0.939   3.814  0.4500 -2.7350  1.5865
    6MOL   H381 3991   0.694   0.862   3.922 -1.0919 -0.7839 -0.2944
    6MOL   H382 3992   0.621   0.839   3.768 -0.7592 -2.0483  1.6914
    6MOL   H383 3993   0.532   1.037   3.838  0.6171 -1.2522  0.0464
    6MOL   H384 3994   0.626   1.076   3.710  0.7361  0.6730 -0.4777
    6MOL   H385 3995   0.701   1.130   4.000  0.6643 -0.1049 -0.1826
    6MOL   H386 3996   0.815   1.145   3.864 -0.0825 -2.0488 -1.1727
    6MOL   H387 3997   0.646   1.313   3.763 -0.9207 -1.4691 -0.6738
    6MOL   H388 3998   0.759   1.345   3.901 -2.1989  2.2264  2.2631
    6MOL   H389 3999   0.578   1.312   4.056 -2.9007  0.0601  0.2792
    6MOL   H390 4000   0.446   1.298   3.924  0.3501 -1.9186 -0.0478
    6MOL   H391 4001   0.612   1.544   3.952 -0.4506  1.6179  0.7946
    6MOL   H392 4002   0.475   1.507   3.837 -1.0611 -1.3222  0.4074
    6MOL   H393 4003   0.095   1.849   4.135 -1.9296 -1.2892 -1.3574
    6MOL   H394 4004   0.245   1.907   4.069  0.9238 -1.4016  1.0954
    6MOL   H395 4005   0.131   1.812   3.973  0.9940  0.4751 -1.2607
    6MOL   H396 4006   0.218   1.496   4.143 -0.4686  0.5723 -1.1699
    6MOL   H397 4007   0.099   1.594   4.216 -0.2831 -0.1789 -0.0458
    6MOL   C398 4008   7.568   2.345   4.691 -0.1514  0.1094 -0.7829
    6MOL   C399 4009   7.555   2.203   4.637  0.2246  0.4432  0.3853
    6MOL   C400 4010   7.682   2.127   4.620  0.1059 -0.2471 -0.3660
    6MOL   C401 4011   7.654   1.987   4.561 -0.1712  0.8501  0.6675
    6MOL   C402 4012   7.622   1.989   4.409  0.2637  0.0589  0.2627
    6MOL   C403 4013   7.620   1.853   4.343 -0.3732 -0.4166  0.2532
    6MOL   C404 4014   7.554   1.853   4.203 -0.6007  0.5131 -0.7761
    6MOL   C405 4015   7.524   1.719   4.140 -0.1233  0.1963 -0.2367
    6MOL   O406 4016   7.651   1.658   4.123 -0.0373 -0.3770 -0.0058
    6MOL   C407 4017   7.707   1.634   4.002 -0.1682 -0.1250  0.0761
    6MOL   O408 4018   7.661   1.673   3.895 -0.1479 -0.3491  0.0246
    6MOL   C409 4019   0.045   1.533   4.007 -0.1628  0.0086  0.3408
    6MOL   C410 4020   0.106   1.528   3.863 -0.2672  0.3885  0.3721
    6MOL   C411 4021   7.765   1.394   4.051  0.1743  0.7773  0.0164
    6MOL   H412 4022   7.621   2.354   4.786 -1.0987  1.7290 -0.3883
    6MOL   H413 4023   7.473   2.389   4.721  0.1826  1.7291 -2.0670
    6MOL   H414 4024   7.626   2.410   4.626  0.1536  0.6224 -0.0012
    6MOL   H415 4025   7.520   2.219   4.535  0.4853  0.2401  0.2598
    6MOL   H416 4026   7.483   2.144   4.693  0.6041 -0.4413 -0.0439
    6MOL   H417 4027   7.760   2.175   4.561  0.0293  1.2471  0.7372
    6MOL   H418 4028   7.722   2.120   4.722 -0.5054 -0.7984 -0.1527
    6MOL   H419 4029   7.566   1.944   4.608 -1.1202  1.4373 -0.5571
    6MOL   H420 4030   7.745   1.926   4.565 -0.4774  0.2773 -0.7331
    6MOL   H421 4031   7.525   2.037   4.399  0.3010  0.1219  0.2034
    6MOL   H422 4032   7.691   2.050   4.351 -0.2549  0.5708  0.1763
    6MOL   H423 4033   7.554   1.795   4.408 -1.0913  0.1734  0.0551
    6MOL   H424 4034   7.717   1.804   4.351 -0.7943 -0.9606  2.3088
    6MOL   H425 4035   7.458   1.905   4.202 -0.8117  0.1551  0.3942
    6MOL   H426 4036   7.619   1.909   4.136 -0.6306 -1.7695 -2.8113
    6MOL   H427 4037   7.469   1.651   4.204  2.8103  0.3130  2.4954
    6MOL   H428 4038   7.468   1.730   4.047 -2.0289  0.2903  0.8947
    6MOL   H429 4039   0.134   1.627   3.826 -0.1774  0.3823  0.4239
    6MOL   H430 4040   0.039   1.481   3.791  0.0323 -1.1197  1.0598
    6MOL   H431 4041   0.192   1.462   3.853  0.5909  1.4433  0.7055
    6MOL   H432 4042   7.710   1.417   4.142  0.9293 -0.4547  0.8000
    6MOL   H433 4043   0.064   1.337   4.102  1.3648  2.8070  0.5427
    6MOL   C434 4044   0.284   1.836   3.306  0.3501 -0.7140  0.2621
    6MOL   C435 4045   0.309   1.722   3.397  0.9275 -0.6902 -0.5597
    6MOL   C436 4046   0.208   1.603   3.383 -0.2526  0.3507 -0.3595
    6MOL   C437 4047   0.227   1.488   3.481 -0.1992 -0.6776 -0.4283
    6MOL   C438 4048   0.130   1.375   3.448  0.6090 -1.6006  0.1891
    6MOL   C439 4049   0.118   1.276   3.563 -0.6834  0.1616 -0.2229
    6MOL   C440 4050   0.011   1.167   3.545 -0.2246 -0.2125  0.3279
    6MOL   C441 4051   7.759   1.085   3.669 -0.2346 -0.3946 -0.2583
    6MOL   O442 4052   7.687   1.164   3.765  0.5064  0.5435 -0.0041
    6MOL   C443 4053   7.754   1.219   3.867 -0.6029 -0.4443  0.3962
    6MOL   O444 4054   0.092   1.201   3.888  0.2153  0.0364 -0.0711
    6MOL   C445 4055   7.668   1.300   3.968  0.2715  0.5762  0.1996
    6MOL   C446 4056   7.561   1.376   3.895  0.0614 -0.4836 -0.2431
    6MOL   C447 4057   7.593   1.198   4.065 -0.1514 -0.3913  0.8066
    6MOL   H448 4058   0.284   1.816   3.199  0.9442  1.9340 -0.2895
    6MOL   H449 4059   0.358   1.915   3.319 -0.3399 -0.0081 -0.0121
    6MOL   H450 4060   0.190   1.885   3.333 -0.0420 -0.8348 -0.8486
    6MOL   H451 4061   0.311   1.746   3.503 -0.4137  1.9578 -1.1044
    6MOL   H452 4062   0.408   1.684   3.370  1.6544  1.6304 -1.2301
    6MOL   H453 4063   0.213   1.557   3.284  2.2769 -1.0038  0.3578
    6MOL   H454 4064   0.108   1.645   3.390  0.6920  2.4388  0.8320
    6MOL   H455 4065   0.219   1.533   3.580  0.1085  2.5838 -1.8170
    6MOL   H456 4066   0.332   1.462   3.473 -0.8136 -4.0981  1.5582
    6MOL   H457 4067   0.034   1.423   3.432  0.8452 -0.5708  1.7493
    6MOL   H458 4068   0.159   1.324   3.356  0.3213  0.3977 -1.0568
    6MOL   H459 4069   0.080   1.344   3.639 -1.2272  0.3568 -0.6642
    6MOL   H460 4070   0.218   1.239   3.588 -0.6623 -0.7496 -1.5811
    6MOL   H461 4071   7.694   1.197   3.506 -0.8215 -1.1029  1.1031
    6MOL   H462 4072   0.050   1.097   3.471  1.5782  1.1225 -0.0370
    6MOL   H463 4073   0.061   1.025   3.710  1.3270  1.6522 -0.3373
    6MOL   H464 4074   7.689   1.008   3.636 -0.8157  0.4077 -0.8878
    6MOL   H465 4075   7.500   1.320   3.824 -0.5036 -1.0379  0.6690
    6MOL   H466 4076   7.484   1.409   3.965  1.8143 -0.5215  1.7686
    6MOL   H467 4077   7.596   1.459   3.833  0.5079 -0.1747  0.4106
    6MOL   H468 4078   7.669   1.167   4.138 -0.0602  0.5041  1.0996
    6MOL   H469 4079   7.536   1.260   4.134  0.4407  1.9736 -0.7521
    6MOL   C470 4080   0.292   1.187   4.486  0.3547 -0.7024  0.3671
    6MOL   C471 4081   0.363   1.121   4.367 -0.1714  0.2760  0.0526
    6MOL   C472 4082   0.328   0.975   4.363 -0.4204 -0.4741 -0.2194
    6MOL   C473 4083   0.400   0.891   4.250 -0.3482  0.1051 -0.0942
    6MOL   C474 4084   0.374   0.929   4.096  0.3706  0.6395 -0.1148
    6MOL   C475 4085   0.229   0.950   4.057  0.2569  0.5367  0.3205
    6MOL   C476 4086   0.148   0.813   4.061  0.7352 -0.5040  0.0493
    6MOL   C477 4087   0.016   0.825   3.983 -0.9567  0.0260 -0.8282
    6MOL   O478 4088   7.704   0.923   4.038 -0.8314 -0.2903  0.0892
    6MOL   C479 4089   7.595   0.962   3.969  0.1223 -0.5379  1.1576
    6MOL   O480 4090   7.563   0.921   3.852  0.1354 -0.0475 -0.5014
    6MOL   C481 4091   7.508   1.069   4.040  0.4791 -0.3845 -0.1971
    6MOL   C482 4092   7.474   1.015   4.181  0.2375  0.4203  0.0347
    6MOL   C483 4093   7.374   1.091   3.954  0.3000  0.5112 -0.6392
    6MOL   H484 4094   0.320   1.136   4.578  2.1784  0.8764  0.7182
    6MOL   H485 4095   0.184   1.192   4.474  0.3097 -0.3960  0.8789
    6MOL   H486 4096   0.315   1.294   4.489 -0.0421 -0.5655 -0.9367
    6MOL   H487 4097   0.337   1.166   4.271 -0.3945  1.1235  0.5101
    6MOL   H488 4098   0.470   1.137   4.382  0.5189  0.4742 -4.3051
    6MOL   H489 4099   0.357   0.943   4.463  1.8719 -1.4657 -1.1774
    6MOL   H490 4100   0.220   0.961   4.362 -0.3236 -1.6002  1.5697
    6MOL   H491 4101   0.507   0.885   4.269 -0.4704  1.5612  1.1506
    6MOL   H492 4102   0.364   0.790   4.267  0.2862  0.3555  3.1252
    6MOL   H493 4103   0.422   1.027   4.088  1.1855  0.3944  1.6785
    6MOL   H494 4104   0.430   0.861   4.032 -0.2423  1.0446 -1.0970
    6MOL   H495 4105   0.187   1.022   4.127  0.6784  2.0013 -0.8949
    6MOL   H496 4106   0.226   0.995   3.958 -0.8058 -0.5240 -0.1398
    6MOL   H497 4107   0.206   0.735   4.012  2.5304  1.8001 -1.6172
    6MOL   H498 4108   0.121   0.764   4.154  0.3901  0.3779  0.4230
    6MOL   H499 4109   7.745   0.731   4.005 -0.1030  0.0674  1.4505
    6MOL   H500 4110   0.029   0.843   3.876 -1.4763  2.6037 -0.5012
    6MOL   H501 4111   7.438   1.092   4.249 -0.9116 -0.8341  0.8714
    6MOL   H502 4112   7.568   0.989   4.231  1.4573  1.7984 -1.4698
    6MOL   H503 4113   7.411   0.926   4.185 -0.6265  0.9076 -2.0218
    6MOL   H504 4114   7.409   1.130   3.858  1.3318 -0.0105 -0.4837
    6MOL   H505 4115   7.342   0.989   3.932  1.3374  0.0761 -0.1380
    6MOL   C506 4116   7.000   0.184   4.746 -0.0499 -0.1402 -0.9071
    6MOL   C507 4117   6.960   0.319   4.687  0.4659  0.1360 -0.8060
    6MOL   C508 4118   7.063   0.353   4.567 -0.1035  0.3052 -0.1115
    6MOL   C509 4119   7.014   0.480   4.500 -0.2734 -0.6265 -0.8672
    6MOL   C510 4120   7.122   0.550   4.418  0.0103 -0.0238  0.8378
    6MOL   C511 4121   7.073   0.693   4.381 -0.3028 -0.1034  0.8176
    6MOL   C512 4122   7.151   0.765   4.268 -0.0293  0.0062 -0.8574
    6MOL   C513 4123   7.109   0.911   4.252  0.0765  0.1549  0.5832
    6MOL   O514 4124   7.166   0.978   4.143  0.4140  0.0667  0.0100
    6MOL   C515 4125   7.184   1.109   4.139 -0.1661  0.4934  0.0260
    6MOL   O516 4126   7.165   1.186   4.235 -0.0339  0.4511 -0.1271
    6MOL   C517 4127   7.240   1.156   4.000  0.0979  0.5141  0.7070
    6MOL   C518 4128   7.248   1.310   4.006  0.3587 -0.0528  0.4747
    6MOL   C519 4129   7.130   1.111   3.893  0.4108  0.0197  0.1925
    6MOL   H520 4130   6.930   0.146   4.821 -1.9438  0.2598 -2.4200
    6MOL   H521 4131   7.096   0.193   4.795 -0.1613  0.3139 -0.7680
    6MOL   H522 4132   7.005   0.115   4.662 -0.6699 -0.3518 -0.7741
    6MOL   H523 4133   6.966   0.394   4.766 -2.1997  1.1669 -1.5411
    6MOL   H524 4134   6.857   0.318   4.651 -0.1671 -1.8619  0.8956
    6MOL   H525 4135   7.164   0.367   4.606 -0.5574  1.7294  0.5814
    6MOL   H526 4136   7.079   0.268   4.501  2.2751 -0.7376  1.7164
    6MOL   H527 4137   6.933   0.457   4.432 -0.6819 -1.1608 -0.2038
    6MOL   H528 4138   6.977   0.550   4.575 -0.1510  1.0644 -2.3526
    6MOL   H529 4139   7.214   0.563   4.475  2.4311 -0.8230 -2.7118
    6MOL   H530 4140   7.145   0.485   4.334  0.4898 -0.1274  1.0476
    6MOL   H531 4141   7.062   0.760   4.466 -0.6137  1.6387 -0.5445
    6MOL   H532 4142   6.968   0.682   4.351 -0.7343 -2.8474  3.1193
    6MOL   H533 4143   7.142   0.707   4.176 -2.7902  1.9934 -1.9240
    6MOL   H534 4144   7.256   0.761   4.295 -0.5292  0.9651  1.3452
    6MOL   H535 4145   7.123   0.973   4.341 -1.6164  0.9059  0.3481
    6MOL   H536 4146   7.003   0.901   4.231  0.2872  0.8047 -0.8546
    6MOL   H537 4147   7.154   1.357   4.037 -1.0690 -1.6275 -1.3657
    6MOL   H538 4148   7.280   1.351   3.910  0.6992 -2.2984 -0.3904
    6MOL   H539 4149   7.318   1.339   4.084 -0.2805  1.0749  0.6411
    6MOL   H540 4150   7.171   1.129   3.794 -2.1657  0.5427 -0.8108
    6MOL   H541 4151   7.107   1.005   3.907  1.1979 -0.4630 -2.0299
    6MOL   C542 4152   6.307   1.743   3.097  0.1506 -0.1416  0.4451
    6MOL   C543 4153   6.257   1.770   3.238  0.4659  0.1482  0.5008
    6MOL   C544 4154   6.298   1.664   3.347  0.0265  0.4562  0.3314
    6MOL   C545 4155   6.445   1.683   3.395  0.0499 -0.2537 -0.0118
    6MOL   C546 4156   6.486   1.573   3.493 -0.5374 -0.5708 -0.3164
    6MOL   C547 4157   6.635   1.584   3.536  0.4171 -0.0361  0.3066
    6MOL   C548 4158   6.689   1.452   3.604 -0.5564  0.6643 -0.3872
    6MOL   C549 4159   6.824   1.457   3.683 -0.0266  0.0378 -0.9345
    6MOL   O550 4160   6.846   1.341   3.764  0.0152  0.5741  0.0808
    6MOL   C551 4161   6.980   1.305   3.793  0.1819  0.0449 -0.3861
    6MOL   O552 4162   7.082   1.361   3.755 -0.5666 -0.2442 -0.0646
    6MOL   C553 4163   6.980   1.170   3.871  0.1088 -0.1298 -0.3161
    6MOL   C554 4164   6.909   1.197   4.009 -0.1044  0.3937 -0.5002
    6MOL   C555 4165   6.897   1.063   3.798 -0.4947 -0.4714 -0.5889
    6MOL   H556 4166   6.236   1.778   3.021  1.7146 -2.3079 -2.1072
    6MOL   H557 4167   6.336   1.639   3.081 -0.0520 -0.3396  1.3283
    6MOL   H558 4168   6.403   1.794   3.097  0.9070 -1.5528  0.6855
    6MOL   H559 4169   6.273   1.872   3.273  0.0576 -0.1859  1.6946
    6MOL   H560 4170   6.150   1.750   3.250  0.7157 -1.6628 -0.1675
    6MOL   H561 4171   6.287   1.563   3.308  1.4983 -0.3469  1.9284
    6MOL   H562 4172   6.239   1.668   3.439  2.9957 -0.5341  2.3711
    6MOL   H563 4173   6.504   1.680   3.304  0.5454 -0.3149  0.3084
    6MOL   H564 4174   6.468   1.781   3.437 -1.4202  0.1147 -0.0368
    6MOL   H565 4175   6.476   1.473   3.453 -0.8881 -1.4069  1.7890
    6MOL   H566 4176   6.425   1.579   3.584 -0.8652  1.7549 -0.6380
    6MOL   H567 4177   6.700   1.601   3.451 -0.6407  0.1718 -0.4646
    6MOL   H568 4178   6.651   1.672   3.598 -0.1021  0.2363  0.0531
    6MOL   H569 4179   6.620   1.415   3.679 -0.3996 -0.1293 -0.6318
    6MOL   H570 4180   6.702   1.367   3.536  0.7496  0.0782  0.5752
    6MOL   H571 4181   6.834   1.546   3.744  1.4602 -0.3971 -0.5454
    6MOL   H572 4182   6.902   1.479   3.610  0.3911 -1.7803 -1.0599
    6MOL   H573 4183   6.933   1.117   4.079  0.2719 -0.7423 -1.9066
    6MOL   H574 4184   6.802   1.202   3.986 -0.1090  0.5699 -0.4462
    6MOL   H575 4185   6.948   1.291   4.049  2.9821  0.0759 -2.5653
    6MOL   H576 4186   6.797   1.105   3.791 -0.1447  0.2163 -1.7782
    6MOL   H577 4187   6.880   0.988   3.875 -1.3253 -0.1895 -0.4924
    6MOL   C578 4188   7.238   0.042   4.216 -0.7084  0.3554 -0.0404
    6MOL   C579 4189   7.245   0.162   4.117  0.1943  0.5752  0.0195
    6MOL   C580 4190   7.361   0.257   4.141  0.6465 -0.4985 -0.7529
    6MOL   C581 4191   7.383   0.359   4.023  0.9700 -0.1253 -0.2889
    6MOL   C582 4192   7.275   0.469   4.010  0.5425  0.3360  0.0542
    6MOL   C583 4193   7.305   0.581   3.913 -0.5011 -0.3261  0.2326
    6MOL   C584 4194   7.168   0.635   3.865  0.0551  0.3589  1.1701
    6MOL   C585 4195   7.189   0.745   3.767  0.2028  0.1797 -0.6196
    6MOL   O586 4196   7.066   0.821   3.752  0.2812 -0.3212 -0.3535
    6MOL   C587 4197   7.054   0.921   3.655 -0.1794  0.6102  0.2662
    6MOL   O588 4198   7.139   0.954   3.571  0.1849  0.6165 -0.2601
    6MOL   C589 4199   6.922   0.997   3.659  0.6585 -0.3926  0.9429
    6MOL   C590 4200   6.908   1.104   3.540 -0.5652 -0.5406 -0.6616
    6MOL   C591 4201   6.806   0.887   3.631  0.1654 -0.1163 -0.2289
    6MOL   H592 4202   7.139   7.778   4.203 -0.5745  0.4327 -1.3301
    6MOL   H593 4203   7.240   0.068   4.322 -0.1286 -0.3562  0.1313
    6MOL   H594 4204   7.322   7.756   4.195  0.0668  0.7498  1.7023
    6MOL   H595 4205   7.151   0.216   4.110 -0.5812 -0.7846 -0.3284
    6MOL   H596 4206   7.266   0.119   4.019  0.8329 -0.7799  0.7318
    6MOL   H597 4207   7.452   0.201   4.161  0.5747 -0.4751 -0.3568
    6MOL   H598 4208   7.332   0.315   4.229 -0.0284 -1.8198 -0.0871
    6MOL   H599 4209   7.385   0.304   3.929  2.5982 -2.8662  1.2682
    6MOL   H600 4210   7.473   0.419   4.031  0.2268  0.8378  1.0503
    6MOL   H601 4211   7.256   0.521   4.104  1.0817  2.0936 -0.7852
    6MOL   H602 4212   7.194   0.409   3.972  1.8999 -2.5111  1.4926
    6MOL   H603 4213   7.361   0.542   3.828  0.7640  0.0295  0.8913
    6MOL   H604 4214   7.358   0.667   3.954  0.2889 -1.0981  0.8611
    6MOL   H605 4215   7.112   0.671   3.951  0.9320  0.3625  1.7469
    6MOL   H606 4216   7.099   0.564   3.819 -0.7003  0.3784  2.2714
    6MOL   H607 4217   7.265   0.812   3.808  0.3895 -0.3099 -0.1595
    6MOL   H608 4218   7.226   0.699   3.675 -1.7220 -0.4476 -1.1039
    6MOL   H609 4219   6.983   1.183   3.549 -0.4993 -0.4831 -1.6398
    6MOL   H610 4220   6.937   1.064   3.443 -0.4518  0.5625 -1.0950
    6MOL   H611 4221   6.812   1.155   3.537  0.5543  1.5574 -2.8498
    6MOL   H612 4222   6.714   0.919   3.681  0.8865 -1.0713  1.7905
    6MOL   H613 4223   6.834   0.808   3.702  0.9923  0.4290  0.0629
    6MOL   C614 4224   5.808   0.908   3.352 -0.0693  0.3157  0.0527
    6MOL   C615 4225   5.836   0.762   3.362 -0.0657 -0.4148  0.0805
    6MOL   C616 4226   5.974   0.713   3.337  0.3937  0.2462 -0.3166
    6MOL   C617 4227   6.084   0.776   3.425 -0.5583  0.1975 -0.3879
    6MOL   C618 4228   6.161   0.877   3.339 -0.4307 -0.6856 -0.1030
    6MOL   C619 4229   6.287   0.923   3.418  0.2127  1.0687  0.6585
    6MOL   C620 4230   6.374   1.005   3.314 -0.2686  0.4704  0.1554
    6MOL   C621 4231   6.503   1.059   3.380  0.1174 -0.0254 -0.9663
    6MOL   O622 4232   6.579   0.958   3.448  0.1019  0.5112 -0.5960
    6MOL   C623 4233   6.696   0.918   3.405 -0.4841  0.3248 -0.1829
    6MOL   O624 4234   6.744   0.961   3.299 -0.2014  0.2989 -0.2974
    6MOL   C625 4235   6.772   0.819   3.491 -0.1864 -0.2433 -0.2406
    6MOL   C626 4236   6.902   0.767   3.417  0.5387  0.1268 -0.7050
    6MOL   C627 4237   6.688   0.700   3.538  0.7816 -0.0407  0.9196
    6MOL   H628 4238   5.714   0.942   3.395 -1.0837 -4.5588  2.0098
    6MOL   H629 4239   5.796   0.927   3.245  0.0134  0.7527  0.1204
    6MOL   H630 4240   5.882   0.968   3.405 -0.2265 -0.4100  1.1148
    6MOL   H631 4241   5.822   0.737   3.467 -0.5204 -2.8468 -0.5078
    6MOL   H632 4242   5.773   0.700   3.297 -1.0599  1.0330 -0.3576
    6MOL   H633 4243   6.001   0.729   3.232  0.9926 -2.7846 -0.6555
    6MOL   H634 4244   5.974   0.605   3.353 -1.5007  0.1700 -0.6437
    6MOL   H635 4245   6.156   0.699   3.452 -2.2157 -1.2268 -0.0072
    6MOL   H636 4246   6.054   0.823   3.519 -0.0726 -0.8965  0.3221
    6MOL   H637 4247   6.202   0.835   3.247 -0.2013  1.2484 -0.8946
    6MOL   H638 4248   6.107   0.968   3.314 -0.3555 -1.2853 -2.6165
    6MOL   H639 4249   6.238   0.986   3.493  1.1554  2.1276  0.3960
    6MOL   H640 4250   6.336   0.836   3.462  0.5988 -0.1320 -2.0652
    6MOL   H641 4251   6.311   1.089   3.284 -1.5084 -1.4758 -2.9343
    6MOL   H642 4252   6.390   0.945   3.225 -0.7887 -0.7309  0.8631
    6MOL   H643 4253   6.568   1.109   3.309 -0.7147  0.7086 -1.2192
    6MOL   H644 4254   6.487   1.138   3.454  0.2915  0.0851 -1.0467
    6MOL   H645 4255   6.951   0.690   3.477 -2.3291 -1.1847  0.0204
    6MOL   H646 4256   6.967   0.852   3.393 -0.2960  0.1892 -2.8545
    6MOL   H647 4257   6.894   0.732   3.314 -4.0604  0.8987 -0.7069
    6MOL   H648 4258   6.600   0.747   3.582  1.7804  2.6158  0.1192
    6MOL   H649 4259   6.736   0.650   3.623  1.7200 -2.0881 -0.7471
    6MOL   C650 4260   6.634   7.382   3.548 -0.1604  0.3239  0.3416
    6MOL   C651 4261   6.598   7.530   3.573 -0.6296  0.1388  0.3230
    6MOL   C652 4262   6.668   7.621   3.470 -0.0112 -0.6696 -0.0671
    6MOL   C653 4263   6.637   7.767   3.492 -0.6723 -0.6428 -0.6563
    6MOL   C654 4264   6.496   0.028   3.472  0.3111  0.5263  0.0593
    6MOL   C655 4265   6.479   0.174   3.503  0.1466 -0.0534  0.4777
    6MOL   C656 4266   6.464   0.211   3.652  0.0526  0.1585 -0.7145
    6MOL   C657 4267   6.448   0.362   3.672  0.0377 -0.3550 -0.1077
    6MOL   O658 4268   6.556   0.433   3.613 -0.1203 -0.3180 -0.0206
    6MOL   C659 4269   6.526   0.518   3.517 -0.3608  0.3713  0.1210
    6MOL   O660 4270   6.415   0.558   3.493  0.4989 -0.1844 -0.0842
    6MOL   C661 4271   6.649   0.580   3.445 -0.1213  0.4858  1.2895
    6MOL   C662 4272   6.771   0.485   3.433  1.1873  0.0517 -0.9876
    6MOL   C663 4273   6.611   0.626   3.299 -0.3381  0.2963  0.6795
    6MOL   H664 4274   6.742   7.365   3.552 -0.3205 -0.5758  0.8683
    6MOL   H665 4275   6.603   7.360   3.446 -0.5411 -0.0099  0.5308
    6MOL   H666 4276   6.588   7.323   3.627  0.1360  1.4090  1.3520
    6MOL   H667 4277   6.650   7.548   3.667 -1.7738 -0.1448  1.0248
    6MOL   H668 4278   6.490   7.543   3.580 -0.7047  1.3179 -2.2534
    6MOL   H669 4279   6.627   7.598   3.371 -0.1336  0.8308 -0.3807
    6MOL   H670 4280   6.774   7.600   3.461 -0.1844 -1.1049 -1.1620
    6MOL   H671 4281   6.702   0.035   3.418  0.7053 -1.2720  0.1201
    6MOL   H672 4282   6.684   0.016   3.587 -0.2662  1.3987 -1.4362
    6MOL   H673 4283   6.437   7.753   3.545 -1.2197  1.1273 -0.7137
    6MOL   H674 4284   6.452   7.767   3.381  0.5994 -0.0681  0.1866
    6MOL   H675 4285   6.557   0.231   3.452  0.4680 -0.7158  0.2319
    6MOL   H676 4286   6.385   0.200   3.454  0.9116  0.3149 -0.8291
    6MOL   H677 4287   6.543   0.174   3.718 -1.5230 -0.5300  0.8138
    6MOL   H678 4288   6.377   0.155   3.685  0.4057 -1.5463 -2.5268
    6MOL   H679 4289   6.437   0.387   3.778  1.4232  2.6301 -0.5985
    6MOL   H680 4290   6.348   0.395   3.645 -0.4403 -2.1139 -0.5370
    6MOL   H681 4291   6.844   0.522   3.361  0.6196  2.1563 -0.5088
    6MOL   H682 4292   6.737   0.385   3.407  1.2766  0.1788 -1.6179
    6MOL   H683 4293   6.831   0.471   3.523  1.2629  1.6145 -0.7784
    6MOL   H684 4294   6.519   0.684   3.314 -1.0710 -0.2747 -1.4958
    6MOL   H685 4295   6.676   0.704   3.258 -0.9061  0.5360  0.2341
    6MOL   C686 4296   5.759   0.769   2.940 -0.0108  0.5759  0.0917
    6MOL   C687 4297   5.902   0.705   2.936 -0.1710 -0.5155 -0.5177
    6MOL   C688 4298   5.899   0.568   2.868 -0.5541  0.3905 -0.0601
    6MOL   C689 4299   6.026   0.484   2.898  0.0809  0.1791  0.1330
    6MOL   C690 4300   6.128   0.517   2.785  0.7305  0.2471 -0.3268
    6MOL   C691 4301   6.259   0.451   2.811 -0.3847  0.0879 -0.0534
    6MOL   C692 4302   6.377   0.533   2.743  1.1035  0.0963 -0.1954
    6MOL   C693 4303   6.443   0.632   2.846  0.0630  0.1095  0.2152
    6MOL   O694 4304   6.508   0.556   2.950  0.3644  0.3249  0.4173
    6MOL   C695 4305   6.511   0.618   3.069  0.4116  0.4149  0.0354
    6MOL   O696 4306   6.476   0.737   3.095 -0.1600 -0.6853  0.1593
    6MOL   C697 4307   6.580   0.531   3.179  0.3922  0.2447  0.3901
    6MOL   C698 4308   6.482   0.419   3.209  0.3174  0.4455  1.4182
    6MOL   C699 4309   6.703   0.478   3.114 -0.2973  0.4337  0.4976
    6MOL   H700 4310   5.687   0.737   2.865  0.6599 -3.2473  0.9763
    6MOL   H701 4311   5.759   0.878   2.937  1.6705  0.6144  0.9476
    6MOL   H702 4312   5.713   0.731   3.032 -0.3213 -2.7169 -1.3706
    6MOL   H703 4313   5.942   0.714   3.037 -1.4396  0.8265 -0.1102
    6MOL   H704 4314   5.960   0.775   2.875 -0.0866 -0.0602  0.0823
    6MOL   H705 4315   5.864   0.570   2.765  0.5331  0.7942 -0.4217
    6MOL   H706 4316   5.816   0.517   2.918 -1.4952  2.4905  0.5873
    6MOL   H707 4317   6.008   0.376   2.896 -0.7889  0.3344 -1.1463
    6MOL   H708 4318   6.064   0.499   2.999  2.0498 -0.5875 -0.4651
    6MOL   H709 4319   6.146   0.623   2.795  2.7841 -0.1746  0.5145
    6MOL   H710 4320   6.094   0.505   2.682 -1.3263  0.5159  0.2843
    6MOL   H711 4321   6.282   0.439   2.917 -1.4975 -1.4301  0.0275
    6MOL   H712 4322   6.267   0.350   2.771  0.9084  0.5686 -1.0443
    6MOL   H713 4323   6.449   0.459   2.710  0.6658 -0.9968  1.2599
    6MOL   H714 4324   6.344   0.589   2.655  2.4106  1.4633  0.1546
    6MOL   H715 4325   6.362   0.693   2.886  0.2162 -0.0977  0.8479
    6MOL   H716 4326   6.506   0.703   2.793  0.5263 -2.0461 -2.2445
    6MOL   H717 4327   6.524   0.356   3.288 -0.0175 -0.7627  0.6419
    6MOL   H718 4328   6.383   0.461   3.225 -0.7768 -1.5546  0.0857
    6MOL   H719 4329   6.478   0.350   3.125  1.7625  1.9790  0.0655
    6MOL   H720 4330   6.676   0.414   3.031  0.4483  3.2399 -1.9747
    6MOL   H721 4331   6.769   0.427   3.185 -0.5866 -1.4223 -0.5346
    6MOL   H722 4332   6.755   0.560   3.066 -1.1083  0.8121  0.2750
    7MOL     C1 4333   3.416   2.948   4.844  0.0857 -0.1190  0.4484
    7MOL     C2 4334   3.390   3.059   4.733  0.8091 -0.1080  0.6980
    7MOL     C3 4335   3.451   3.193   4.754  0.7703  0.1214  0.3099
    7MOL     C4 4336   3.499   3.274   4.626  0.0728  0.4575  0.0531
    7MOL     C5 4337   3.593   3.390   4.663 -0.5548  0.0447 -0.7859
    7MOL     C6 4338   3.649   3.474   4.548 -0.1457  0.0995  0.2132
    7MOL     C7 4339   3.737   3.600   4.600  0.1380 -0.0821  0.1735
    7MOL     C8 4340   3.808   3.658   4.480 -0.0202 -0.0096  0.6835
    7MOL     O9 4341   3.858   3.776   4.524 -0.5012 -0.0818  0.3786
    7MOL    C10 4342   3.915   3.862   4.440 -0.3118  0.1755 -0.3931
    7MOL    O11 4343   3.921   3.849   4.318  0.4234 -0.0810 -0.5849
    7MOL    C12 4344   3.974   3.985   4.518  0.4138 -0.3862 -0.7665
    7MOL    C13 4345   3.859   4.044   4.603 -0.4749  0.0471  0.6664
    7MOL    C14 4346   4.092   3.946   4.610 -0.2392  0.1638 -0.4712
    7MOL    H15 4347   3.500   2.883   4.821 -0.3798 -0.2498 -0.9077
    7MOL    H16 4348   3.335   2.875   4.844 -1.8964  1.9612  3.1751
    7MOL    H17 4349   3.429   2.988   4.945  0.2401 -1.1803  0.8512
    7MOL    H18 4350   3.285   3.087   4.742  0.9385  0.4000  0.6198
    7MOL    H19 4351   3.397   3.030   4.628 -1.1048  0.3151  0.4248
    7MOL    H20 4352   3.384   3.248   4.819 -0.3023 -0.7328 -0.0654
    7MOL    H21 4353   3.542   3.177   4.813 -1.4758 -1.6976  3.3794
    7MOL    H22 4354   3.550   3.206   4.557 -1.4312 -0.6648  0.0279
    7MOL    H23 4355   3.413   3.324   4.581  1.0817  2.3942  0.2469
    7MOL    H24 4356   3.673   3.353   4.726 -0.2450 -0.1273 -1.2809
    7MOL    H25 4357   3.542   3.456   4.734 -1.4871 -1.5252  0.0298
    7MOL    H26 4358   3.567   3.505   4.483 -1.5518 -1.6392  1.1025
    7MOL    H27 4359   3.707   3.402   4.491  2.5434  1.7837  0.7330
    7MOL    H28 4360   3.799   3.567   4.683 -0.7978  1.4942  1.5490
    7MOL    H29 4361   3.677   3.680   4.644  0.4974  0.1557  0.2411
    7MOL    H30 4362   3.729   3.684   4.409 -0.0650  0.1985  0.8082
    7MOL    H31 4363   3.885   3.595   4.436 -0.3292  1.3646 -1.8993
    7MOL    H32 4364   3.865   4.152   4.587  2.0488 -0.3056 -1.2524
    7MOL    H33 4365   3.763   4.033   4.553  0.3512  0.6024 -1.1077
    7MOL    H34 4366   3.857   4.020   4.709  1.7112 -1.9083  0.3157
    7MOL    H35 4367   4.071   3.856   4.667  1.2121 -0.2788 -0.6183
    7MOL    H36 4368   4.101   4.025   4.685 -1.6054  0.2436 -0.3717
    7MOL    H37 4369   3.981   4.064   4.443 -0.9844  2.3690  1.8686
    7MOL    C38 4370   4.685   5.097   4.514  0.4809 -0.6535 -0.5308
    7MOL    C39 4371   4.598   4.994   4.445 -0.5985 -0.2496 -0.1359
    7MOL    C40 4372   4.580   4.864   4.524 -0.2780  0.4444 -0.0094
    7MOL    C41 4373   4.509   4.753   4.434 -0.7141 -0.4562 -0.5575
    7MOL    C42 4374   4.518   4.606   4.494 -0.5381  0.0755  0.6490
    7MOL    C43 4375   4.400   4.514   4.448  0.5551  0.4713 -0.6617
    7MOL    C44 4376   4.359   4.397   4.541  0.2670 -0.2723  0.1525
    7MOL    C45 4377   4.237   4.326   4.482 -0.0833 -0.0832  0.0425
    7MOL    O46 4378   4.232   4.190   4.537  0.0048  0.4680 -0.5895
    7MOL    C47 4379   4.262   4.078   4.468  0.3542 -0.4449 -0.3023
    7MOL    O48 4380   4.305   4.064   4.354  0.2611  0.2008 -0.0725
    7MOL    C49 4381   4.242   3.948   4.551  0.1433 -0.6119 -0.1356
    7MOL    C50 4382   4.255   3.823   4.464  0.2325  0.0446  0.5265
    7MOL    C51 4383   4.333   3.953   4.679 -0.1337 -0.1939 -0.4876
    7MOL    H52 4384   4.778   5.041   4.530 -0.9068 -2.4465  1.4644
    7MOL    H53 4385   4.643   5.128   4.609  2.6291  0.8505 -0.0268
    7MOL    H54 4386   4.707   5.182   4.449 -1.8311  0.6737  0.3844
    7MOL    H55 4387   4.644   4.970   4.349 -1.6477 -0.9397 -0.4806
    7MOL    H56 4388   4.502   5.037   4.417 -0.6577 -1.0801 -1.2200
    7MOL    H57 4389   4.682   4.834   4.545 -0.8957 -1.7906 -0.0319
    7MOL    H58 4390   4.529   4.889   4.617 -0.9560 -0.9561  0.0060
    7MOL    H59 4391   4.570   4.756   4.343  0.1027  0.2003 -0.0027
    7MOL    H60 4392   4.405   4.780   4.418 -1.1639 -2.2059 -0.7637
    7MOL    H61 4393   4.613   4.564   4.462  0.4314  2.8330 -0.2316
    7MOL    H62 4394   4.520   4.590   4.602  0.1132 -2.4986  0.2712
    7MOL    H63 4395   4.308   4.572   4.441  0.9645  1.5392  2.0475
    7MOL    H64 4396   4.421   4.480   4.347  0.2721 -0.6010 -0.3610
    7MOL    H65 4397   4.345   4.423   4.646 -1.2356  0.7834 -0.2933
    7MOL    H66 4398   4.440   4.325   4.530  0.8411  0.6484 -1.8974
    7MOL    H67 4399   4.253   4.327   4.374  3.9269 -1.3219  0.5140
    7MOL    H68 4400   4.147   4.383   4.503 -1.1886 -1.4587 -0.8506
    7MOL    H69 4401   4.350   3.824   4.410 -0.0515  2.5851 -0.0145
    7MOL    H70 4402   4.244   3.734   4.525 -1.1218  0.7572  1.3432
    7MOL    H71 4403   4.175   3.817   4.390 -1.1800  1.2990  1.8999
    7MOL    H72 4404   4.280   3.888   4.749 -1.3780  0.8869 -0.4045
    7MOL    H73 4405   4.330   4.057   4.710 -1.1389  0.7172 -3.4813
    7MOL    C74 4406   4.809   2.877   4.687  0.3889  0.1388  0.3459
    7MOL    C75 4407   4.832   2.912   4.835  0.1180 -1.0640  0.0558
    7MOL    C76 4408   4.823   3.066   4.848  0.3965 -0.0440 -0.1349
    7MOL    C77 4409   4.688   3.128   4.829  0.4703 -0.5875 -0.0684
    7MOL    C78 4410   4.667   3.278   4.860  0.2360  0.0515 -0.7376
    7MOL    C79 4411   4.706   3.368   4.741 -0.1260 -0.4475  0.3337
    7MOL    C80 4412   4.682   3.514   4.768  0.0035  0.5460  0.1467
    7MOL    C81 4413   4.693   3.593   4.637  0.1050  0.4347 -1.0662
    7MOL    O82 4414   4.654   3.731   4.651  0.9940  0.2970 -0.8335
    7MOL    C83 4415   4.521   3.760   4.668 -0.5854 -0.4606 -0.1089
    7MOL    O84 4416   4.432   3.678   4.677 -0.3621 -0.6591  0.4291
    7MOL    C85 4417   4.489   3.912   4.673  0.3902  0.0763 -0.1578
    7MOL    C86 4418   4.556   3.979   4.550 -0.3228  0.1920 -0.5055
    7MOL    C87 4419   4.566   3.970   4.796 -0.6144 -0.1666 -0.7978
    7MOL    H88 4420   4.708   2.901   4.653 -0.1311 -1.4877  0.7008
    7MOL    H89 4421   4.826   2.774   4.657 -0.2424 -0.4353  1.9109
    7MOL    H90 4422   4.869   2.946   4.628  0.7579 -0.3551  0.1490
    7MOL    H91 4423   4.933   2.880   4.860  1.2586  2.1240 -0.1666
    7MOL    H92 4424   4.758   2.860   4.897 -1.4776  0.8716 -0.1724
    7MOL    H93 4425   4.875   3.098   4.938 -0.7449  0.9175  0.2054
    7MOL    H94 4426   4.890   3.109   4.774  1.0002 -0.7446  0.0040
    7MOL    H95 4427   4.608   3.083   4.887 -0.3779  0.0989 -0.7039
    7MOL    H96 4428   4.651   3.113   4.728  3.2284  0.3905 -1.2964
    7MOL    H97 4429   4.562   3.295   4.885  0.6333  1.2307  0.1245
    7MOL    H98 4430   4.713   3.314   4.951  0.3593 -1.6035 -0.1186
    7MOL    H99 4431   4.807   3.356   4.704 -0.0499 -0.6951  0.6208
    7MOL   H100 4432   4.638   3.332   4.663  1.5606 -2.1233 -0.3838
    7MOL   H101 4433   4.583   3.524   4.811 -1.2713  0.7520 -2.7154
    7MOL   H102 4434   4.763   3.539   4.837 -0.3943 -0.2404  0.9129
    7MOL   H103 4435   4.632   3.544   4.561 -0.7701  0.3855 -0.3514
    7MOL   H104 4436   4.795   3.590   4.601 -0.3777 -0.0051 -2.4382
    7MOL   H105 4437   4.659   3.948   4.533 -0.5315 -0.3766 -0.7574
    7MOL   H106 4438   4.543   4.087   4.557  1.5429  0.5138 -1.6846
    7MOL   H107 4439   4.500   3.948   4.462 -0.8372  1.4706 -0.6470
    7MOL   H108 4440   4.670   3.941   4.786 -0.2272  1.1688 -0.7397
    7MOL   H109 4441   4.560   4.079   4.791 -0.2993 -0.1642 -1.0840
    7MOL   C110 4442   3.677   3.408   5.159  0.3290 -0.4073  1.1384
    7MOL   C111 4443   3.660   3.462   5.016  0.4727  0.2477  0.1279
    7MOL   C112 4444   3.714   3.597   4.982 -0.2030 -0.6400 -0.2878
    7MOL   C113 4445   3.866   3.610   4.991 -0.1898  0.0724  0.1079
    7MOL   C114 4446   3.921   3.744   4.927  0.0016  1.2499 -0.8586
    7MOL   C115 4447   4.070   3.757   4.963  0.0289  0.0230  0.3763
    7MOL   C116 4448   4.161   3.657   4.888 -0.3526 -0.1482  0.1741
    7MOL   C117 4449   4.301   3.644   4.955 -0.1459  0.6188  0.7210
    7MOL   O118 4450   4.362   3.773   4.953 -0.5124 -0.6102 -0.1064
    7MOL   C119 4451   4.487   3.796   4.980  0.2339 -0.2193 -0.3096
    7MOL   O120 4452   4.565   3.707   5.023  0.0174  1.1738 -0.3414
    7MOL   C121 4453   4.533   3.943   4.951 -0.0604 -0.1345 -0.6048
    7MOL   C122 4454   4.415   4.043   4.983  0.0165  0.2526 -0.3127
    7MOL   C123 4455   4.672   3.974   5.031 -0.2948 -0.7743  0.1676
    7MOL   H124 4456   3.699   3.301   5.159  0.0341 -0.5006 -1.2959
    7MOL   H125 4457   3.768   3.451   5.202 -1.4164  3.3882  1.2417
    7MOL   H126 4458   3.591   3.432   5.221  0.1484  0.5558  0.5184
    7MOL   H127 4459   3.554   3.459   4.992 -0.1416  0.2976  2.6214
    7MOL   H128 4460   3.705   3.388   4.950 -0.6833 -1.1250  0.8563
    7MOL   H129 4461   3.666   3.674   5.044 -0.0968 -1.2720  0.5849
    7MOL   H130 4462   3.679   3.613   4.880  1.0629 -3.1810 -1.1561
    7MOL   H131 4463   3.887   3.615   5.098  1.9565  2.3726 -0.3639
    7MOL   H132 4464   3.912   3.521   4.947  0.9055  0.4348  0.5129
    7MOL   H133 4465   3.868   3.835   4.955  0.4708  1.5267 -0.8518
    7MOL   H134 4466   3.897   3.743   4.820 -4.1657  1.6527 -0.0197
    7MOL   H135 4467   4.099   3.858   4.933  0.4949  0.2868  1.6857
    7MOL   H136 4468   4.078   3.747   5.071 -0.6195  0.6839  0.4889
    7MOL   H137 4469   4.176   3.695   4.787 -0.0808  2.5223  1.1521
    7MOL   H138 4470   4.113   3.560   4.887 -2.2642  0.7562  1.1029
    7MOL   H139 4471   4.291   3.611   5.059  3.3647  0.2730  1.0261
    7MOL   H140 4472   4.366   3.579   4.897  0.2438  2.5302 -1.0468
    7MOL   H141 4473   4.441   4.148   4.965  0.7574  0.6531  2.7976
    7MOL   H142 4474   4.328   4.016   4.923 -0.6242  2.2691 -0.3295
    7MOL   H143 4475   4.393   4.045   5.090  0.5176  1.3428 -0.2168
    7MOL   H144 4476   4.724   4.056   4.981  0.4925  0.2290  2.5220
    7MOL   H145 4477   4.730   3.882   5.024 -1.2107 -1.5095  1.8680
    7MOL   C146 4478   4.035   4.712   5.485  0.2735 -0.6221  0.2396
    7MOL   C147 4479   4.160   4.683   5.572 -0.0120 -0.0828 -0.0982
    7MOL   C148 4480   4.146   4.595   5.688  0.4092 -0.6475  0.1884
    7MOL   C149 4481   4.282   4.537   5.747  0.6653  0.2027 -0.7377
    7MOL   C150 4482   4.316   4.391   5.699  0.3812  0.1256  0.1673
    7MOL   C151 4483   4.370   4.388   5.560  0.5267  0.0552 -0.6768
    7MOL   C152 4484   4.414   4.254   5.495  0.4355  0.5194  0.4871
    7MOL   C153 4485   4.474   4.278   5.354  0.2466 -0.0904 -0.7765
    7MOL   O154 4486   4.525   4.160   5.308 -0.0684 -0.7255 -0.3862
    7MOL   C155 4487   4.611   4.152   5.205 -0.4294 -0.5384  0.4750
    7MOL   O156 4488   4.629   4.241   5.125  0.3310 -0.1438 -0.1182
    7MOL   C157 4489   4.672   4.021   5.188  0.4522  0.9449  0.0596
    7MOL   C158 4490   4.603   3.912   5.276 -0.2236  0.4594 -0.3489
    7MOL   C159 4491   4.820   4.030   5.213 -0.3675 -0.6594  0.6020
    7MOL   H160 4492   3.974   4.623   5.470  0.5654 -0.7326 -0.3015
    7MOL   H161 4493   4.061   4.764   5.392  3.3327  0.2803  1.5565
    7MOL   H162 4494   3.978   4.779   5.550  0.3112 -0.3853  0.0298
    7MOL   H163 4495   4.238   4.649   5.504 -0.0043  0.4125 -0.3385
    7MOL   H164 4496   4.203   4.779   5.601 -0.6488 -0.0487  0.7336
    7MOL   H165 4497   4.072   4.515   5.680 -0.4904  0.2273 -0.1676
    7MOL   H166 4498   4.089   4.660   5.754  1.6201  1.4746 -0.8087
    7MOL   H167 4499   4.371   4.601   5.748 -0.3606  1.6632 -1.5908
    7MOL   H168 4500   4.266   4.519   5.854  1.1656  0.8240 -0.5543
    7MOL   H169 4501   4.228   4.332   5.726 -0.9522  2.9538  2.2392
    7MOL   H170 4502   4.389   4.344   5.765 -0.0396  1.1572  1.3886
    7MOL   H171 4503   4.459   4.452   5.560  1.8151 -1.6871 -1.5407
    7MOL   H172 4504   4.300   4.443   5.497  0.9251  1.4850  0.0851
    7MOL   H173 4505   4.485   4.210   5.565 -0.9088 -1.0409  0.8999
    7MOL   H174 4506   4.326   4.190   5.496  0.1152  0.9683  0.9124
    7MOL   H175 4507   4.395   4.304   5.284 -0.8032 -0.2795  0.3348
    7MOL   H176 4508   4.544   4.361   5.353  0.4660 -0.2724 -0.6708
    7MOL   H177 4509   4.642   3.814   5.247  1.3745  1.4261 -1.5370
    7MOL   H178 4510   4.495   3.917   5.261  0.1668  0.9941 -3.2765
    7MOL   H179 4511   4.619   3.929   5.382 -1.4677 -1.8230  0.2316
    7MOL   H180 4512   4.852   4.122   5.164  1.6610 -1.2933  0.6932
    7MOL   H181 4513   4.876   3.955   5.157  1.4585  1.5758 -0.6541
    7MOL   C182 4514   5.177   3.382   4.570 -0.0577 -0.2947  0.4758
    7MOL   C183 4515   5.161   3.499   4.665 -0.2127  0.4218  0.9737
    7MOL   C184 4516   5.129   3.448   4.807 -0.0180 -0.1640 -1.1158
    7MOL   C185 4517   5.110   3.564   4.907  0.0988 -0.5455  0.4273
    7MOL   C186 4518   5.047   3.500   5.030 -0.2123 -0.5205  0.2738
    7MOL   C187 4519   5.019   3.605   5.143  0.0444  0.3895  0.0465
    7MOL   C188 4520   4.901   3.580   5.235 -0.2329  0.2749 -0.6245
    7MOL   C189 4521   4.896   3.651   5.369  0.1149  0.4131 -0.0685
    7MOL   O190 4522   4.897   3.784   5.331  0.2732 -0.3524 -0.2824
    7MOL   C191 4523   4.894   3.883   5.421  0.1566  0.1437 -0.0658
    7MOL   O192 4524   4.881   3.861   5.540  0.0938 -0.4214  0.5884
    7MOL   C193 4525   4.889   4.029   5.357 -0.2506  0.4986  0.0471
    7MOL   C194 4526   4.813   4.120   5.458 -0.4773  0.5694 -0.6336
    7MOL   C195 4527   5.037   4.079   5.364 -0.1088 -0.2607 -0.0703
    7MOL   H196 4528   5.086   3.323   4.578  0.7630 -1.4838  1.1097
    7MOL   H197 4529   5.195   3.426   4.472  0.5476 -2.5147 -0.4408
    7MOL   H198 4530   5.265   3.325   4.597 -0.8880 -1.2920  1.1099
    7MOL   H199 4531   5.092   3.569   4.619 -0.3469 -1.7478 -2.2751
    7MOL   H200 4532   5.259   3.546   4.671  0.1521  0.0295 -1.6247
    7MOL   H201 4533   5.045   3.379   4.799 -0.6457  0.5501 -0.6661
    7MOL   H202 4534   5.213   3.390   4.845 -0.4248 -0.4357 -0.6250
    7MOL   H203 4535   5.201   3.619   4.929  0.3806 -1.6336  2.1040
    7MOL   H204 4536   5.034   3.632   4.869  0.5672  0.8256  1.9101
    7MOL   H205 4537   5.117   3.426   5.065  0.3724 -0.1778 -0.1582
    7MOL   H206 4538   4.958   3.449   4.992  0.7667 -1.4589 -0.8002
    7MOL   H207 4539   5.018   3.695   5.081 -0.8664 -0.8903 -1.8837
    7MOL   H208 4540   5.109   3.615   5.202  0.2207  0.8925 -0.3022
    7MOL   H209 4541   4.811   3.603   5.179  0.0196  1.6735 -0.4738
    7MOL   H210 4542   4.883   3.478   5.268  1.3896 -0.1633 -1.0320
    7MOL   H211 4543   4.978   3.619   5.433 -0.8979  1.8926  2.0234
    7MOL   H212 4544   4.800   3.627   5.416  1.0430 -0.7554  1.2643
    7MOL   H213 4545   4.791   4.220   5.420  0.0171  0.3865 -1.4007
    7MOL   H214 4546   4.715   4.088   5.493 -0.1115  0.4155  0.2689
    7MOL   H215 4547   4.868   4.129   5.552 -1.7107  0.7700  0.0855
    7MOL   H216 4548   5.031   4.188   5.369  0.5637 -0.1772 -1.0024
    7MOL   H217 4549   5.070   4.051   5.464  1.6201 -1.5199 -0.9662
    7MOL   C218 4550   4.567   4.676   4.890 -0.2012  0.2271 -0.6788
    7MOL   C219 4551   4.536   4.525   4.868 -0.0828 -0.0227  0.3443
    7MOL   C220 4552   4.666   4.459   4.812  0.1259 -0.1280  0.0912
    7MOL   C221 4553   4.656   4.317   4.785  0.4827 -0.3035 -0.1235
    7MOL   C222 4554   4.777   4.249   4.717 -0.5363  0.5439 -0.3522
    7MOL   C223 4555   4.915   4.277   4.776 -0.0019 -0.1546 -0.2526
    7MOL   C224 4556   4.939   4.234   4.918 -0.7576 -0.3063  0.1986
    7MOL   C225 4557   5.070   4.279   4.984  0.6084  0.4949  0.2826
    7MOL   O226 4558   5.100   4.220   5.115  0.3362 -0.2237  0.5615
    7MOL   C227 4559   5.123   4.091   5.123  0.2246 -0.1578 -0.1244
    7MOL   O228 4560   5.116   4.016   5.031  0.3382 -0.1060 -0.5696
    7MOL   C229 4561   5.155   4.048   5.268  0.0158  0.0803  0.1865
    7MOL   C230 4562   5.187   3.902   5.271 -0.3816 -0.2541  0.1739
    7MOL   C231 4563   5.283   4.123   5.316 -0.6431  0.2337  0.2590
    7MOL   H232 4564   4.609   4.721   4.800  0.3592 -0.5374 -0.7994
    7MOL   H233 4565   4.648   4.682   4.962  1.0325 -2.5801 -1.7708
    7MOL   H234 4566   4.476   4.733   4.914  0.1303  0.6972 -0.5305
    7MOL   H235 4567   4.458   4.524   4.793  2.0419 -1.2463 -1.9171
    7MOL   H236 4568   4.518   4.474   4.963  3.4089  0.4263  1.3378
    7MOL   H237 4569   4.686   4.503   4.714 -1.6786  1.0304  0.2220
    7MOL   H238 4570   4.748   4.483   4.880  0.6548 -1.7830  0.0573
    7MOL   H239 4571   4.620   4.269   4.876  3.6261  0.9750  1.9214
    7MOL   H240 4572   4.582   4.305   4.707  0.7383  0.7995 -0.5437
    7MOL   H241 4573   4.768   4.142   4.701  0.4151  0.8758 -3.6321
    7MOL   H242 4574   4.787   4.282   4.613 -3.5831 -2.7731 -1.8142
    7MOL   H243 4575   5.000   4.238   4.720 -0.0889  0.6950 -0.9801
    7MOL   H244 4576   4.928   4.385   4.769 -0.6638 -0.0700 -0.2368
    7MOL   H245 4577   4.933   4.125   4.914  1.0445 -0.4064 -0.4920
    7MOL   H246 4578   4.854   4.257   4.982 -0.0434 -1.6734  1.6616
    7MOL   H247 4579   5.082   4.387   4.996 -0.9673  0.6412  0.6097
    7MOL   H248 4580   5.158   4.243   4.930 -0.7019 -2.8040  0.2179
    7MOL   H249 4581   5.270   3.861   5.213  0.7891 -0.4395  1.9500
    7MOL   H250 4582   5.104   3.840   5.237  1.6091 -2.2440 -1.2130
    7MOL   H251 4583   5.220   3.871   5.370  0.1483  0.9908  0.4037
    7MOL   H252 4584   5.245   4.221   5.345 -1.6353 -1.0748  3.6402
    7MOL   H253 4585   5.307   4.076   5.412 -1.2068 -0.4072  0.0876
    7MOL   C254 4586   5.762   3.437   5.868  0.4175  0.5339 -0.1421
    7MOL   C255 4587   5.757   3.491   5.725  0.0658  0.0960 -0.2301
    7MOL   C256 4588   5.627   3.521   5.662 -0.2671 -0.1322  0.3464
    7MOL   C257 4589   5.628   3.540   5.510  0.0090 -0.9843  0.1036
    7MOL   C258 4590   5.723   3.656   5.467 -0.0673  0.1021  0.0946
    7MOL   C259 4591   5.666   3.793   5.500 -0.1320 -0.6937 -0.4994
    7MOL   C260 4592   5.765   3.912   5.473  0.7467  0.4901 -0.3197
    7MOL   C261 4593   5.695   4.049   5.472 -0.3965 -0.6821  0.1206
    7MOL   O262 4594   5.589   4.050   5.379  0.0427  0.1728 -0.4572
    7MOL   C263 4595   5.529   4.160   5.341 -0.0011  1.4464  0.1889
    7MOL   O264 4596   5.575   4.270   5.370  0.0736 -0.0502 -0.4360
    7MOL   C265 4597   5.420   4.140   5.234  0.2154 -0.7451  0.5282
    7MOL   C266 4598   5.409   4.275   5.151 -0.0284  0.2763  0.1299
    7MOL   C267 4599   5.455   4.015   5.131  0.6915  0.4433  0.1695
    7MOL   H268 4600   5.732   3.332   5.876 -0.3162  0.7351 -0.2722
    7MOL   H269 4601   5.863   3.437   5.911 -0.5668  0.2663  2.2136
    7MOL   H270 4602   5.698   3.493   5.935 -3.0870 -1.2041 -1.9344
    7MOL   H271 4603   5.819   3.581   5.720  0.7382 -0.3957 -0.8587
    7MOL   H272 4604   5.821   3.420   5.674 -1.0253  0.9340 -2.8127
    7MOL   H273 4605   5.576   3.606   5.709  1.7570  2.7038 -2.3657
    7MOL   H274 4606   5.566   3.431   5.666  1.4081 -1.4104 -1.6916
    7MOL   H275 4607   5.525   3.558   5.480 -0.4913  0.9909  2.7709
    7MOL   H276 4608   5.654   3.445   5.463 -1.9515 -0.8937 -1.1920
    7MOL   H277 4609   5.818   3.637   5.516  0.3860 -0.8556 -1.1306
    7MOL   H278 4610   5.733   3.659   5.358 -1.5097 -1.7426 -0.1275
    7MOL   H279 4611   5.639   3.788   5.605  1.2448  1.8364  0.0055
    7MOL   H280 4612   5.570   3.807   5.449  0.2464 -1.2622 -1.3956
    7MOL   H281 4613   5.831   3.915   5.559  0.8525 -0.0428 -0.3785
    7MOL   H282 4614   5.828   3.897   5.385 -1.8086 -1.0970 -1.9355
    7MOL   H283 4615   5.660   4.063   5.574  3.4069  1.4412  1.2651
    7MOL   H284 4616   5.773   4.124   5.455  0.1916 -0.6977  2.6240
    7MOL   H285 4617   5.367   4.361   5.203  1.5666  1.5908 -0.7098
    7MOL   H286 4618   5.501   4.317   5.110  0.9504 -1.1602  0.8139
    7MOL   H287 4619   5.345   4.263   5.063  0.9123  1.3174 -0.7093
    7MOL   H288 4620   5.370   3.997   5.066  0.1796  1.0967  0.6544
    7MOL   H289 4621   5.464   3.927   5.195  1.7196 -0.7116 -1.5253
    7MOL   C290 4622   5.109   3.211   5.558  0.1776  0.8467  0.1575
    7MOL   C291 4623   5.235   3.172   5.485  0.8814  0.2746 -0.8513
    7MOL   C292 4624   5.205   3.154   5.330  0.1440  0.6064 -0.9389
    7MOL   C293 4625   5.317   3.197   5.233 -0.3850 -0.5208 -0.1766
    7MOL   C294 4626   5.348   3.354   5.239 -0.0446  0.2583  0.2253
    7MOL   C295 4627   5.424   3.416   5.123  1.2152 -0.2563 -0.3185
    7MOL   C296 4628   5.466   3.560   5.148 -0.5311 -0.2372  0.1671
    7MOL   C297 4629   5.560   3.628   5.048 -1.1465  0.1815 -0.2138
    7MOL   O298 4630   5.598   3.764   5.057  0.5634 -0.5361  0.0768
    7MOL   C299 4631   5.567   3.864   4.965  1.4521 -1.0339 -0.3157
    7MOL   O300 4632   5.526   3.841   4.850 -0.1343 -0.4309 -0.0114
    7MOL   C301 4633   5.575   4.004   5.027 -0.4376  0.1771  0.4923
    7MOL   C302 4634   5.539   4.109   4.911  0.4726  0.4000  0.2565
    7MOL   C303 4635   5.709   4.034   5.097 -0.0657 -0.1232 -0.2565
    7MOL   H304 4636   5.074   3.298   5.502  0.4866  1.4399  0.8753
    7MOL   H305 4637   5.128   3.232   5.663 -1.1531  0.0589  0.5742
    7MOL   H306 4638   5.035   3.131   5.554  0.5732  0.1441  4.3644
    7MOL   H307 4639   5.261   3.077   5.531  1.1462  0.9942  0.5122
    7MOL   H308 4640   5.322   3.234   5.506  0.7611  0.5121 -1.0405
    7MOL   H309 4641   5.114   3.201   5.292  0.3565  2.0106  0.2645
    7MOL   H310 4642   5.185   3.047   5.323  0.5240  0.3212  1.6942
    7MOL   H311 4643   5.404   3.133   5.246  0.7205  0.8686 -0.6219
    7MOL   H312 4644   5.276   3.172   5.135 -1.7736 -0.3393  0.3387
    7MOL   H313 4645   5.256   3.409   5.261  0.6817  1.3612  0.5615
    7MOL   H314 4646   5.415   3.384   5.319  0.5530  0.9274 -0.5169
    7MOL   H315 4647   5.379   3.397   5.026  0.1753  1.2762 -0.1475
    7MOL   H316 4648   5.519   3.362   5.120  0.6540 -1.4056  1.2962
    7MOL   H317 4649   5.504   3.580   5.248  3.4469  3.5286 -1.9442
    7MOL   H318 4650   5.380   3.628   5.152 -0.7488 -0.4460 -0.9675
    7MOL   H319 4651   5.516   3.616   4.949 -0.7334  0.0605 -0.3832
    7MOL   H320 4652   5.652   3.570   5.044 -1.6446 -0.7458  1.3743
    7MOL   H321 4653   5.565   4.072   4.811 -2.0909  0.4080 -0.4591
    7MOL   H322 4654   5.580   4.207   4.935  0.1505  0.9556 -1.3821
    7MOL   H323 4655   5.432   4.130   4.902  0.7034  1.0843 -1.0582
    7MOL   H324 4656   5.696   4.138   5.127 -1.7983 -0.6165  0.7709
    7MOL   H325 4657   5.721   3.973   5.186  1.4582  0.2886 -0.1731
    7MOL   C326 4658   5.260   4.646   5.132  0.2227 -0.1110  0.2176
    7MOL   C327 4659   5.379   4.650   5.230 -0.2771 -0.5546 -0.4735
    7MOL   C328 4660   5.515   4.639   5.164 -0.2482 -0.0574  0.2838
    7MOL   C329 4661   5.629   4.645   5.265  0.5866  0.5335  0.8930
    7MOL   C330 4662   5.772   4.629   5.212 -0.0655 -0.1802 -0.6919
    7MOL   C331 4663   5.815   4.476   5.226 -0.4122 -0.0567  0.4147
    7MOL   C332 4664   5.957   4.462   5.157  0.8875  0.5428 -0.0885
    7MOL   C333 4665   6.007   4.323   5.181 -0.0459 -0.0114 -0.0672
    7MOL   O334 4666   5.933   4.232   5.114  0.1724  0.0738 -0.3252
    7MOL   C335 4667   5.956   4.101   5.117  0.3400  0.2450  0.1302
    7MOL   O336 4668   6.048   4.053   5.186  0.0363  0.3520  0.3154
    7MOL   C337 4669   5.855   4.022   5.028 -0.6775  0.2031  0.4832
    7MOL   C338 4670   5.909   3.873   5.027  0.4353 -0.3994  0.0170
    7MOL   C339 4671   5.835   4.091   4.885 -0.3552 -0.6200  0.2687
    7MOL   H340 4672   5.253   4.722   5.055  0.0416 -2.0522 -1.7352
    7MOL   H341 4673   5.171   4.648   5.195  0.3502 -0.8558  0.4307
    7MOL   H342 4674   5.263   4.550   5.081  1.6867  0.2479 -0.3941
    7MOL   H343 4675   5.365   4.577   5.310 -1.8707  0.5084  0.2593
    7MOL   H344 4676   5.371   4.749   5.275  2.3249 -0.7294  0.4326
    7MOL   H345 4677   5.521   4.722   5.093  0.2735 -0.4558 -0.1475
    7MOL   H346 4678   5.525   4.551   5.101 -1.4745 -1.3005  1.7956
    7MOL   H347 4679   5.604   4.582   5.350 -2.2538  0.7364  0.2719
    7MOL   H348 4680   5.613   4.742   5.311  0.9389  0.1955  1.7322
    7MOL   H349 4681   5.762   4.646   5.105 -1.1902  1.3982 -0.3532
    7MOL   H350 4682   5.851   4.691   5.254 -1.1017  1.2307 -0.7925
    7MOL   H351 4683   5.812   4.442   5.329  0.2556  2.0897  1.1521
    7MOL   H352 4684   5.744   4.412   5.173  3.6349 -2.8221 -1.9660
    7MOL   H353 4685   6.016   4.542   5.201  1.3203 -0.6298  1.5313
    7MOL   H354 4686   5.955   4.484   5.050  2.2582 -0.6043 -0.3655
    7MOL   H355 4687   6.110   4.320   5.146 -0.5536  1.2724 -1.7078
    7MOL   H356 4688   6.002   4.292   5.286 -2.7519  1.7693  0.3698
    7MOL   H357 4689   6.018   3.876   5.031  0.4740  3.7065 -1.7388
    7MOL   H358 4690   5.883   3.813   5.115  2.8778 -1.1240  0.2749
    7MOL   H359 4691   5.880   3.826   4.933 -0.3977  2.9829 -1.4973
    7MOL   H360 4692   5.778   4.013   4.835  0.1505 -1.6376  1.2618
    7MOL   H361 4693   5.789   4.189   4.898  2.8281  0.6717  2.1746
    7MOL   C362 4694   6.450   4.573   4.449 -0.2519  0.6626  0.5354
    7MOL   C363 4695   6.452   4.423   4.444  0.6126  0.1057  0.3207
    7MOL   C364 4696   6.446   4.353   4.582  0.4233  0.0670  0.2990
    7MOL   C365 4697   6.459   4.199   4.563  0.1910  0.0292 -0.5509
    7MOL   C366 4698   6.512   4.119   4.690 -0.0414 -0.3394 -0.5971
    7MOL   C367 4699   6.406   4.067   4.797 -0.4338  0.9314 -0.5302
    7MOL   C368 4700   6.355   3.929   4.767  0.4662 -0.1104 -0.1639
    7MOL   C369 4701   6.244   3.890   4.857  0.0515  0.1728 -0.1790
    7MOL   O370 4702   6.146   3.993   4.840 -0.8529 -0.3067 -0.2391
    7MOL   C371 4703   6.039   3.981   4.771 -0.0936  0.2852 -0.2383
    7MOL   O372 4704   6.000   3.871   4.720 -0.1290 -0.1082 -0.2811
    7MOL   C373 4705   5.953   4.111   4.787 -0.0704  0.6792  0.5097
    7MOL   C374 4706   6.042   4.230   4.828  0.3346  0.1113  0.1810
    7MOL   C375 4707   5.881   4.145   4.651 -0.4738 -0.0967 -0.1748
    7MOL   H376 4708   6.431   4.599   4.344 -0.7427 -2.1587 -0.1193
    7MOL   H377 4709   6.355   4.607   4.492  0.0474 -0.1122  1.8263
    7MOL   H378 4710   6.537   4.624   4.490 -0.1516 -0.5435  1.8556
    7MOL   H379 4711   6.543   4.388   4.396  1.3922  1.0209  1.1207
    7MOL   H380 4712   6.369   4.396   4.378  1.1549 -1.2488  0.1708
    7MOL   H381 4713   6.357   4.380   4.639  0.1284 -2.2276  0.9803
    7MOL   H382 4714   6.531   4.391   4.638  0.7350  2.3273 -1.6204
    7MOL   H383 4715   6.539   4.183   4.490 -0.2165 -2.6351 -0.4869
    7MOL   H384 4716   6.371   4.145   4.528 -1.5832  2.6039 -0.1979
    7MOL   H385 4717   6.571   4.037   4.651 -0.9446 -1.4389  0.3266
    7MOL   H386 4718   6.586   4.185   4.737  1.6494 -2.1597 -0.6600
    7MOL   H387 4719   6.319   4.133   4.800 -1.0450  0.1001  2.7443
    7MOL   H388 4720   6.458   4.076   4.892  2.1283  0.6285 -1.8611
    7MOL   H389 4721   6.433   3.857   4.791  0.5751 -0.5388 -1.7354
    7MOL   H390 4722   6.325   3.928   4.662 -0.4683  2.1143  0.0498
    7MOL   H391 4723   6.211   3.792   4.824 -1.3846  0.2172  1.0644
    7MOL   H392 4724   6.271   3.881   4.962 -2.4097 -1.3941  0.3703
    7MOL   H393 4725   6.118   4.262   4.756  1.4460 -0.2866  1.1652
    7MOL   H394 4726   5.990   4.323   4.852  1.5770  0.5225  1.3231
    7MOL   H395 4727   6.093   4.216   4.923  1.4265  0.0399 -0.4134
    7MOL   H396 4728   5.825   4.058   4.618  0.5834 -0.8856  0.0872
    7MOL   H397 4729   5.806   4.221   4.675 -1.3862 -0.8315 -0.6675
    7MOL   C398 4730   6.535   5.000   4.236 -0.3421 -0.6329 -0.2274
    7MOL   C399 4731   6.443   5.085   4.321  0.3056  0.3965  0.5771
    7MOL   C400 4732   6.345   5.011   4.415 -0.6173 -0.0457 -0.4500
    7MOL   C401 4733   6.238   4.929   4.339  0.0663 -0.4115  1.2503
    7MOL   C402 4734   6.142   4.836   4.415  0.4290 -0.2677 -0.2771
    7MOL   C403 4735   6.067   4.751   4.314  0.5710  1.5665 -0.1301
    7MOL   C404 4736   6.007   4.610   4.367 -0.4342  0.2960 -0.3288
    7MOL   C405 4737   6.110   4.515   4.421  0.5493  0.3575  0.2515
    7MOL   O406 4738   6.060   4.386   4.430  0.4062  0.3220 -0.7483
    7MOL   C407 4739   5.979   4.349   4.524 -0.2436  0.2400  0.3396
    7MOL   O408 4740   5.936   4.428   4.610 -0.1013  0.0661 -0.1978
    7MOL   C409 4741   5.951   4.199   4.520  1.3437  0.2312 -0.0021
    7MOL   C410 4742   6.079   4.122   4.487 -0.0832 -0.0528 -0.3908
    7MOL   C411 4743   5.855   4.169   4.397  0.5257  0.2890 -0.0808
    7MOL   H412 4744   6.574   5.056   4.151 -0.7265 -0.7739 -0.4988
    7MOL   H413 4745   6.475   4.923   4.187  1.0246 -2.2407  0.6089
    7MOL   H414 4746   6.611   4.949   4.294 -2.2270 -0.7675  2.2372
    7MOL   H415 4747   6.378   5.137   4.250  1.7118  0.4204 -0.6990
    7MOL   H416 4748   6.494   5.156   4.386  0.4362 -0.3296  1.2821
    7MOL   H417 4749   6.403   4.949   4.483 -0.2886 -0.1268 -0.7994
    7MOL   H418 4750   6.302   5.085   4.482 -1.4649 -0.9964  0.0755
    7MOL   H419 4751   6.296   4.861   4.278  0.0382  0.1950  0.5384
    7MOL   H420 4752   6.188   4.993   4.266  0.7514 -0.4604  0.7420
    7MOL   H421 4753   6.205   4.772   4.476 -0.3271 -0.4943  0.2771
    7MOL   H422 4754   6.080   4.886   4.489  2.3509  2.0131 -0.1690
    7MOL   H423 4755   6.139   4.731   4.234  0.8434  0.5145  0.3718
    7MOL   H424 4756   5.981   4.804   4.272  0.1720  1.7127  0.8696
    7MOL   H425 4757   5.926   4.629   4.437 -1.7268 -1.7393 -1.2297
    7MOL   H426 4758   5.950   4.569   4.284 -0.5919  2.2168 -1.1981
    7MOL   H427 4759   6.185   4.505   4.342 -0.7794 -0.2813 -0.9494
    7MOL   H428 4760   6.134   4.553   4.521  1.3856 -0.5388  0.3965
    7MOL   H429 4761   6.145   4.144   4.571 -0.4977  0.5531 -0.2188
    7MOL   H430 4762   6.123   4.152   4.392 -0.4167  1.9575  0.0611
    7MOL   H431 4763   6.047   4.018   4.491 -0.0317 -0.1822 -2.6334
    7MOL   H432 4764   5.842   4.060   4.395  0.9459  0.1570  2.7722
    7MOL   H433 4765   5.916   4.172   4.306  1.0536  3.5108  0.3480
    7MOL   C434 4766   5.846   5.036   5.048  0.1906  0.1160  0.4755
    7MOL   C435 4767   5.787   4.923   4.967  0.5309 -0.5634  0.5034
    7MOL   C436 4768   5.750   4.972   4.828 -0.4843 -0.3989 -0.2625
    7MOL   C437 4769   5.730   4.858   4.727 -0.4145 -0.3411  0.3665
    7MOL   C438 4770   5.669   4.899   4.597 -0.5869 -0.6537  0.2594
    7MOL   C439 4771   5.698   4.815   4.473 -0.2455  0.2316  0.1256
    7MOL   C440 4772   5.641   4.678   4.481 -0.2393 -0.6304  0.6189
    7MOL   C441 4773   5.655   4.602   4.351 -0.0063  0.7815  0.4770
    7MOL   O442 4774   5.668   4.459   4.385  0.0596  0.3541 -0.4967
    7MOL   C443 4775   5.730   4.373   4.307 -0.0202 -1.2128 -0.4677
    7MOL   O444 4776   5.791   4.396   4.204  0.6962  0.1168 -0.0679
    7MOL   C445 4777   5.716   4.225   4.359  0.4708  1.0666  0.7248
    7MOL   C446 4778   5.615   4.211   4.475  0.0062  0.3624 -0.1294
    7MOL   C447 4779   5.667   4.143   4.230  0.6497  0.7555  0.2944
    7MOL   H448 4780   5.889   4.985   5.134  1.8668  0.0213 -0.4011
    7MOL   H449 4781   5.781   5.117   5.084  1.7020  1.3946  0.3813
    7MOL   H450 4782   5.915   5.090   4.983  0.2988 -0.9824 -0.3292
    7MOL   H451 4783   5.700   4.880   5.018  0.1154 -0.8268 -0.4197
    7MOL   H452 4784   5.853   4.839   4.948 -0.0187 -0.5243 -1.7181
    7MOL   H453 4785   5.831   5.034   4.792 -1.3826  1.2921  0.5592
    7MOL   H454 4786   5.661   5.034   4.841  0.0196  0.4311 -0.7990
    7MOL   H455 4787   5.650   4.793   4.764 -1.5688  1.1105  0.4881
    7MOL   H456 4788   5.815   4.794   4.705 -0.7247 -0.2117 -1.2206
    7MOL   H457 4789   5.563   4.914   4.614 -0.9291 -1.4464 -1.0927
    7MOL   H458 4790   5.710   4.994   4.564 -0.2192 -0.4671  1.2461
    7MOL   H459 4791   5.801   4.817   4.438 -0.6581 -0.1340 -1.1364
    7MOL   H460 4792   5.634   4.858   4.396  0.1210 -0.1165 -0.3774
    7MOL   H461 4793   5.691   4.630   4.565 -0.2901 -0.2985  0.8387
    7MOL   H462 4794   5.537   4.680   4.515 -0.0501 -0.1578  1.1787
    7MOL   H463 4795   5.743   4.630   4.294 -0.7088  2.3611  0.1520
    7MOL   H464 4796   5.574   4.622   4.281  1.3699  2.4774 -0.6836
    7MOL   H465 4797   5.598   4.111   4.516 -0.5800  2.4576  5.0700
    7MOL   H466 4798   5.645   4.276   4.557  0.5939 -0.1653  0.0837
    7MOL   H467 4799   5.516   4.254   4.463 -0.0676  0.7750  1.8318
    7MOL   H468 4800   5.737   4.167   4.150  0.6443 -1.0295 -0.2643
    7MOL   H469 4801   5.694   4.038   4.239 -0.6369  0.1568 -2.2704
    7MOL   C470 4802   5.582   3.352   4.816  0.1158 -0.1405 -0.7311
    7MOL   C471 4803   5.694   3.407   4.734 -0.1598  0.6208  0.3081
    7MOL   C472 4804   5.656   3.537   4.659  0.0594 -0.1074  0.5912
    7MOL   C473 4805   5.774   3.605   4.595  0.0416  0.0815  0.3799
    7MOL   C474 4806   5.737   3.754   4.570  0.5530  0.0507  0.4122
    7MOL   C475 4807   5.653   3.768   4.439 -0.0710  0.2232 -0.2774
    7MOL   C476 4808   5.497   3.785   4.467  0.2332  0.5685  0.3682
    7MOL   C477 4809   5.412   3.825   4.352  0.5980  1.0061  0.1602
    7MOL   O478 4810   5.470   3.922   4.270 -0.0851  0.3996  0.6991
    7MOL   C479 4811   5.432   4.052   4.261  0.9735  0.2008  0.5656
    7MOL   O480 4812   5.336   4.094   4.323  0.4532  0.1500 -0.0773
    7MOL   C481 4813   5.521   4.142   4.173  0.1575  0.4371 -0.6594
    7MOL   C482 4814   5.472   4.286   4.163 -0.0044  0.4378  0.2199
    7MOL   C483 4815   5.529   4.085   4.033  0.2926  0.2456  0.8222
    7MOL   H484 4816   5.600   3.270   4.886  0.7526 -1.4564 -2.4175
    7MOL   H485 4817   5.506   3.321   4.745  2.3022 -2.5450 -2.0779
    7MOL   H486 4818   5.552   3.432   4.885 -0.2086 -0.6735 -0.2479
    7MOL   H487 4819   5.775   3.434   4.801 -0.2123 -1.5786  1.3043
    7MOL   H488 4820   5.729   3.326   4.670 -2.3618  2.4374 -3.3360
    7MOL   H489 4821   5.588   3.508   4.580 -0.3791 -1.1654  1.3414
    7MOL   H490 4822   5.605   3.599   4.732 -1.4660  1.9920 -2.1657
    7MOL   H491 4823   5.848   3.610   4.675  0.2015 -0.3422  0.2563
    7MOL   H492 4824   5.824   3.556   4.512  0.6065  0.1580  0.6757
    7MOL   H493 4825   5.681   3.796   4.654  1.5479 -1.7458  2.0328
    7MOL   H494 4826   5.834   3.804   4.570  0.4069  0.3415 -0.6002
    7MOL   H495 4827   5.687   3.862   4.395  1.6119 -0.3041 -0.1363
    7MOL   H496 4828   5.674   3.684   4.372  0.7481 -1.0025  1.4968
    7MOL   H497 4829   5.460   3.702   4.528 -0.3997  1.1326  0.7518
    7MOL   H498 4830   5.482   3.875   4.526 -1.2141 -1.2982  2.9968
    7MOL   H499 4831   5.314   3.851   4.391 -0.6359 -2.4739 -0.4088
    7MOL   H500 4832   5.394   3.736   4.291 -1.0090 -1.0547  3.4848
    7MOL   H501 4833   5.496   4.339   4.255  0.9069  0.8282 -0.2359
    7MOL   H502 4834   5.364   4.291   4.143  0.5484  2.2573 -2.6584
    7MOL   H503 4835   5.513   4.354   4.088 -0.2990  1.1909  0.7257
    7MOL   H504 4836   5.579   4.162   3.974  1.7446 -0.7889  0.6720
    7MOL   H505 4837   5.588   3.993   4.040 -0.0523 -0.0834 -0.3434
    7MOL   C506 4838   5.275   4.629   3.237  0.2498 -0.2711  0.2295
    7MOL   C507 4839   5.352   4.562   3.352  0.6565  0.2948  0.0314
    7MOL   C508 4840   5.437   4.660   3.437 -0.0166 -0.0204 -0.0026
    7MOL   C509 4841   5.476   4.586   3.571 -0.5638  0.0258  0.5340
    7MOL   C510 4842   5.362   4.573   3.679 -0.3308 -0.2096  0.6161
    7MOL   C511 4843   5.402   4.520   3.815  0.5442  0.1579  0.5874
    7MOL   C512 4844   5.287   4.487   3.902  0.5102  0.6088  0.3445
    7MOL   C513 4845   5.222   4.354   3.873 -0.3240  0.1373  0.0292
    7MOL   O514 4846   5.327   4.251   3.880 -0.2220  0.4915 -0.6455
    7MOL   C515 4847   5.298   4.141   3.949 -0.3319  0.4525  0.4688
    7MOL   O516 4848   5.191   4.124   4.005 -0.1540  0.1161 -0.1445
    7MOL   C517 4849   5.416   4.033   3.946  0.3740 -0.0988  0.3530
    7MOL   C518 4850   5.475   4.019   3.802  0.2723  0.0344  0.0220
    7MOL   C519 4851   5.358   3.895   3.987  0.1223  1.1079  0.4921
    7MOL   H520 4852   5.345   4.661   3.160 -0.8042 -0.9726 -1.0513
    7MOL   H521 4853   5.222   4.719   3.267  2.7375  1.6795 -1.1007
    7MOL   H522 4854   5.207   4.563   3.183  2.5205 -2.5015 -0.0260
    7MOL   H523 4855   5.416   4.483   3.312 -1.1689 -0.3566 -1.7483
    7MOL   H524 4856   5.272   4.517   3.412 -0.1070  1.4453 -0.1056
    7MOL   H525 4857   5.520   4.699   3.378  1.4502  0.9095  2.6437
    7MOL   H526 4858   5.378   4.749   3.458  0.0507  0.3069 -1.1769
    7MOL   H527 4859   5.518   4.490   3.542 -1.5156 -0.8918  2.1353
    7MOL   H528 4860   5.566   4.628   3.616 -0.6682  0.9365 -0.0851
    7MOL   H529 4861   5.318   4.672   3.679 -0.5900 -0.3130 -0.7074
    7MOL   H530 4862   5.284   4.506   3.643 -0.8680  0.5792  0.3119
    7MOL   H531 4863   5.458   4.602   3.859  0.2449 -0.1635  1.5716
    7MOL   H532 4864   5.474   4.439   3.805  1.4862  0.8815  1.5109
    7MOL   H533 4865   5.217   4.571   3.896 -2.5234 -1.9039 -1.1513
    7MOL   H534 4866   5.316   4.486   4.007  0.2000  1.5030  0.4446
    7MOL   H535 4867   5.176   4.358   3.774 -1.1307 -1.5312  0.3282
    7MOL   H536 4868   5.139   4.343   3.942 -2.0708  1.5240 -1.7742
    7MOL   H537 4869   5.561   3.953   3.803  2.7854  3.1657 -0.4899
    7MOL   H538 4870   5.521   4.112   3.769  0.7936  0.4026  1.7524
    7MOL   H539 4871   5.403   3.978   3.731 -0.3812  3.1726 -1.2215
    7MOL   H540 4872   5.438   3.837   4.033 -2.9376 -1.9852  2.1475
    7MOL   H541 4873   5.297   3.899   4.078  0.7298 -0.5332  0.9850
    7MOL   C542 4874   5.237   3.961   4.684  0.2610 -0.1078 -0.5699
    7MOL   C543 4875   5.122   3.855   4.686 -0.4147  0.3606  0.0959
    7MOL   C544 4876   4.989   3.909   4.656 -0.1537  0.1516 -0.1074
    7MOL   C545 4877   4.969   3.973   4.510  0.7475 -0.1748 -0.0548
    7MOL   C546 4878   4.995   3.881   4.395 -0.3015  0.3644 -0.3491
    7MOL   C547 4879   4.948   3.913   4.253 -0.4544  0.1514 -0.0077
    7MOL   C548 4880   4.920   3.789   4.164  0.4718  0.4802 -0.1381
    7MOL   C549 4881   5.033   3.694   4.150  0.8060  0.2330 -0.1640
    7MOL   O550 4882   5.114   3.751   4.051  0.9982 -0.0449  0.3481
    7MOL   C551 4883   5.206   3.693   3.983 -0.0101  0.1521  0.2738
    7MOL   O552 4884   5.247   3.577   3.998  0.4380  0.0941  0.3337
    7MOL   C553 4885   5.275   3.802   3.883  0.1814  0.5139 -0.0216
    7MOL   C554 4886   5.378   3.717   3.806  0.9448  0.0799  0.2679
    7MOL   C555 4887   5.156   3.872   3.801 -0.2683 -0.4607  0.2649
    7MOL   H556 4888   5.242   4.009   4.586  0.2556 -0.9292 -0.9774
    7MOL   H557 4889   5.328   3.901   4.687 -0.3501 -0.9259  2.8646
    7MOL   H558 4890   5.232   4.033   4.766  2.6948  1.9993 -2.1646
    7MOL   H559 4891   5.150   3.777   4.615  0.5958  0.4890  0.3357
    7MOL   H560 4892   5.119   3.816   4.788  1.4987 -0.1436 -0.0115
    7MOL   H561 4893   4.964   3.987   4.728 -0.2842 -0.7792  0.8576
    7MOL   H562 4894   4.912   3.836   4.677  0.5108 -0.4757  0.1568
    7MOL   H563 4895   4.864   4.003   4.505  0.2032 -1.6042  2.1521
    7MOL   H564 4896   5.039   4.055   4.492 -0.9819  1.4230  0.3185
    7MOL   H565 4897   4.945   3.789   4.426  1.6661 -0.8093 -0.6022
    7MOL   H566 4898   5.103   3.865   4.392 -0.3129  0.0941  0.5180
    7MOL   H567 4899   4.871   3.990   4.256  0.6128  1.2669 -0.5912
    7MOL   H568 4900   5.027   3.970   4.204  2.3098 -0.8620  3.1009
    7MOL   H569 4901   4.844   3.746   4.228  0.2212  0.3881 -0.4995
    7MOL   H570 4902   4.867   3.810   4.071 -1.9648 -0.1688  1.0828
    7MOL   H571 4903   5.003   3.591   4.128 -0.5935  0.3677  0.9978
    7MOL   H572 4904   5.097   3.687   4.238 -0.1778  0.5609  0.5990
    7MOL   H573 4905   5.426   3.766   3.721  2.3881  1.4450  1.8250
    7MOL   H574 4906   5.339   3.622   3.771 -0.4533  0.3120  1.1873
    7MOL   H575 4907   5.461   3.697   3.874  0.9451 -1.5229 -0.1806
    7MOL   H576 4908   5.192   3.964   3.755 -1.5129  0.0343  0.2539
    7MOL   H577 4909   5.088   3.920   3.871 -1.1892 -2.4090  0.7340
    7MOL   C578 4910   5.047   4.916   3.482  0.5066  0.3197 -0.2398
    7MOL   C579 4911   5.088   4.772   3.543  1.0848 -0.5542 -0.6178
    7MOL   C580 4912   4.970   4.683   3.513  0.1971  0.0421 -0.1205
    7MOL   C581 4913   4.975   4.549   3.582  0.0632 -0.0585  0.7222
    7MOL   C582 4914   4.894   4.437   3.513 -0.0457  0.4609  0.1118
    7MOL   C583 4915   4.911   4.303   3.579 -0.0416 -0.4261 -0.4415
    7MOL   C584 4916   4.821   4.193   3.513 -0.1994  0.4334 -0.4209
    7MOL   C585 4917   4.812   4.056   3.598 -0.4988 -0.5297 -0.1697
    7MOL   O586 4918   4.935   3.988   3.617  0.2128  0.8278 -0.4150
    7MOL   C587 4919   4.931   3.871   3.688 -0.0672  0.2712 -0.1100
    7MOL   O588 4920   4.830   3.826   3.745  0.2462  0.6493 -0.4703
    7MOL   C589 4921   5.073   3.798   3.691 -0.1327  0.4452 -0.7696
    7MOL   C590 4922   5.035   3.647   3.729  0.1947  0.2695 -0.7826
    7MOL   C591 4923   5.155   3.806   3.557  0.0369 -0.4022  0.2140
    7MOL   H592 4924   5.042   4.904   3.374  3.0459 -1.2599 -0.2261
    7MOL   H593 4925   5.125   4.991   3.497  2.1301 -1.1177 -1.3135
    7MOL   H594 4926   4.951   4.941   3.527 -0.2140  1.3118 -2.2521
    7MOL   H595 4927   5.086   4.784   3.651  1.3133 -2.3013 -0.4114
    7MOL   H596 4928   5.175   4.725   3.498  1.7783 -1.0604  1.2050
    7MOL   H597 4929   4.971   4.657   3.407 -0.0990 -0.5599  0.0230
    7MOL   H598 4930   4.886   4.746   3.540  0.8578  1.1531 -0.5922
    7MOL   H599 4931   4.961   4.558   3.690 -2.9842  1.6886  0.2263
    7MOL   H600 4932   5.080   4.521   3.569 -0.2426 -0.2170 -1.4859
    7MOL   H601 4933   4.916   4.422   3.407  1.4327 -2.0289  0.7242
    7MOL   H602 4934   4.786   4.452   3.508 -0.3460 -2.0456 -2.1223
    7MOL   H603 4935   4.888   4.319   3.684 -1.7346  1.1298 -1.0313
    7MOL   H604 4936   5.015   4.271   3.581 -0.0552 -0.3873  1.0185
    7MOL   H605 4937   4.864   4.157   3.420 -1.2200 -0.8927 -0.3954
    7MOL   H606 4938   4.722   4.230   3.487 -0.0511 -0.0088 -1.6257
    7MOL   H607 4939   4.774   4.085   3.696  1.4282  1.5470  0.0188
    7MOL   H608 4940   4.743   3.991   3.544 -1.1703 -0.5961  0.7588
    7MOL   H609 4941   5.132   3.597   3.722  0.3296  0.2076  1.2305
    7MOL   H610 4942   4.981   3.624   3.821 -2.1202 -0.6222 -2.2902
    7MOL   H611 4943   4.971   3.594   3.658  0.2163  0.7684 -1.1767
    7MOL   H612 4944   5.257   3.785   3.590  0.0709 -0.6436 -0.0412
    7MOL   H613 4945   5.158   3.912   3.530  0.4606 -0.9809 -2.1287
    7MOL   C614 4946   5.716   4.145   3.417 -0.2649 -0.0190  0.7960
    7MOL   C615 4947   5.657   4.024   3.489  0.5702  0.2531  0.0967
    7MOL   C616 4948   5.751   3.897   3.476 -0.8374 -0.4464  0.4486
    7MOL   C617 4949   5.711   3.762   3.541 -0.2016  0.1320 -0.1630
    7MOL   C618 4950   5.618   3.682   3.452 -0.3648 -0.3476 -0.2278
    7MOL   C619 4951   5.562   3.555   3.533 -0.3581 -0.0520 -0.1916
    7MOL   C620 4952   5.490   3.453   3.447  0.1158  0.3247  0.4660
    7MOL   C621 4953   5.347   3.441   3.496 -0.6110  0.2255  0.5739
    7MOL   O622 4954   5.281   3.566   3.482 -0.5470 -0.3632 -0.3167
    7MOL   C623 4955   5.150   3.579   3.452 -0.5606 -0.3363  0.5735
    7MOL   O624 4956   5.062   3.498   3.442  0.6423  0.5145 -0.2030
    7MOL   C625 4957   5.121   3.722   3.428  0.1232 -0.3563  0.4514
    7MOL   C626 4958   4.974   3.745   3.384  0.3207 -0.4266  0.2078
    7MOL   C627 4959   5.217   3.783   3.307  0.3523 -0.2513 -0.5764
    7MOL   H628 4960   5.737   4.117   3.314 -1.1949 -0.6434  0.7697
    7MOL   H629 4961   5.810   4.187   3.455 -0.6471  2.8912 -1.2849
    7MOL   H630 4962   5.647   4.229   3.408  1.1214  0.8886 -1.6748
    7MOL   H631 4963   5.652   4.049   3.595 -2.2715 -0.0037  0.0682
    7MOL   H632 4964   5.559   3.994   3.451  0.4607  0.2528  0.3802
    7MOL   H633 4965   5.843   3.922   3.528 -1.4868  0.1222  1.3294
    7MOL   H634 4966   5.781   3.862   3.377 -0.8211  2.7975 -0.7463
    7MOL   H635 4967   5.675   3.795   3.638 -0.7983 -3.5659  0.9610
    7MOL   H636 4968   5.796   3.698   3.565 -0.3317  0.1116  0.2324
    7MOL   H637 4969   5.538   3.752   3.427  0.5715  0.4925 -0.8916
    7MOL   H638 4970   5.671   3.664   3.359  2.0846  3.5548  0.3363
    7MOL   H639 4971   5.649   3.514   3.584  1.4216  1.6376 -1.7957
    7MOL   H640 4972   5.505   3.593   3.618  2.5891  0.1274  1.8056
    7MOL   H641 4973   5.547   3.362   3.467 -0.0423  0.5003  1.7873
    7MOL   H642 4974   5.492   3.482   3.342  1.1973  2.1148  0.9528
    7MOL   H643 4975   5.297   3.364   3.438  2.1187 -1.9289  0.9684
    7MOL   H644 4976   5.334   3.406   3.599  1.9748  2.9720  1.9241
    7MOL   H645 4977   4.905   3.706   3.458 -0.4771  1.1055  0.2901
    7MOL   H646 4978   4.936   3.695   3.295 -0.7632 -0.2860  0.5868
    7MOL   H647 4979   4.962   3.850   3.356 -0.2412 -0.8274 -1.0905
    7MOL   H648 4980   5.316   3.762   3.347  0.5364  1.1157 -0.3152
    7MOL   H649 4981   5.211   3.891   3.307  1.7775 -0.1673 -0.5278
    7MOL   C650 4982   5.423   4.269   2.561  0.8885  0.2596 -0.3546
    7MOL   C651 4983   5.273   4.301   2.568  0.1741  0.3750 -0.0260
    7MOL   C652 4984   5.217   4.250   2.698  0.4169 -0.0773  0.4268
    7MOL   C653 4985   5.080   4.320   2.731  0.0519 -0.3975  0.6558
    7MOL   C654 4986   5.041   4.297   2.878 -0.0568 -0.3444 -0.5263
    7MOL   C655 4987   5.030   4.147   2.917 -0.3294 -0.3013 -0.3847
    7MOL   C656 4988   4.937   4.125   3.044 -0.0095  0.2489  0.2766
    7MOL   C657 4989   4.921   3.979   3.081 -0.0501  0.0820 -0.0460
    7MOL   O658 4990   5.047   3.920   3.107  0.0153  0.5123  0.4598
    7MOL   C659 4991   5.066   3.794   3.084  0.1442  1.0253  0.1297
    7MOL   O660 4992   4.982   3.720   3.030 -0.8994  0.2408  0.3420
    7MOL   C661 4993   5.198   3.742   3.146 -0.4013  0.1140 -0.9219
    7MOL   C662 4994   5.196   3.590   3.148  0.0686  0.0532 -0.0900
    7MOL   C663 4995   5.330   3.810   3.079  0.0197  0.0643  0.1731
    7MOL   H664 4996   5.469   4.295   2.657 -1.6861  3.5159  0.0691
    7MOL   H665 4997   5.481   4.335   2.496 -0.5604  1.5082 -0.3792
    7MOL   H666 4998   5.442   4.164   2.535  0.5328  0.1742 -0.2700
    7MOL   H667 4999   5.205   4.259   2.494 -0.5835 -1.0933  1.4692
    7MOL   H668 5000   5.264   4.408   2.550 -0.0181  0.0024 -2.3350
    7MOL   H669 5001   5.288   4.254   2.780  0.4322  0.6905  0.3809
    7MOL   H670 5002   5.207   4.143   2.680  1.3210 -0.2326  0.8604
    7MOL   H671 5003   5.002   4.299   2.658  0.1771 -1.6486  0.8775
    7MOL   H672 5004   5.102   4.427   2.720  0.4434 -0.4849  0.5445
    7MOL   H673 5005   4.946   4.347   2.897 -0.4944 -1.4494  0.2631
    7MOL   H674 5006   5.119   4.338   2.943 -0.0335 -1.4128  0.1336
    7MOL   H675 5007   5.005   4.088   2.829  0.8766 -1.0356 -0.2503
    7MOL   H676 5008   5.126   4.115   2.957  1.1120  0.5041 -3.0102
    7MOL   H677 5009   4.841   4.164   3.011 -0.5351 -1.6550 -0.5386
    7MOL   H678 5010   4.971   4.166   3.139 -0.8245  0.2286  0.5780
    7MOL   H679 5011   4.868   3.926   3.003  0.3819 -2.6201  1.4243
    7MOL   H680 5012   4.863   3.963   3.172  1.8591  0.2718  1.2351
    7MOL   H681 5013   5.206   3.557   3.045  3.0984  1.7290 -0.3816
    7MOL   H682 5014   5.097   3.566   3.187  0.8934  0.0666  2.1074
    7MOL   H683 5015   5.272   3.535   3.205  0.8596  0.2878 -0.9088
    7MOL   H684 5016   5.316   3.915   3.054 -0.0887 -0.4612 -2.0814
    7MOL   H685 5017   5.413   3.806   3.149 -0.0584 -1.0490  0.2156
    7MOL   C686 5018   5.679   3.911   2.048 -0.2767  0.2498  0.6644
    7MOL   C687 5019   5.619   3.862   2.175  0.3624  0.1410  0.5136
    7MOL   C688 5020   5.472   3.895   2.206  0.4826 -0.2822 -0.0636
    7MOL   C689 5021   5.430   3.834   2.342  0.0733  1.2315 -0.1751
    7MOL   C690 5022   5.283   3.871   2.375 -0.4910 -0.0231  0.4362
    7MOL   C691 5023   5.256   3.825   2.515 -0.0503 -0.0123  0.7014
    7MOL   C692 5024   5.119   3.880   2.573  0.1249  0.3532  0.2608
    7MOL   C693 5025   5.087   3.814   2.705  0.2851 -0.3354 -0.0594
    7MOL   O694 5026   5.191   3.825   2.803 -0.0731  0.3312  0.7711
    7MOL   C695 5027   5.271   3.723   2.836  0.2400 -0.5711 -0.6370
    7MOL   O696 5028   5.258   3.609   2.790  0.1854 -0.2465 -0.0462
    7MOL   C697 5029   5.380   3.755   2.940  0.6366 -0.6732  0.6472
    7MOL   C698 5030   5.470   3.632   2.968  0.2465 -0.5265  0.1442
    7MOL   C699 5031   5.464   3.863   2.864  0.8090  0.2955  0.0721
    7MOL   H700 5032   5.607   3.953   1.978 -0.8191  0.1963  1.1818
    7MOL   H701 5033   5.729   3.839   1.983 -0.3913  0.5677  0.2249
    7MOL   H702 5034   5.744   3.997   2.063  0.6784 -0.4729  0.7143
    7MOL   H703 5035   5.676   3.920   2.248 -0.0517  0.0033  0.9478
    7MOL   H704 5036   5.647   3.758   2.192  0.2868 -0.3721 -2.1946
    7MOL   H705 5037   5.418   3.850   2.123  1.3624 -0.0130 -0.7927
    7MOL   H706 5038   5.455   4.003   2.201 -0.7082 -0.4268  0.5747
    7MOL   H707 5039   5.507   3.878   2.406 -0.0361 -0.9010  1.4925
    7MOL   H708 5040   5.462   3.730   2.342 -0.5357  1.0388 -1.4750
    7MOL   H709 5041   5.208   3.830   2.308 -0.3221  2.1731 -1.1394
    7MOL   H710 5042   5.270   3.979   2.372 -1.5145 -0.1734 -0.4330
    7MOL   H711 5043   5.257   3.717   2.530 -0.9950 -0.4174 -1.9708
    7MOL   H712 5044   5.339   3.869   2.572  2.0460 -1.3653 -1.2147
    7MOL   H713 5045   5.125   3.987   2.594  2.3201  0.3836 -0.3643
    7MOL   H714 5046   5.043   3.859   2.499 -1.1654 -0.1245  1.6985
    7MOL   H715 5047   5.060   3.709   2.692 -1.7874 -0.1035  1.9385
    7MOL   H716 5048   4.991   3.851   2.742  0.5054  0.9806 -0.7642
    7MOL   H717 5049   5.556   3.665   3.027 -0.3397  3.3421 -1.0120
    7MOL   H718 5050   5.427   3.548   3.022  0.3438 -0.4162  0.3938
    7MOL   H719 5051   5.511   3.600   2.872 -2.1415  0.9693 -1.4137
    7MOL   H720 5052   5.548   3.895   2.927  0.4156 -2.5115  2.1632
    7MOL   H721 5053   5.406   3.954   2.852 -0.2638 -0.5593 -1.4685
    7MOL   H722 5054   5.506   3.852   2.764 -0.5219  0.7599 -0.5412
    8MOL     C1 5055   2.262   7.223   3.224 -0.4199 -0.6651 -0.4616
    8MOL     C2 5056   2.216   7.190   3.086  0.1711 -0.5037 -0.7563
    8MOL     C3 5057   2.251   7.302   2.982  0.6562 -0.0461 -0.3779
    8MOL     C4 5058   2.231   7.257   2.838 -0.3264 -0.2049  0.1256
    8MOL     C5 5059   2.190   7.367   2.741  0.0151 -0.2623  0.2117
    8MOL     C6 5060   2.303   7.448   2.675 -0.3954 -0.7287  0.1644
    8MOL     C7 5061   2.248   7.558   2.581  0.0450  0.4957 -0.3518
    8MOL     C8 5062   2.349   7.628   2.487  0.6189  0.8407  1.0448
    8MOL     O9 5063   2.265   7.721   2.417 -0.0676 -0.2558 -0.5035
    8MOL    C10 5064   2.315   0.049   2.356  0.4401  0.4987 -0.1416
    8MOL    O11 5065   2.438   0.084   2.349 -0.7886  0.5316  0.3671
    8MOL    C12 5066   2.204   0.141   2.299 -0.3870  0.7547 -0.4601
    8MOL    C13 5067   2.252   0.265   2.217  0.5744 -0.0527  0.3360
    8MOL    C14 5068   2.087   0.057   2.224  0.0164  0.0799 -0.0109
    8MOL    H15 5069   2.225   7.157   3.303 -0.4731 -1.0723 -0.8244
    8MOL    H16 5070   2.229   7.320   3.261  0.1071  0.2934 -2.4384
    8MOL    H17 5071   2.371   7.220   3.230 -0.3923  0.3074 -0.3861
    8MOL    H18 5072   2.108   7.192   3.103  0.1409 -0.7654 -0.9102
    8MOL    H19 5073   2.231   7.086   3.054  0.9406 -0.5346 -0.2983
    8MOL    H20 5074   2.203   7.396   3.008 -1.1384 -0.9132 -0.5093
    8MOL    H21 5075   2.358   7.320   2.996  0.5728  1.4127 -1.4560
    8MOL    H22 5076   2.314   7.198   2.801 -1.4447 -0.6788 -1.6928
    8MOL    H23 5077   2.146   7.189   2.844  0.0687 -1.1569 -3.9082
    8MOL    H24 5078   2.122   7.437   2.789 -0.8592 -0.0901 -1.2604
    8MOL    H25 5079   2.128   7.324   2.663  1.9132 -0.5190 -1.1963
    8MOL    H26 5080   2.372   7.384   2.620  1.1680  2.6750 -1.9964
    8MOL    H27 5081   2.355   7.503   2.754 -0.1448 -1.6389  0.6459
    8MOL    H28 5082   2.192   7.631   2.639  2.4939  0.4102  2.2186
    8MOL    H29 5083   2.172   7.511   2.518 -0.1594 -0.1768  0.3851
    8MOL    H30 5084   2.381   7.557   2.410 -0.9948  1.2569 -0.0488
    8MOL    H31 5085   2.430   7.689   2.527  0.7008  2.7721 -1.9243
    8MOL    H32 5086   2.320   0.230   2.139  0.1282 -0.1608 -0.0078
    8MOL    H33 5087   2.168   0.314   2.166  0.2078 -2.3168 -1.3536
    8MOL    H34 5088   2.296   0.345   2.276  0.3263  2.4633 -2.7065
    8MOL    H35 5089   2.105   7.729   2.216 -0.7647 -0.2221  1.9871
    8MOL    H36 5090   2.094   0.081   2.118 -3.4729  2.0706  0.1208
    8MOL    H37 5091   2.150   0.179   2.385 -2.4135 -2.0011 -0.4256
    8MOL    C38 5092   1.574   0.545   1.589  0.6983 -0.2559 -0.2387
    8MOL    C39 5093   1.462   0.637   1.651 -0.2501 -0.4335 -0.7105
    8MOL    C40 5094   1.524   0.756   1.733 -0.6566  0.0020 -0.2047
    8MOL    C41 5095   1.638   0.727   1.831 -0.5219 -0.2350  0.6012
    8MOL    C42 5096   1.616   0.612   1.941 -0.0779  0.0393  0.5717
    8MOL    C43 5097   1.740   0.606   2.035  0.8792  0.7432 -0.4010
    8MOL    C44 5098   1.754   0.461   2.090  0.1441  0.1463  0.0282
    8MOL    C45 5099   1.891   0.424   2.153 -0.8187  0.7546  0.5501
    8MOL    O46 5100   1.904   0.279   2.167  0.1349  0.1059 -0.1312
    8MOL    C47 5101   1.902   0.219   2.286  0.4916  0.0970 -0.6059
    8MOL    O48 5102   1.878   0.277   2.388  0.0662 -0.2558  0.0587
    8MOL    C49 5103   1.947   0.069   2.282  0.4884 -0.8442  0.3063
    8MOL    C50 5104   1.936   0.003   2.419 -0.8542 -0.3544  0.4501
    8MOL    C51 5105   1.854   7.770   2.182  0.2576 -0.4743 -0.0824
    8MOL    H52 5106   1.620   0.486   1.669  1.6888  0.9953  0.1463
    8MOL    H53 5107   1.653   0.603   1.542  2.6177 -2.0924  0.6244
    8MOL    H54 5108   1.538   0.469   1.521  1.7983 -1.0736  0.0725
    8MOL    H55 5109   1.400   0.584   1.723  1.4355  1.6284  2.3758
    8MOL    H56 5110   1.401   0.679   1.571  1.8481  1.2353 -1.4760
    8MOL    H57 5111   1.556   0.832   1.662  0.1597  1.5003  1.7116
    8MOL    H58 5112   1.439   0.801   1.784  0.1124  0.8642  0.3373
    8MOL    H59 5113   1.674   0.819   1.877 -1.1129  1.0051 -1.4039
    8MOL    H60 5114   1.727   0.711   1.770  0.2001 -1.3502  1.9050
    8MOL    H61 5115   1.516   0.625   1.982 -0.4356 -1.8505  0.3281
    8MOL    H62 5116   1.611   0.519   1.885 -0.3519  0.1202  0.4631
    8MOL    H63 5117   1.830   0.637   1.981  1.8102  1.3961  1.4623
    8MOL    H64 5118   1.715   0.651   2.131  0.3157 -0.7254  0.1597
    8MOL    H65 5119   1.740   0.391   2.007 -0.1949 -0.0686  0.2644
    8MOL    H66 5120   1.682   0.440   2.169  0.3981 -2.1160 -0.3221
    8MOL    H67 5121   1.900   0.471   2.251 -1.7338  0.2426  0.8845
    8MOL    H68 5122   1.973   0.461   2.091 -0.6395  1.4783  1.2161
    8MOL    H69 5123   1.836   0.030   2.453 -1.5948  0.4666 -2.2399
    8MOL    H70 5124   1.942   7.674   2.410 -0.1149 -0.1676 -1.6293
    8MOL    H71 5125   2.012   0.035   2.491  0.6482 -0.6599 -0.9792
    8MOL    H72 5126   1.889   7.668   2.171 -1.9386 -1.9519  5.1341
    8MOL    H73 5127   1.880   0.036   2.086 -1.7773  0.2324 -0.3379
    8MOL    C74 5128   1.952   7.422   3.269 -0.3329 -0.1800 -0.2224
    8MOL    C75 5129   1.817   7.393   3.192 -0.8604 -0.2135  0.7237
    8MOL    C76 5130   1.824   7.464   3.050 -0.8793 -0.0676 -0.4086
    8MOL    C77 5131   1.728   7.417   2.945  0.4265  0.2342 -0.5965
    8MOL    C78 5132   1.779   7.476   2.809  0.4882  0.4590  1.0729
    8MOL    C79 5133   1.684   7.462   2.690  0.1448 -0.5764 -0.6468
    8MOL    C80 5134   1.731   7.544   2.579 -0.7436  0.2331  0.0942
    8MOL    C81 5135   1.636   7.522   2.457  0.5190 -0.4582  1.0103
    8MOL    O82 5136   1.686   7.589   2.343 -0.0234 -0.0752  0.0514
    8MOL    C83 5137   1.640   7.721   2.314  0.8355 -0.4287  0.1411
    8MOL    O84 5138   1.547   7.775   2.376 -0.0677 -1.1697 -0.1633
    8MOL    C85 5139   1.694   7.777   2.179 -0.5718 -0.0878 -0.2774
    8MOL    C86 5140   1.632   0.139   2.158 -0.6963  0.0967 -0.0863
    8MOL    C87 5141   1.659   7.679   2.060  0.7602  0.0801 -0.0888
    8MOL    H88 5142   1.952   7.375   3.367 -1.5324 -1.8738 -0.9894
    8MOL    H89 5143   1.980   7.527   3.279 -0.4580 -0.2131  0.5160
    8MOL    H90 5144   2.029   7.379   3.205  1.5413 -0.5992  2.2792
    8MOL    H91 5145   1.726   7.428   3.242  0.5969  1.5805  2.2172
    8MOL    H92 5146   1.817   7.284   3.191 -0.3202 -0.2083 -1.4118
    8MOL    H93 5147   1.824   7.572   3.061  0.8021 -0.1587  0.7592
    8MOL    H94 5148   1.925   7.446   3.014 -2.1551 -0.6449 -3.9294
    8MOL    H95 5149   1.631   7.452   2.981  0.6807  1.2726 -0.9007
    8MOL    H96 5150   1.719   7.309   2.950 -0.1477  0.3115  0.2795
    8MOL    H97 5151   1.818   7.578   2.814  1.9494  0.1078 -1.9021
    8MOL    H98 5152   1.864   7.414   2.779 -1.8971 -1.2568 -2.4645
    8MOL    H99 5153   1.672   7.356   2.667 -0.0630 -1.2721  2.4094
    8MOL   H100 5154   1.582   7.489   2.720 -0.1015 -2.8038  0.6466
    8MOL   H101 5155   1.728   7.651   2.601 -0.1225  0.3206 -0.2175
    8MOL   H102 5156   1.833   7.522   2.548  0.1542  1.4605  2.0903
    8MOL   H103 5157   1.534   7.553   2.478  0.2547 -0.0193 -0.8048
    8MOL   H104 5158   1.621   7.418   2.425 -1.7433  0.1209  0.0317
    8MOL   H105 5159   1.528   0.130   2.128 -0.8075 -0.8442  0.5416
    8MOL   H106 5160   1.676   0.194   2.075 -0.2314  2.0875  1.4428
    8MOL   H107 5161   1.640   0.192   2.252 -3.6213  0.3521  0.0463
    8MOL   H108 5162   1.741   7.670   1.988  0.6263  1.5633 -0.4298
    8MOL   H109 5163   1.652   7.581   2.109  1.2353 -0.7047 -1.5457
    8MOL   C110 5164   0.931   0.778   1.895 -0.1394  0.6063  0.3958
    8MOL   C111 5165   1.041   0.679   1.837  0.4937 -0.3760  1.1060
    8MOL   C112 5166   0.977   0.593   1.729  0.7177  0.0785 -0.3188
    8MOL   C113 5167   1.084   0.524   1.641  0.0869 -0.1078  0.4252
    8MOL   C114 5168   1.149   0.417   1.734  0.2905  0.3050  0.4741
    8MOL   C115 5169   1.233   0.309   1.662  0.0177 -0.0937  0.2180
    8MOL   C116 5170   1.275   0.200   1.767 -1.2091 -0.6096  0.7024
    8MOL   C117 5171   1.351   0.079   1.719  0.4329  0.6081  0.3342
    8MOL   O118 5172   1.381   7.779   1.832 -0.3066 -0.1994  0.0032
    8MOL   C119 5173   1.501   0.004   1.891  0.0242 -0.4360 -0.7229
    8MOL   O120 5174   1.595   0.078   1.852  0.1346  0.2023 -0.0589
    8MOL   C121 5175   1.520   7.664   1.989 -0.2891 -0.0597 -0.6752
    8MOL   C122 5176   1.406   7.665   2.095  0.2492 -0.3656 -0.4203
    8MOL   C123 5177   1.501   7.521   1.915 -0.1703 -0.3648 -0.0044
    8MOL   H124 5178   0.904   0.851   1.819 -1.5390 -0.1198  0.1818
    8MOL   H125 5179   0.848   0.713   1.921  2.2823 -2.0918  1.7454
    8MOL   H126 5180   0.967   0.824   1.986  1.5959 -0.5595  0.3319
    8MOL   H127 5181   1.084   0.617   1.916  2.7463 -1.8686 -1.2204
    8MOL   H128 5182   1.123   0.738   1.798  0.3447 -1.5905 -1.1431
    8MOL   H129 5183   0.903   0.652   1.674  0.7176 -0.7909 -1.2689
    8MOL   H130 5184   0.913   0.518   1.774  0.8216  0.4222  0.4103
    8MOL   H131 5185   1.041   0.487   1.548 -1.7211  0.0220  1.1913
    8MOL   H132 5186   1.156   0.597   1.604  0.8870 -0.2041  1.7495
    8MOL   H133 5187   1.069   0.356   1.775 -0.7551 -0.0768 -2.0039
    8MOL   H134 5188   1.206   0.462   1.815  0.5482  2.3318 -0.7899
    8MOL   H135 5189   1.181   0.271   1.574  0.1513  2.7714 -1.1558
    8MOL   H136 5190   1.318   0.361   1.618 -0.1355  1.0082  1.2108
    8MOL   H137 5191   1.189   0.167   1.825  0.3522 -0.3337  3.2966
    8MOL   H138 5192   1.334   0.252   1.843  0.6574  0.5644 -1.4827
    8MOL   H139 5193   1.294   0.009   1.658  0.8174 -1.0053  1.7557
    8MOL   H140 5194   1.431   0.108   1.651  0.7074 -1.1975 -0.1515
    8MOL   H141 5195   1.381   7.765   2.132  0.2866 -0.8106  0.8278
    8MOL   H142 5196   1.320   7.611   2.056 -0.1498 -0.5654  0.7433
    8MOL   H143 5197   1.436   7.619   2.188 -0.9179  0.5537  0.4243
    8MOL   H144 5198   1.403   7.517   1.868 -0.2437 -2.9356  0.3020
    8MOL   H145 5199   1.484   7.456   2.000 -0.0157  1.3650  1.3910
    8MOL   C146 5200   2.280   6.988   2.462  0.2835 -0.1782  0.5529
    8MOL   C147 5201   2.167   7.079   2.501 -0.1240  0.4852  0.0128
    8MOL   C148 5202   2.032   7.012   2.491  0.3236  0.2265  0.0752
    8MOL   C149 5203   1.902   7.098   2.518  0.3217 -0.1361 -0.1171
    8MOL   C150 5204   1.869   7.223   2.439  0.0154  0.4586  1.0024
    8MOL   C151 5205   1.862   7.190   2.288 -1.0157  0.3541  0.0083
    8MOL   C152 5206   1.795   7.297   2.196 -0.1918  0.4372  0.5841
    8MOL   C153 5207   1.818   7.259   2.055 -0.3500 -0.0627 -0.2671
    8MOL   O154 5208   1.706   7.324   1.981 -0.0283  0.2478 -0.1430
    8MOL   C155 5209   1.730   7.415   1.888 -0.1361  0.4650 -0.1151
    8MOL   O156 5210   1.841   7.454   1.854  0.1439 -0.2092  0.4404
    8MOL   C157 5211   1.599   7.457   1.814  0.0932 -0.5836  0.1405
    8MOL   C158 5212   1.522   7.330   1.767  0.4932 -0.0389 -0.1254
    8MOL   C159 5213   1.633   7.552   1.692 -0.0861 -0.6796 -0.1366
    8MOL   H160 5214   2.364   7.057   2.471  0.1654 -0.0241  0.4838
    8MOL   H161 5215   2.289   6.952   2.360 -1.7524  0.2854  0.1833
    8MOL   H162 5216   2.282   6.901   2.528 -2.1740  0.0827  1.0438
    8MOL   H163 5217   2.178   7.119   2.602  1.2280  1.4599 -0.5081
    8MOL   H164 5218   2.183   7.163   2.434 -1.7260  0.4346 -0.4395
    8MOL   H165 5219   2.035   6.935   2.568 -2.0738  0.6398  0.6318
    8MOL   H166 5220   2.014   6.964   2.395  0.3813  0.9284 -0.2938
    8MOL   H167 5221   1.826   7.024   2.496 -0.8691  1.6240 -2.0965
    8MOL   H168 5222   1.906   7.128   2.623 -2.9236  1.8889 -0.5025
    8MOL   H169 5223   1.938   7.304   2.464  1.9418  0.0226 -2.4607
    8MOL   H170 5224   1.775   7.263   2.476  0.8537  3.0181  0.4884
    8MOL   H171 5225   1.802   7.103   2.263  0.0228 -0.7494  1.2352
    8MOL   H172 5226   1.965   7.186   2.254 -0.9841 -0.5378  0.2120
    8MOL   H173 5227   1.687   7.296   2.206 -0.5528  0.9051 -2.7917
    8MOL   H174 5228   1.822   7.398   2.227 -2.4290  0.5138  2.3942
    8MOL   H175 5229   1.915   7.300   2.029 -0.2882 -0.0825 -0.0714
    8MOL   H176 5230   1.821   7.151   2.041 -1.9512 -0.0879 -0.5689
    8MOL   H177 5231   1.480   7.283   1.856 -1.6716  1.2731 -0.4175
    8MOL   H178 5232   1.580   7.254   1.715 -0.0092 -0.4083 -0.1485
    8MOL   H179 5233   1.436   7.366   1.712 -0.6352 -1.3941  0.7236
    8MOL   H180 5234   1.705   7.626   1.724  2.2719 -2.7126 -0.5525
    8MOL   H181 5235   1.548   7.619   1.680 -0.1415 -0.7470 -0.1242
    8MOL   C182 5236   0.808   0.326   1.456  0.0306  0.0576  0.0851
    8MOL   C183 5237   0.822   0.243   1.589  0.0098 -0.2863 -0.0705
    8MOL   C184 5238   0.824   0.092   1.553  0.0847 -0.2968  0.5123
    8MOL   C185 5239   0.961   0.046   1.509  0.5656  0.3583 -0.4182
    8MOL   C186 5240   0.958   7.679   1.466 -0.4774  0.1221 -0.2006
    8MOL   C187 5241   1.074   7.612   1.406  0.2740  0.5992  0.0224
    8MOL   C188 5242   1.207   7.601   1.482 -0.9317  0.0876 -0.3413
    8MOL   C189 5243   1.312   7.495   1.428 -0.2416 -0.8839  0.0729
    8MOL   O190 5244   1.437   7.530   1.486  0.5710  0.1070 -0.0789
    8MOL   C191 5245   1.548   7.446   1.478  0.7437  0.1397 -0.7819
    8MOL   O192 5246   1.547   7.341   1.414 -0.2386  0.3690  0.4063
    8MOL   C193 5247   1.672   7.503   1.543 -0.6485  1.1231  0.2510
    8MOL   C194 5248   1.790   7.392   1.553  0.9588 -0.9357 -0.0647
    8MOL   C195 5249   1.714   7.633   1.469  0.3261 -0.0429 -0.0211
    8MOL   H196 5250   0.720   0.293   1.401 -0.4795  0.8269  0.4172
    8MOL   H197 5251   0.786   0.431   1.476 -0.1475  0.2702 -1.1814
    8MOL   H198 5252   0.897   0.317   1.394 -0.0334  3.1908 -0.5712
    8MOL   H199 5253   0.744   0.265   1.663  2.1795  2.2626  1.5311
    8MOL   H200 5254   0.916   0.254   1.643  0.2961 -1.2428 -0.3731
    8MOL   H201 5255   0.799   0.025   1.635  2.4389 -0.9856  0.7057
    8MOL   H202 5256   0.743   0.084   1.480  0.1995  0.7798  0.2529
    8MOL   H203 5257   0.993   0.101   1.420  0.4293 -2.6066 -2.3769
    8MOL   H204 5258   1.034   0.055   1.589 -0.0332  0.5012  0.1126
    8MOL   H205 5259   0.874   7.663   1.399 -0.0096  1.0357 -1.0109
    8MOL   H206 5260   0.932   7.618   1.553 -1.6006  0.7847 -0.0750
    8MOL   H207 5261   1.097   7.678   1.323 -1.5954  2.0176  0.6195
    8MOL   H208 5262   1.042   7.518   1.360  0.9386  0.2938  0.1718
    8MOL   H209 5263   1.255   7.698   1.467 -1.5948  0.5407  0.4440
    8MOL   H210 5264   1.199   7.577   1.588 -0.2419  0.6096 -0.1701
    8MOL   H211 5265   1.325   7.508   1.320 -0.3473 -0.0644  0.1570
    8MOL   H212 5266   1.281   7.393   1.451 -1.4415 -0.9805 -1.8582
    8MOL   H213 5267   1.766   7.299   1.605  1.0910 -0.2099  1.2963
    8MOL   H214 5268   1.832   7.357   1.459  0.3956 -2.0900  0.1055
    8MOL   H215 5269   1.881   7.424   1.603  1.3927 -1.5943 -0.4157
    8MOL   H216 5270   1.630   7.700   1.489 -0.7967 -1.7164  1.0649
    8MOL   H217 5271   1.792   7.680   1.527 -0.3884  0.3182  0.6510
    8MOL   C218 5272   2.137   7.590   1.796 -0.0102 -0.0384  0.1121
    8MOL   C219 5273   2.143   7.744   1.780 -0.3106  0.1192 -0.1265
    8MOL   C220 5274   2.005   0.032   1.797 -0.2941 -0.7248  0.5120
    8MOL   C221 5275   2.017   0.189   1.775 -0.5916  0.2707 -0.0071
    8MOL   C222 5276   1.876   0.257   1.765 -0.1470  0.5650 -0.4874
    8MOL   C223 5277   1.793   0.224   1.630 -0.6896 -0.1553 -0.7371
    8MOL   C224 5278   1.874   0.277   1.503 -0.2318  0.3247 -0.0367
    8MOL   C225 5279   1.831   0.218   1.369 -0.1734  0.6379  0.7243
    8MOL   O226 5280   1.833   0.081   1.383  0.5193 -0.1745 -0.2276
    8MOL   C227 5281   1.770   0.005   1.287  0.1769  0.0418  0.6353
    8MOL   O228 5282   1.717   0.046   1.189  0.5955 -0.0925  0.1079
    8MOL   C229 5283   1.771   7.631   1.323 -0.3750 -0.4181 -0.0039
    8MOL   C230 5284   1.686   7.560   1.220 -0.2838  0.1622  0.0424
    8MOL   C231 5285   1.916   7.569   1.313 -0.3676 -0.0022 -0.1821
    8MOL   H232 5286   2.085   7.567   1.889  0.1321 -1.9008 -0.2344
    8MOL   H233 5287   2.235   7.541   1.801 -0.8291 -1.6533  0.7446
    8MOL   H234 5288   2.084   7.539   1.715 -0.6236  1.2435 -0.2919
    8MOL   H235 5289   2.184   7.775   1.684  1.0959 -2.4562 -0.4068
    8MOL   H236 5290   2.225   0.001   1.843  1.5196 -0.7398 -1.9688
    8MOL   H237 5291   1.939   0.000   1.716 -0.5193 -0.8407  0.7418
    8MOL   H238 5292   1.955   7.778   1.887 -1.4843  1.8119  0.8409
    8MOL   H239 5293   2.059   0.237   1.863  0.4780 -0.3617 -0.1604
    8MOL   H240 5294   2.080   0.211   1.689  0.2379 -1.1466  0.2299
    8MOL   H241 5295   1.820   0.222   1.852  1.8290 -1.6067 -0.0415
    8MOL   H242 5296   1.886   0.364   1.778  3.0577  0.4083 -1.2012
    8MOL   H243 5297   1.768   0.118   1.628 -0.7462 -0.1496 -0.3232
    8MOL   H244 5298   1.699   0.278   1.630  0.0509  1.1654 -1.6007
    8MOL   H245 5299   1.980   0.279   1.529  0.4230  2.7454 -2.5789
    8MOL   H246 5300   1.856   0.384   1.492  0.7444  0.9612  3.8246
    8MOL   H247 5301   1.897   0.249   1.288 -0.6331 -1.6151 -0.5315
    8MOL   H248 5302   1.729   0.244   1.341  0.6692  2.4871 -0.7984
    8MOL   H249 5303   1.581   7.583   1.235 -0.5781 -0.4235 -1.0879
    8MOL   H250 5304   1.699   7.452   1.218  2.3422  0.3985  1.7323
    8MOL   H251 5305   1.704   7.607   1.124  0.4318  0.7793  0.4725
    8MOL   H252 5306   1.970   7.556   1.406 -0.0423  1.4562 -0.1477
    8MOL   H253 5307   1.900   7.466   1.281  3.1995 -0.7736  0.2206
    8MOL   C254 5308   1.238   7.094   0.424 -0.3157 -0.0206 -0.0253
    8MOL   C255 5309   1.334   7.208   0.445 -0.3383 -0.1550  0.5594
    8MOL   C256 5310   1.470   7.173   0.507 -0.6572  0.5532 -0.1390
    8MOL   C257 5311   1.550   7.300   0.548  0.2431  0.1223 -0.1304
    8MOL   C258 5312   1.631   7.294   0.673  0.0237  0.6084  0.5692
    8MOL   C259 5313   1.729   7.417   0.706  0.0461  0.0413 -0.2179
    8MOL   C260 5314   1.801   7.397   0.846  0.3069 -0.4169 -0.5497
    8MOL   C261 5315   1.882   7.524   0.879 -0.2376  0.7004 -0.1250
    8MOL   O262 5316   1.935   7.511   1.007 -0.3933  0.5689  0.0403
    8MOL   C263 5317   1.974   7.623   1.066 -0.2896 -0.3250 -0.9531
    8MOL   O264 5318   1.966   7.732   1.013 -0.1197 -0.2309 -0.1989
    8MOL   C265 5319   2.028   7.615   1.207  0.1370 -0.1536  0.6784
    8MOL   C266 5320   2.133   7.500   1.210  0.1350 -0.2862 -0.3116
    8MOL   C267 5321   2.098   7.752   1.260 -0.3290 -0.2131  0.2585
    8MOL   H268 5322   1.241   7.025   0.507  0.6779  0.5918  0.4510
    8MOL   H269 5323   1.133   7.118   0.409 -1.0115 -2.1349  1.3894
    8MOL   H270 5324   1.279   7.042   0.337 -3.0737 -0.2624 -1.2320
    8MOL   H271 5325   1.349   7.259   0.349 -1.5413 -0.1215  0.3895
    8MOL   H272 5326   1.281   7.281   0.506 -0.2475  2.6566 -2.5479
    8MOL   H273 5327   1.522   7.101   0.443  1.4086  0.9493  1.0562
    8MOL   H274 5328   1.455   7.121   0.601  0.4110  0.3598 -0.0754
    8MOL   H275 5329   1.483   7.385   0.548 -1.1944 -0.9759  1.5538
    8MOL   H276 5330   1.610   7.340   0.466 -0.0264  0.2404 -0.2670
    8MOL   H277 5331   1.560   7.286   0.755 -0.1082  1.0022  0.4965
    8MOL   H278 5332   1.690   7.202   0.683  1.1541  1.2708  0.1306
    8MOL   H279 5333   1.680   7.511   0.680 -1.9752 -1.0659 -0.5472
    8MOL   H280 5334   1.805   7.399   0.630 -0.4288  1.0715 -0.9487
    8MOL   H281 5335   1.726   7.375   0.922 -0.5914  0.7859 -1.0705
    8MOL   H282 5336   1.859   7.306   0.830  1.4250  0.1665  0.1457
    8MOL   H283 5337   1.946   7.549   0.795  0.4234  0.1055  0.1916
    8MOL   H284 5338   1.811   7.605   0.886 -1.3286 -0.2623  0.0512
    8MOL   H285 5339   2.100   7.401   1.179 -1.1640  0.1029 -0.2298
    8MOL   H286 5340   2.221   7.525   1.151  0.3382 -1.1414 -0.3695
    8MOL   H287 5341   2.166   7.495   1.314 -1.4106 -0.7030  0.1811
    8MOL   H288 5342   2.074   7.752   1.366  1.5934 -0.9053  0.7247
    8MOL   H289 5343   2.051   0.064   1.224 -0.4187 -1.2059 -2.2372
    8MOL   C290 5344   2.593   6.933   1.827  0.6332  0.2476  0.3486
    8MOL   C291 5345   2.534   6.896   1.695  0.5426  0.1357  0.5586
    8MOL   C292 5346   2.420   6.985   1.658  0.1406  0.5622  0.4307
    8MOL   C293 5347   2.461   7.137   1.663  0.2881 -0.3315  0.0705
    8MOL   C294 5348   2.381   7.222   1.570  0.0413  0.6572 -0.1899
    8MOL   C295 5349   2.431   7.372   1.581  0.1494  0.2889 -0.7008
    8MOL   C296 5350   2.338   7.476   1.513 -1.2099 -0.4030 -0.4140
    8MOL   C297 5351   2.386   7.620   1.525  0.4440 -0.2676 -0.4333
    8MOL   O298 5352   2.307   7.701   1.437 -0.1097 -0.0835 -0.4706
    8MOL   C299 5353   2.343   7.719   1.310 -0.3481  0.4954  0.1342
    8MOL   O300 5354   2.455   7.680   1.268 -1.0306 -0.4237  0.3678
    8MOL   C301 5355   2.246   0.022   1.230 -0.3190 -0.5263 -0.2220
    8MOL   C302 5356   2.278   0.017   1.079 -0.5633 -0.5568 -0.0761
    8MOL   C303 5357   2.258   0.174   1.285  0.3655 -0.0459  0.5329
    8MOL   H304 5358   2.526   6.937   1.912 -1.6559 -1.5139 -1.3161
    8MOL   H305 5359   2.648   7.027   1.819  0.3893  0.3298 -0.4002
    8MOL   H306 5360   2.670   6.862   1.859 -1.3111 -1.9163  0.3106
    8MOL   H307 5361   2.510   6.790   1.704  1.2106  0.0206  1.0880
    8MOL   H308 5362   2.607   6.905   1.615 -1.2757 -0.2484 -1.1635
    8MOL   H309 5363   2.331   6.974   1.720 -1.4539  0.1637 -1.8399
    8MOL   H310 5364   2.400   6.969   1.552  0.8546 -0.6466  0.4632
    8MOL   H311 5365   2.463   7.178   1.764 -1.9070 -1.4914  0.6298
    8MOL   H312 5366   2.559   7.148   1.617  0.6614  0.6077  1.0685
    8MOL   H313 5367   2.375   7.201   1.463  0.9807  2.5748 -0.6427
    8MOL   H314 5368   2.274   7.216   1.590 -0.4850 -1.1221 -3.2160
    8MOL   H315 5369   2.531   7.372   1.538  0.1051  0.6869 -0.8000
    8MOL   H316 5370   2.435   7.389   1.689  1.1873 -1.7420 -0.3940
    8MOL   H317 5371   2.234   7.472   1.543 -0.6801 -0.0181  1.4927
    8MOL   H318 5372   2.344   7.446   1.408 -2.3331 -1.3665 -0.2012
    8MOL   H319 5373   2.491   7.633   1.498  1.4444 -1.5644  2.5591
    8MOL   H320 5374   2.377   7.675   1.619  1.6629 -1.6620  0.5342
    8MOL   H321 5375   2.227   0.095   1.024  1.2427 -0.3592 -1.5340
    8MOL   H322 5376   2.249   7.699   1.040 -0.3099 -0.4660 -0.4991
    8MOL   H323 5377   2.381   0.043   1.054 -0.4379 -0.2389  0.7442
    8MOL   H324 5378   2.218   0.226   1.198  1.0818 -2.0146 -1.0150
    8MOL   H325 5379   2.193   0.171   1.372 -1.6807 -0.7444 -0.9694
    8MOL   C326 5380   3.034   0.368   0.924 -0.0566  0.2080 -0.6096
    8MOL   C327 5381   3.100   0.312   1.049 -0.0563  0.4774 -1.0896
    8MOL   C328 5382   3.029   0.341   1.180 -0.2421  0.4558  0.4498
    8MOL   C329 5383   3.090   0.284   1.313 -0.2721 -0.1651  0.2044
    8MOL   C330 5384   2.993   0.279   1.432 -0.1287 -0.1165  0.1053
    8MOL   C331 5385   2.894   0.161   1.416  0.2130  0.0653 -0.3558
    8MOL   C332 5386   2.794   0.161   1.535 -0.2157 -0.2332  0.9399
    8MOL   C333 5387   2.665   0.087   1.504 -0.1189  0.2900 -0.4507
    8MOL   O334 5388   2.583   0.158   1.415  0.1292  0.2852  0.0846
    8MOL   C335 5389   2.469   0.192   1.443 -0.4146 -0.7108 -0.0959
    8MOL   O336 5390   2.416   0.185   1.554  0.1644  0.3207 -0.1700
    8MOL   C337 5391   2.397   0.252   1.316 -0.1173 -0.4751  0.1167
    8MOL   C338 5392   2.474   0.245   1.186 -0.4664  0.0990 -0.2333
    8MOL   C339 5393   2.350   0.403   1.343  0.8354 -0.8181  0.0627
    8MOL   H340 5394   3.005   0.472   0.932  0.8340  0.5037 -1.1392
    8MOL   H341 5395   2.935   0.322   0.913 -0.6300  1.0565  0.9160
    8MOL   H342 5396   3.100   0.359   0.838 -0.0599 -1.2112 -0.4801
    8MOL   H343 5397   3.201   0.352   1.050 -0.2966  1.0733  0.3866
    8MOL   H344 5398   3.098   0.203   1.047 -1.2828  0.4823 -0.9134
    8MOL   H345 5399   2.926   0.309   1.169 -0.9106  2.4265  0.9165
    8MOL   H346 5400   3.017   0.448   1.190  2.2989  0.7332  1.0462
    8MOL   H347 5401   3.164   0.359   1.343 -0.8069  0.8170 -0.9262
    8MOL   H348 5402   3.130   0.185   1.289  0.0061 -0.0268  0.0946
    8MOL   H349 5403   3.048   0.263   1.524 -0.7162  2.2943  0.9145
    8MOL   H350 5404   2.941   0.375   1.438  0.5048  0.2756 -0.6752
    8MOL   H351 5405   2.829   0.179   1.331 -0.2323  0.3604  0.0434
    8MOL   H352 5406   2.948   0.071   1.386  2.6800  1.5925 -0.6571
    8MOL   H353 5407   2.772   0.259   1.577  0.3370 -0.4494  1.7446
    8MOL   H354 5408   2.836   0.108   1.620 -1.8166  1.4705  2.8550
    8MOL   H355 5409   2.689   7.768   1.464 -1.2149 -0.8274  1.5509
    8MOL   H356 5410   2.626   0.082   1.605  0.4277  0.6565 -0.2250
    8MOL   H357 5411   2.416   0.277   1.100 -0.0795  0.8620 -0.2123
    8MOL   H358 5412   2.565   0.304   1.200 -0.5095  0.4561 -1.4502
    8MOL   H359 5413   2.513   0.150   1.150 -0.9576  0.0753 -0.6989
    8MOL   H360 5414   2.285   0.432   1.260  0.9804 -1.8941 -0.4430
    8MOL   H361 5415   2.305   0.396   1.442 -0.0907 -0.0757 -0.2965
    8MOL   C362 5416   3.422   1.000   1.570  0.3531  0.0322  0.8142
    8MOL   C363 5417   3.286   0.936   1.560 -0.3429 -0.2060 -0.2133
    8MOL   C364 5418   3.234   0.874   1.431 -0.2435 -0.8185 -0.1483
    8MOL   C365 5419   3.080   0.875   1.416  0.0204 -0.2205  0.1433
    8MOL   C366 5420   3.038   0.812   1.286  0.3071 -0.1287  0.3299
    8MOL   C367 5421   2.889   0.812   1.259 -0.3740  0.5307 -0.1357
    8MOL   C368 5422   2.832   0.713   1.153 -0.4779  1.1240  0.3610
    8MOL   C369 5423   2.679   0.729   1.136 -0.4388  0.5720  0.1167
    8MOL   O370 5424   2.600   0.684   1.248 -0.7391 -0.0485  0.0211
    8MOL   C371 5425   2.513   0.580   1.230 -0.0246  0.3569 -0.1590
    8MOL   O372 5426   2.483   0.532   1.119 -0.4412  0.2918 -0.0167
    8MOL   C373 5427   2.452   0.521   1.362  0.5377  0.6946 -0.4664
    8MOL   C374 5428   2.573   0.481   1.449  0.1863 -0.4906  0.3928
    8MOL   C375 5429   2.385   0.628   1.448  1.3993 -0.9851 -0.4760
    8MOL   H376 5430   3.470   0.965   1.661  0.3120 -0.9711  0.4550
    8MOL   H377 5431   3.489   0.960   1.494 -0.7086 -0.3791  0.0748
    8MOL   H378 5432   3.435   1.108   1.571  0.1432  0.0781 -0.2382
    8MOL   H379 5433   3.214   0.994   1.616 -3.0835 -2.2646 -1.4704
    8MOL   H380 5434   3.297   0.849   1.625 -2.3212  1.1374  2.0013
    8MOL   H381 5435   3.290   0.782   1.415 -0.1550 -0.8486  0.3180
    8MOL   H382 5436   3.278   0.946   1.362  0.7471 -0.9181  0.3694
    8MOL   H383 5437   3.033   0.973   1.424  0.0091 -0.1165 -1.0720
    8MOL   H384 5438   3.035   0.816   1.495 -1.2275  0.5406  0.0182
    8MOL   H385 5439   3.082   0.867   1.203  0.8880 -1.4541 -0.2562
    8MOL   H386 5440   3.062   0.706   1.282 -1.6608 -0.5279 -1.3178
    8MOL   H387 5441   2.866   0.918   1.243 -1.4977  0.2261 -0.5592
    8MOL   H388 5442   2.841   0.795   1.355 -0.2531  1.5810  0.1225
    8MOL   H389 5443   2.845   0.612   1.193  1.6126  1.4898  0.6619
    8MOL   H390 5444   2.872   0.721   1.052 -1.5504  2.4370  0.0312
    8MOL   H391 5445   2.661   0.836   1.124  0.4821  0.4926 -2.3209
    8MOL   H392 5446   2.646   0.680   1.044 -0.1635  0.0245  0.3121
    8MOL   H393 5447   2.534   0.427   1.535 -0.5581 -0.5119  0.0533
    8MOL   H394 5448   2.656   0.426   1.406  0.0132  1.4114 -2.4913
    8MOL   H395 5449   2.625   0.571   1.484 -1.2507  0.6577 -0.3487
    8MOL   H396 5450   2.378   0.592   1.550  1.3169 -0.2296 -0.2126
    8MOL   H397 5451   2.449   0.712   1.473 -1.0930  0.4906  1.1903
    8MOL   C398 5452   3.051   1.271   1.100 -0.1643  0.0934 -0.5545
    8MOL   C399 5453   2.938   1.178   1.141  0.5093  0.2671  0.2095
    8MOL   C400 5454   2.792   1.248   1.135  0.5477  0.4614  0.1775
    8MOL   C401 5455   2.676   1.136   1.161  1.0869 -0.3420  0.3415
    8MOL   C402 5456   2.535   1.193   1.189 -0.0325  0.1004 -0.1077
    8MOL   C403 5457   2.419   1.089   1.207  0.5682 -0.1469  0.1421
    8MOL   C404 5458   2.411   0.991   1.089  0.0077  0.6902 -0.3322
    8MOL   C405 5459   2.299   0.886   1.109 -0.2187  0.6052 -0.5940
    8MOL   O406 5460   2.314   0.823   1.236 -0.1749 -1.0577  0.3356
    8MOL   C407 5461   2.230   0.728   1.272  0.2362  0.0692 -0.6351
    8MOL   O408 5462   2.140   0.689   1.194  0.5116 -0.1883  0.0978
    8MOL   C409 5463   2.236   0.688   1.418 -0.1196 -0.6442 -0.4702
    8MOL   C410 5464   2.126   0.586   1.455  0.2419 -0.3416  0.7258
    8MOL   C411 5465   2.224   0.811   1.518  0.3594 -0.1969 -0.7016
    8MOL   H412 5466   3.056   1.363   1.159 -0.3735 -0.3854  0.2085
    8MOL   H413 5467   3.037   1.304   0.997  1.1401 -0.7412 -1.0102
    8MOL   H414 5468   3.145   1.216   1.108  1.0569  2.0521 -0.9145
    8MOL   H415 5469   2.957   1.146   1.244 -1.7953 -3.8528 -0.5589
    8MOL   H416 5470   2.938   1.074   1.109  1.2506  0.6353 -0.9979
    8MOL   H417 5471   2.800   1.322   1.214 -0.3756  0.6593  0.0875
    8MOL   H418 5472   2.787   1.314   1.049 -0.7372  1.0953  0.7337
    8MOL   H419 5473   2.704   1.066   1.239  1.1122 -0.6245  0.0796
    8MOL   H420 5474   2.669   1.062   1.081 -0.2207 -1.1615  1.1993
    8MOL   H421 5475   2.549   1.252   1.280  0.8354  0.0270 -0.1860
    8MOL   H422 5476   2.507   1.272   1.119  0.8341  0.6030  0.0998
    8MOL   H423 5477   2.324   1.140   1.223 -0.3503 -1.2178 -1.7979
    8MOL   H424 5478   2.434   1.035   1.301 -0.2355 -2.8503 -1.2731
    8MOL   H425 5479   2.402   1.047   0.996  2.7078  0.1179 -0.9723
    8MOL   H426 5480   2.506   0.939   1.079 -0.5142 -0.7055  1.8002
    8MOL   H427 5481   2.207   0.942   1.097  0.2852  1.8093  1.0382
    8MOL   H428 5482   2.292   0.806   1.035  0.1234  0.5260 -0.5442
    8MOL   H429 5483   2.026   0.628   1.441 -0.1712 -1.3175  0.7174
    8MOL   H430 5484   2.131   0.543   1.555 -1.6966 -0.1530  0.9319
    8MOL   H431 5485   2.116   0.500   1.389 -0.8905 -1.2030  1.9842
    8MOL   H432 5486   2.315   0.867   1.496  0.7600 -0.0905  1.1814
    8MOL   H433 5487   2.248   0.781   1.620 -1.2221 -0.9244 -0.5352
    8MOL   C434 5488   2.700   0.797   2.313 -0.2208  0.5002  0.1783
    8MOL   C435 5489   2.655   0.830   2.176  0.2976 -0.3083  0.4269
    8MOL   C436 5490   2.720   0.965   2.124 -0.8641  0.1542  0.1925
    8MOL   C437 5491   2.669   0.999   1.983 -0.0896  0.3466  0.4755
    8MOL   C438 5492   2.528   1.067   1.975  0.1965 -0.8125 -0.3591
    8MOL   C439 5493   2.482   1.099   1.837 -0.3509 -0.9481  0.1209
    8MOL   C440 5494   2.354   1.171   1.824 -0.2004 -0.3435  0.7131
    8MOL   C441 5495   2.319   1.200   1.676  0.9025  0.5908 -0.4635
    8MOL   O442 5496   2.274   1.077   1.612 -0.1884  0.1582  0.5853
    8MOL   C443 5497   2.149   1.026   1.628 -0.4102 -0.8349 -0.1020
    8MOL   O444 5498   2.068   1.078   1.714 -0.1562  0.6830 -0.1464
    8MOL   C445 5499   2.103   0.916   1.529 -0.2796  0.1755 -0.4218
    8MOL   C446 5500   1.982   0.841   1.588 -0.4844  0.3431  0.5197
    8MOL   C447 5501   2.067   0.979   1.382  0.1590 -0.3223 -1.0334
    8MOL   H448 5502   2.655   0.879   2.368 -3.4995 -1.9895  1.3364
    8MOL   H449 5503   2.807   0.811   2.332 -0.4372  0.5626  1.4356
    8MOL   H450 5504   2.659   0.703   2.350 -1.5173  1.7194  1.9280
    8MOL   H451 5505   2.548   0.846   2.169  0.3782 -0.5823 -1.9205
    8MOL   H452 5506   2.693   0.751   2.110  0.6026 -1.0897  1.5199
    8MOL   H453 5507   2.827   0.946   2.118 -0.9673 -0.5945  0.6809
    8MOL   H454 5508   2.716   1.050   2.192 -1.0049  0.4574 -0.1902
    8MOL   H455 5509   2.659   0.908   1.924 -2.3011  0.5344  0.5006
    8MOL   H456 5510   2.751   1.047   1.931 -0.2340 -1.1053 -1.1205
    8MOL   H457 5511   2.455   0.995   2.014  2.3662 -2.1014  1.5126
    8MOL   H458 5512   2.520   1.154   2.040  2.3346  0.3875 -1.6770
    8MOL   H459 5513   2.472   1.006   1.782  0.7735 -0.5253 -0.8270
    8MOL   H460 5514   2.554   1.147   1.770 -1.6568 -1.7719 -1.9155
    8MOL   H461 5515   2.273   1.109   1.864 -0.3404 -0.4098  0.3319
    8MOL   H462 5516   2.367   1.262   1.882  1.6801 -1.3913  1.9879
    8MOL   H463 5517   2.403   1.230   1.614  0.9257 -1.4161 -1.4608
    8MOL   H464 5518   2.239   1.273   1.677 -0.6985 -1.1261  0.8818
    8MOL   H465 5519   2.023   0.772   1.661  0.6296 -0.3809 -0.7652
    8MOL   H466 5520   1.903   0.896   1.640 -0.9679  0.2805 -0.1463
    8MOL   H467 5521   1.927   0.782   1.515  1.2755  0.2187 -0.7346
    8MOL   H468 5522   2.158   1.005   1.328  0.5471 -1.6976 -1.0521
    8MOL   H469 5523   2.016   0.895   1.337  1.4216 -1.5717 -0.1737
    8MOL   C470 5524   2.262   1.557   0.438 -0.0284 -0.0008 -0.3959
    8MOL   C471 5525   2.121   1.507   0.387  0.0914 -0.3970  0.0339
    8MOL   C472 5526   2.026   1.475   0.502 -0.0846  0.2623 -0.1594
    8MOL   C473 5527   2.064   1.348   0.574  0.4693 -0.2895 -0.1868
    8MOL   C474 5528   1.966   1.313   0.692  0.6360  0.5738 -0.4320
    8MOL   C475 5529   2.001   1.178   0.766  0.1545  0.3091  0.8023
    8MOL   C476 5530   1.968   1.187   0.916 -0.0821  0.1345  0.7465
    8MOL   C477 5531   1.971   1.043   0.972 -0.0527 -0.2753 -0.0031
    8MOL   O478 5532   2.008   1.070   1.113  0.1207  0.6895 -0.3334
    8MOL   C479 5533   1.911   1.096   1.204  0.0449  0.3443  0.4438
    8MOL   O480 5534   1.790   1.111   1.172 -0.0453 -0.3979 -0.2853
    8MOL   C481 5535   1.963   1.101   1.349 -0.8158  0.5650 -0.3619
    8MOL   C482 5536   1.842   1.095   1.442 -0.3690  0.7423  0.1198
    8MOL   C483 5537   2.046   1.232   1.366  0.3916 -0.0112  0.4804
    8MOL   H484 5538   2.311   1.470   0.482 -1.7958  0.2818  2.2461
    8MOL   H485 5539   2.247   1.640   0.508  0.1532 -0.2464 -0.0630
    8MOL   H486 5540   2.329   1.589   0.359  0.9782  0.3647  0.5876
    8MOL   H487 5541   2.081   1.583   0.320 -2.2665 -0.8037  0.9271
    8MOL   H488 5542   2.129   1.417   0.326 -1.1621 -0.0060 -0.7077
    8MOL   H489 5543   2.015   1.554   0.576 -0.6989  0.2378 -0.2156
    8MOL   H490 5544   1.923   1.467   0.466 -0.0296 -0.9346 -0.0716
    8MOL   H491 5545   2.073   1.267   0.501  0.0085  1.4801 -2.2698
    8MOL   H492 5546   2.158   1.358   0.628 -0.3787 -0.3566  1.3221
    8MOL   H493 5547   1.965   1.398   0.760  1.2084  1.2543 -1.2542
    8MOL   H494 5548   1.868   1.305   0.646  0.8614 -0.4324 -0.7554
    8MOL   H495 5549   1.936   1.104   0.719  1.0936 -1.5019  2.2838
    8MOL   H496 5550   2.105   1.150   0.746  0.6314  2.9580 -0.6468
    8MOL   H497 5551   2.023   1.264   0.971  0.2916  0.3834  0.0340
    8MOL   H498 5552   1.867   1.226   0.925 -0.0688  0.2924  0.2416
    8MOL   H499 5553   2.054   0.989   0.927  0.4781  0.7783 -0.3287
    8MOL   H500 5554   1.878   0.988   0.959  0.2543 -0.8403  0.1941
    8MOL   H501 5555   1.796   0.998   1.462 -1.0971  0.5237 -2.4519
    8MOL   H502 5556   1.761   1.163   1.418 -0.2765  0.4120 -1.1331
    8MOL   H503 5557   1.882   1.132   1.537  0.6832  3.6035 -1.3825
    8MOL   H504 5558   2.120   1.221   1.445  1.8218 -0.2895 -0.8738
    8MOL   H505 5559   2.113   1.247   1.281  0.0947  1.0385  0.4215
    8MOL   C506 5560   2.072   1.453   2.630 -0.9887  0.2936 -0.0661
    8MOL   C507 5561   2.008   1.398   2.507 -0.6340 -0.3562 -0.1554
    8MOL   C508 5562   2.091   1.430   2.383  0.2055 -0.0364  0.0105
    8MOL   C509 5563   2.025   1.368   2.251 -0.2018  0.7507  0.2769
    8MOL   C510 5564   2.076   1.406   2.110 -0.8033  0.0404 -0.1772
    8MOL   C511 5565   1.977   1.377   1.995 -0.0465 -0.3924  0.3751
    8MOL   C512 5566   2.047   1.393   1.857  0.4553  0.2908  0.6102
    8MOL   C513 5567   1.944   1.379   1.748 -0.3201  0.1006 -0.2511
    8MOL   O514 5568   2.000   1.385   1.619  0.1109 -0.2665  0.5174
    8MOL   C515 5569   1.922   1.400   1.512 -0.3681  0.1842 -0.5299
    8MOL   O516 5570   1.801   1.409   1.516  0.1640  0.4927 -0.1539
    8MOL   C517 5571   1.996   1.377   1.377 -0.2642  0.3338  0.9447
    8MOL   C518 5572   2.136   1.451   1.397  0.1214  0.5664 -0.2050
    8MOL   C519 5573   1.910   1.419   1.261 -0.0342 -0.5050 -0.5223
    8MOL   H520 5574   2.173   1.417   2.649 -1.2016  0.2326  0.9757
    8MOL   H521 5575   2.009   1.423   2.714  2.1457 -2.3026  1.4472
    8MOL   H522 5576   2.092   1.558   2.609  0.2212 -0.2634 -1.7997
    8MOL   H523 5577   1.910   1.445   2.510  0.4539  1.9280  0.4328
    8MOL   H524 5578   1.998   1.290   2.519 -1.0392 -0.4194 -1.0257
    8MOL   H525 5579   2.087   1.538   2.370  3.8749  0.3882  1.7500
    8MOL   H526 5580   2.195   1.398   2.388 -0.5598 -2.3537  1.4272
    8MOL   H527 5581   2.016   1.259   2.259 -0.7382  0.4986 -2.9010
    8MOL   H528 5582   1.922   1.405   2.245  0.1908  2.1385  1.8748
    8MOL   H529 5583   2.102   1.512   2.109 -1.7345  0.2615 -1.0522
    8MOL   H530 5584   2.158   1.342   2.076  0.0603  0.6688  0.6991
    8MOL   H531 5585   1.898   1.451   2.002 -0.6054 -0.7897 -1.5550
    8MOL   H532 5586   1.929   1.281   2.014 -1.5205  0.5432  1.4674
    8MOL   H533 5587   2.114   1.308   1.842  2.1969  1.3320  2.2209
    8MOL   H534 5588   2.100   1.487   1.842 -1.0701  1.3705  1.7860
    8MOL   H535 5589   1.878   1.466   1.750  0.5575  0.7606  0.3180
    8MOL   H536 5590   1.886   1.287   1.758 -0.3414  0.3288  1.9549
    8MOL   H537 5591   2.195   1.456   1.305 -0.9124 -1.5789 -1.0249
    8MOL   H538 5592   2.194   1.421   1.484 -0.1319 -0.2208 -0.3060
    8MOL   H539 5593   2.115   1.556   1.419 -0.0283  0.2437  1.2202
    8MOL   H540 5594   1.949   1.389   1.164 -0.5937 -0.6140 -0.7137
    8MOL   H541 5595   1.814   1.371   1.276 -0.6403  0.9970  0.6041
    8MOL   C542 5596   2.830   1.442   0.754  0.1118  0.7152  0.0017
    8MOL   C543 5597   2.729   1.551   0.794  0.5111  0.6733  0.0325
    8MOL   C544 5598   2.586   1.515   0.758  1.1797  0.2635 -0.1532
    8MOL   C545 5599   2.530   1.394   0.837 -0.0137  0.3478  0.0594
    8MOL   C546 5600   2.385   1.368   0.813  0.5657  0.2089  0.0701
    8MOL   C547 5601   2.288   1.476   0.854  0.8666  0.1262  0.4782
    8MOL   C548 5602   2.303   1.524   1.000 -0.3772 -0.0557  0.2966
    8MOL   C549 5603   2.216   1.642   1.046  0.2088  0.3254 -0.5298
    8MOL   O550 5604   2.092   1.588   1.083  0.1709  0.5555  0.1169
    8MOL   C551 5605   2.019   1.646   1.181  0.3547  0.6910  0.8028
    8MOL   O552 5606   2.041   1.759   1.228  0.2869  0.5044  0.0388
    8MOL   C553 5607   1.879   1.576   1.227  0.2783 -0.4457  0.1304
    8MOL   C554 5608   1.828   1.658   1.345 -0.2731 -0.2175 -0.1697
    8MOL   C555 5609   1.779   1.590   1.106 -0.0578 -0.0362 -0.5115
    8MOL   H556 5610   2.930   1.481   0.774  0.0089  2.3332 -2.4602
    8MOL   H557 5611   2.821   1.427   0.647  3.9955  1.6832 -0.5201
    8MOL   H558 5612   2.813   1.349   0.809 -1.5026  0.8541 -0.2438
    8MOL   H559 5613   2.729   1.574   0.900 -1.6589 -0.4338  0.3011
    8MOL   H560 5614   2.762   1.640   0.739  3.4276 -0.5849 -0.3308
    8MOL   H561 5615   2.563   1.494   0.653 -0.8530  1.3458  0.0348
    8MOL   H562 5616   2.520   1.599   0.780 -0.7044 -1.1254 -0.3705
    8MOL   H563 5617   2.592   1.304   0.828  1.1151  1.2053 -0.9221
    8MOL   H564 5618   2.557   1.411   0.941 -0.7785  3.6117 -0.2269
    8MOL   H565 5619   2.359   1.272   0.859 -1.5141  0.8854  0.3586
    8MOL   H566 5620   2.385   1.352   0.705  0.5585 -1.0876  0.2520
    8MOL   H567 5621   2.291   1.562   0.787  0.3669  0.1191  0.4487
    8MOL   H568 5622   2.187   1.439   0.836  0.2453  2.3817 -0.8948
    8MOL   H569 5623   2.275   1.444   1.069 -1.4332 -0.1978 -0.2872
    8MOL   H570 5624   2.407   1.544   1.024 -0.5106 -1.8134  2.5040
    8MOL   H571 5625   2.202   1.721   0.973  1.1297 -0.0545 -1.1218
    8MOL   H572 5626   2.269   1.681   1.133  0.8735 -0.5567 -0.5252
    8MOL   H573 5627   1.816   1.762   1.316  1.1978 -0.0130 -0.0939
    8MOL   H574 5628   1.908   1.657   1.419 -1.0921 -0.7457  0.7180
    8MOL   H575 5629   1.736   1.619   1.387 -0.6570  1.5233  0.6221
    8MOL   H576 5630   1.828   1.561   1.013  0.7706  1.2048 -0.4717
    8MOL   H577 5631   1.768   1.697   1.093  0.7585 -0.0248 -1.1422
    8MOL   C578 5632   1.260   2.106   0.705 -0.4566 -0.0684  0.3009
    8MOL   C579 5633   1.217   2.164   0.841  0.5265 -0.2104  0.0083
    8MOL   C580 5634   1.295   2.099   0.957 -0.1613  0.3033 -0.4262
    8MOL   C581 5635   1.232   2.119   1.090 -0.3061  0.1901 -0.0839
    8MOL   C582 5636   1.325   2.088   1.210 -0.1945 -0.1791  0.3503
    8MOL   C583 5637   1.351   1.937   1.235  0.6214  0.0616 -0.0445
    8MOL   C584 5638   1.456   1.901   1.345 -0.0464 -0.5930  0.5440
    8MOL   C585 5639   1.465   1.755   1.362  0.5739 -0.3840 -0.2474
    8MOL   O586 5640   1.523   1.697   1.239  0.6651 -0.5555 -0.2894
    8MOL   C587 5641   1.541   1.564   1.227 -0.4838  0.5121  0.6173
    8MOL   O588 5642   1.486   1.485   1.297 -0.2427 -1.3383  0.5703
    8MOL   C589 5643   1.634   1.526   1.105 -0.4110 -0.3150  0.0065
    8MOL   C590 5644   1.645   1.383   1.085 -0.3889  0.5630  0.4702
    8MOL   C591 5645   1.549   1.584   0.984  0.6051  0.4511 -0.1837
    8MOL   H592 5646   1.237   2.000   0.692 -2.5265  0.4946 -0.7528
    8MOL   H593 5647   1.359   2.134   0.669 -0.1735 -1.7801 -0.3143
    8MOL   H594 5648   1.192   2.147   0.630  0.5114 -1.5703 -1.4579
    8MOL   H595 5649   1.113   2.136   0.851  0.6250 -0.2874  0.8402
    8MOL   H596 5650   1.240   2.271   0.838 -0.8155  0.0330 -2.9158
    8MOL   H597 5651   1.401   2.124   0.955  0.6061 -2.8467 -1.7445
    8MOL   H598 5652   1.302   1.991   0.943 -0.0895  0.0784  1.2904
    8MOL   H599 5653   1.130   2.083   1.097  0.1353 -0.8905  0.9589
    8MOL   H600 5654   1.205   2.224   1.095 -0.1081  0.1461  3.1183
    8MOL   H601 5655   1.281   2.133   1.299  2.4096  0.1162  1.5466
    8MOL   H602 5656   1.420   2.138   1.191 -0.1254 -0.8166 -1.0758
    8MOL   H603 5657   1.382   1.883   1.146  1.3005 -0.2481  0.3798
    8MOL   H604 5658   1.254   1.890   1.252  1.9324 -1.8701  2.1723
    8MOL   H605 5659   1.428   1.949   1.440 -1.0539  2.3121 -1.1452
    8MOL   H606 5660   1.556   1.936   1.319  0.0480 -0.0828  1.5624
    8MOL   H607 5661   1.537   1.728   1.438  0.2399 -1.8030 -0.4075
    8MOL   H608 5662   1.375   1.702   1.393  1.0286 -1.5074 -0.8335
    8MOL   H609 5663   1.643   1.326   1.177 -0.7502  0.9336  0.6963
    8MOL   H610 5664   1.558   1.341   1.033 -1.4123  2.0339  0.9421
    8MOL   H611 5665   1.735   1.345   1.037  0.8234  2.2799  1.3366
    8MOL   H612 5666   1.531   1.688   1.008  0.4037 -0.0104  1.6984
    8MOL   H613 5667   1.456   1.526   0.979 -0.1202  1.6328 -0.5278
    8MOL   C614 5668   1.800   2.611   1.470 -0.6857  0.5862  0.0606
    8MOL   C615 5669   1.868   2.542   1.349 -0.2002 -0.3586  0.2481
    8MOL   C616 5670   1.818   2.397   1.326  0.2195 -0.0687  0.4096
    8MOL   C617 5671   1.834   2.344   1.182  0.3995 -0.1412  0.4904
    8MOL   C618 5672   1.781   2.200   1.170  0.2972  0.3167 -0.6599
    8MOL   C619 5673   1.780   2.148   1.021 -0.1683 -0.3648  0.4476
    8MOL   C620 5674   1.737   1.998   1.010 -0.4953 -0.5918 -0.4183
    8MOL   C621 5675   1.684   1.973   0.864  0.1942  0.1110 -0.1643
    8MOL   O622 5676   1.630   1.842   0.852 -0.3082  0.6728 -0.5538
    8MOL   C623 5677   1.693   1.726   0.826 -0.3776  0.0073  0.0801
    8MOL   O624 5678   1.816   1.716   0.804  0.3519 -0.0269 -0.1673
    8MOL   C625 5679   1.597   1.606   0.834  0.2618  0.4654  0.4756
    8MOL   C626 5680   1.651   1.477   0.777 -0.4367 -0.5245 -0.9754
    8MOL   C627 5681   1.468   1.636   0.745 -0.3509  0.1955 -0.0750
    8MOL   H628 5682   1.829   2.566   1.565 -2.4887 -2.4738 -0.7734
    8MOL   H629 5683   1.691   2.609   1.481 -0.9834 -0.9571 -2.8282
    8MOL   H630 5684   1.825   2.717   1.471  0.1806  0.3802  1.3835
    8MOL   H631 5685   1.836   2.604   1.265  1.4644  1.3317  0.8240
    8MOL   H632 5686   1.976   2.553   1.349 -0.5181  3.4495 -0.1896
    8MOL   H633 5687   1.711   2.382   1.342 -0.2251  0.4520 -1.8994
    8MOL   H634 5688   1.874   2.335   1.396  1.2374 -0.1432 -0.4551
    8MOL   H635 5689   1.941   2.347   1.159 -0.1456 -1.7028 -2.4924
    8MOL   H636 5690   1.808   2.419   1.107 -0.1543 -1.5603 -0.7651
    8MOL   H637 5691   1.848   2.128   1.217  0.1581  0.5555 -0.0860
    8MOL   H638 5692   1.681   2.185   1.212 -0.5208  0.4918 -2.4969
    8MOL   H639 5693   1.710   2.205   0.961  0.6367  0.8686  0.6804
    8MOL   H640 5694   1.876   2.163   0.971 -0.3106 -1.8142 -0.3016
    8MOL   H641 5695   1.658   1.974   1.082 -0.3690  1.7301  0.5251
    8MOL   H642 5696   1.820   1.930   1.029 -0.4528 -0.6271 -0.7267
    8MOL   H643 5697   1.592   2.031   0.854  1.6245  2.0923 -2.3782
    8MOL   H644 5698   1.750   2.012   0.786  0.1470 -0.5112 -0.5228
    8MOL   H645 5699   1.724   1.433   0.845 -1.0479  1.1404  0.8190
    8MOL   H646 5700   1.700   1.493   0.681  0.9873 -0.5639 -0.2752
    8MOL   H647 5701   1.576   1.399   0.778 -0.2138 -0.7385  1.0379
    8MOL   H648 5702   1.436   1.731   0.789 -0.8524 -0.7991  1.7585
    8MOL   H649 5703   1.396   1.565   0.784  1.4751 -0.5730  1.9489
    8MOL   C650 5704   1.929   1.180   7.422 -0.0044  1.2027  0.3470
    8MOL   C651 5705   1.911   1.285   7.535  0.5037  0.0872 -0.1985
    8MOL   C652 5706   1.782   1.261   7.620  0.3052  0.9169  0.5920
    8MOL   C653 5707   1.745   1.377   7.710  0.0973 -1.0674  0.1673
    8MOL   C654 5708   1.638   1.334   0.034 -0.4704 -0.0550 -0.4003
    8MOL   C655 5709   1.674   1.357   0.178  0.6433  0.2377 -0.2495
    8MOL   C656 5710   1.573   1.293   0.270 -0.5731  0.4576  0.4180
    8MOL   C657 5711   1.617   1.320   0.416  0.0319 -0.1859  0.3408
    8MOL   O658 5712   1.598   1.453   0.455 -0.1307  0.2414 -0.0046
    8MOL   C659 5713   1.486   1.485   0.534  0.1020  0.6288  0.3192
    8MOL   O660 5714   1.386   1.416   0.561 -0.5760 -0.1803 -0.1086
    8MOL   C661 5715   1.484   1.636   0.579  0.0734  0.0260  0.3156
    8MOL   C662 5716   1.597   1.727   0.519 -0.0962 -0.3397 -0.5321
    8MOL   C663 5717   1.344   1.693   0.535  0.2547 -0.0359 -0.1758
    8MOL   H664 5718   2.030   1.177   7.382  0.5794 -0.7950  1.9155
    8MOL   H665 5719   1.859   1.201   7.341 -0.0379  1.0919  0.3470
    8MOL   H666 5720   1.922   1.080   7.463 -0.6478 -0.2348 -3.1141
    8MOL   H667 5721   1.916   1.386   7.495 -0.9707  1.2588  2.4615
    8MOL   H668 5722   1.992   1.284   7.608 -1.1607  2.9244  1.7943
    8MOL   H669 5723   1.805   1.180   7.690 -0.0521 -0.6806 -1.0880
    8MOL   H670 5724   1.698   1.233   7.556  0.0936  1.2284  0.7334
    8MOL   H671 5725   1.708   1.465   7.657 -0.8643 -2.1342 -0.9517
    8MOL   H672 5726   1.840   1.406   7.754 -0.4854  1.8794 -0.4184
    8MOL   H673 5727   1.609   1.229   0.029 -0.4416 -0.2117  1.8532
    8MOL   H674 5728   1.554   1.403   0.027  0.2881  0.9524  0.2658
    8MOL   H675 5729   1.775   1.323   0.204  0.0177 -2.7124 -1.5221
    8MOL   H676 5730   1.661   1.464   0.195 -1.3462 -0.0586  0.1970
    8MOL   H677 5731   1.558   1.186   0.256 -2.3555  0.6946  0.3663
    8MOL   H678 5732   1.477   1.342   0.254 -0.4800 -0.3552 -3.1231
    8MOL   H679 5733   1.721   1.298   0.437  1.3338  2.3522 -3.0293
    8MOL   H680 5734   1.559   1.246   0.472 -1.1451 -1.9338 -3.0568
    8MOL   H681 5735   1.584   1.753   0.414  2.9077  1.3340 -0.5322
    8MOL   H682 5736   1.695   1.690   0.547 -0.2352 -0.6994 -0.5242
    8MOL   H683 5737   1.592   1.818   0.579 -0.8716  1.3832 -3.1439
    8MOL   H684 5738   1.260   1.629   0.562 -1.4108  0.9228 -2.8518
    8MOL   H685 5739   1.339   1.780   0.600  0.2361  1.1551 -1.7275
    8MOL   C686 5740   1.679   2.604   7.715 -0.6173 -0.3987 -0.3059
    8MOL   C687 5741   1.782   2.601   0.051  0.1699 -0.1986  0.2933
    8MOL   C688 5742   1.761   2.484   0.149  0.1760 -0.3345  0.8646
    8MOL   C689 5743   1.806   2.347   0.092 -0.8040 -0.4674 -1.3534
    8MOL   C690 5744   1.745   2.227   0.168  0.3503 -0.2698 -0.4633
    8MOL   C691 5745   1.586   2.209   0.146 -1.0636 -0.2995  0.2118
    8MOL   C692 5746   1.534   2.095   0.230 -0.1006 -0.5353  0.5529
    8MOL   C693 5747   1.394   2.049   0.191  0.0474 -0.1457 -0.0547
    8MOL   O694 5748   1.365   1.916   0.232  0.1204  0.2816 -0.3915
    8MOL   C695 5749   1.358   1.885   0.363  0.1751  0.0464 -0.0279
    8MOL   O696 5750   1.392   1.967   0.450  0.6633 -0.7767 -0.2948
    8MOL   C697 5751   1.308   1.742   0.390  0.4924  0.0268  0.5948
    8MOL   C698 5752   1.152   1.752   0.387 -0.1053 -0.4688 -0.1494
    8MOL   C699 5753   1.348   1.637   0.273 -0.6633 -0.1786  0.7275
    8MOL   H700 5754   1.697   2.692   7.653 -0.1184 -1.2366 -1.3531
    8MOL   H701 5755   1.575   2.611   7.749  0.2221  0.8010  2.1290
    8MOL   H702 5756   1.694   2.510   7.662  1.2568  0.0856 -0.6569
    8MOL   H703 5757   1.763   2.696   0.101 -1.1763  0.0248 -0.5918
    8MOL   H704 5758   1.886   2.593   0.019 -0.5808 -4.2302 -1.4167
    8MOL   H705 5759   1.654   2.486   0.173  0.1397  0.9630  0.6314
    8MOL   H706 5760   1.816   2.513   0.238  0.5077  1.2569  0.1601
    8MOL   H707 5761   1.914   2.338   0.105 -0.4952  0.6441 -2.8757
    8MOL   H708 5762   1.780   2.338   7.766  2.0725 -0.3623 -2.1202
    8MOL   H709 5763   1.773   2.230   0.274 -1.6766  2.2510  0.0388
    8MOL   H710 5764   1.788   2.137   0.125  2.1115 -0.0134  0.7285
    8MOL   H711 5765   1.537   2.302   0.176 -2.1382 -0.5984 -0.5988
    8MOL   H712 5766   1.563   2.203   0.040  1.6666  0.2652 -0.4532
    8MOL   H713 5767   1.598   2.009   0.209  0.1163  0.5411 -3.7322
    8MOL   H714 5768   1.543   2.113   0.337  1.5631 -0.2150  0.3740
    8MOL   H715 5769   1.396   2.050   0.082 -1.1211  1.2692 -0.0668
    8MOL   H716 5770   1.314   2.114   0.226 -0.8470 -1.1941 -0.1091
    8MOL   H717 5771   1.119   1.799   0.295  0.8636  0.2186 -0.1462
    8MOL   H718 5772   1.116   1.649   0.392 -0.9338 -0.2799 -1.7693
    8MOL   H719 5773   1.109   1.810   0.468  0.2645  0.0225 -0.3042
    8MOL   H720 5774   1.303   1.648   0.174 -1.3529 -0.1654  1.0363
    8MOL   H721 5775   1.339   1.532   0.302 -1.0542  0.5745  3.5080
    8MOL   H722 5776   1.454   1.643   0.248 -0.8259  0.4725  0.1541
    9MOL     C1 5777   6.251   0.992   2.971  1.5777  0.5374  0.3354
    9MOL     C2 5778   6.179   1.014   2.836  0.4066  0.2607  0.1591
    9MOL     C3 5779   6.262   0.968   2.716  0.3182 -0.3957  0.1228
    9MOL     C4 5780   6.182   0.951   2.584  0.1692  0.3271 -0.6673
    9MOL     C5 5781   6.269   0.926   2.473  0.0750  0.2705 -0.0648
    9MOL     C6 5782   6.183   0.906   2.347  0.6268 -0.3335 -0.8974
    9MOL     C7 5783   6.078   1.013   2.314 -0.6909 -0.5311 -0.6639
    9MOL     C8 5784   5.988   0.986   2.196  0.2926  0.2056 -0.7132
    9MOL     O9 5785   6.063   0.977   2.081  0.4150 -0.1795  0.1967
    9MOL    C10 5786   5.997   0.936   1.968  0.1031  0.6332  0.1467
    9MOL    O11 5787   5.871   0.935   1.964  0.2965 -0.6151  0.5215
    9MOL    C12 5788   6.087   0.906   1.848  0.5065  0.1057  0.2187
    9MOL    C13 5789   6.150   1.041   1.795  0.2199  0.3738 -0.2632
    9MOL    C14 5790   6.203   0.804   1.869 -0.6262  0.4218 -0.3054
    9MOL    H15 5791   6.191   1.023   3.056 -0.5492  1.1215 -1.3472
    9MOL    H16 5792   6.348   1.044   2.969  0.0440  3.6361  2.3034
    9MOL    H17 5793   6.274   0.888   2.994  0.5972  0.5682  1.5160
    9MOL    H18 5794   6.164   1.119   2.811  0.7354  0.6268  1.4959
    9MOL    H19 5795   6.079   0.972   2.828  0.9818 -1.3194  1.0654
    9MOL    H20 5796   6.341   1.042   2.701 -1.6739  1.5847 -0.8717
    9MOL    H21 5797   6.312   0.875   2.744  0.8192 -0.0093  0.5275
    9MOL    H22 5798   6.116   0.865   2.596  2.2150 -1.4038 -1.5433
    9MOL    H23 5799   6.118   1.038   2.570 -1.3872 -0.2456  2.3256
    9MOL    H24 5800   6.321   0.831   2.485 -0.7044 -0.1815 -0.2282
    9MOL    H25 5801   6.349   0.999   2.467 -0.1683  0.5819  0.4718
    9MOL    H26 5802   6.131   0.811   2.362  0.1203  0.3781  2.1525
    9MOL    H27 5803   6.251   0.890   2.263  1.1092 -3.1321 -0.0457
    9MOL    H28 5804   6.124   1.112   2.306 -1.5502  0.1981  2.6227
    9MOL    H29 5805   6.006   1.025   2.395 -0.5549  1.6125 -0.8323
    9MOL    H30 5806   5.906   1.054   2.176 -0.8282 -0.2039  2.2149
    9MOL    H31 5807   5.942   0.888   2.210  0.0306  0.7003  2.1509
    9MOL    H32 5808   6.199   1.028   1.698  1.5595 -0.0555  0.4612
    9MOL    H33 5809   6.077   1.121   1.790  0.6532  0.6954 -1.5279
    9MOL    H34 5810   6.228   1.072   1.865 -0.8679  1.3574  0.5165
    9MOL    H35 5811   6.222   0.797   1.976 -0.7022 -0.7361 -0.3610
    9MOL    H36 5812   6.298   0.845   1.834 -0.9404 -0.0273 -1.7268
    9MOL    H37 5813   6.022   0.864   1.772 -0.1187  3.0404 -0.9416
    9MOL    C38 5814   6.751   1.239   1.867  0.3522 -1.3363 -0.3128
    9MOL    C39 5815   6.669   1.256   1.994  0.3611  1.5628 -0.1656
    9MOL    C40 5816   6.668   1.138   2.085 -0.2264 -0.5330 -0.3506
    9MOL    C41 5817   6.585   1.017   2.030  0.1611  0.0549 -0.0046
    9MOL    C42 5818   6.579   0.885   2.116 -0.3527 -0.3078 -0.1654
    9MOL    C43 5819   6.537   0.768   2.023 -0.1190  0.3634 -0.5080
    9MOL    C44 5820   6.517   0.634   2.094  0.0405 -0.1532 -0.0368
    9MOL    C45 5821   6.474   0.520   2.001  0.1366  0.2981  0.1906
    9MOL    O46 5822   6.344   0.543   1.950  0.2786  0.5000 -0.0062
    9MOL    C47 5823   6.324   0.576   1.821 -0.4026 -0.0121  0.5468
    9MOL    O48 5824   6.412   0.560   1.734 -0.0142 -0.5812 -0.0950
    9MOL    C49 5825   6.186   0.659   1.805  0.4393  0.9083 -0.1656
    9MOL    C50 5826   6.174   0.678   1.649  0.5918  0.2231  0.1401
    9MOL    C51 5827   6.070   0.590   1.887  0.0373  0.4660  0.0762
    9MOL    H52 5828   6.735   1.146   1.812  0.1826 -2.0837  0.9996
    9MOL    H53 5829   6.859   1.248   1.876  0.2838 -0.0246 -0.6506
    9MOL    H54 5830   6.717   1.316   1.797  0.6667  0.9364  1.9767
    9MOL    H55 5831   6.566   1.264   1.961 -0.4944 -1.8464  1.4411
    9MOL    H56 5832   6.697   1.339   2.059  0.4474  0.9928  0.5288
    9MOL    H57 5833   6.767   1.111   2.124 -1.0877  0.6901  2.8649
    9MOL    H58 5834   6.628   1.170   2.181  0.1548 -1.0405 -0.0140
    9MOL    H59 5835   6.636   0.988   1.938  0.4298  0.8079 -0.1000
    9MOL    H60 5836   6.480   1.039   2.011 -0.6092 -1.3374  2.4159
    9MOL    H61 5837   6.676   0.856   2.155  1.0521  2.8416 -1.1613
    9MOL    H62 5838   6.500   0.898   2.189 -2.3766 -0.6025 -2.2520
    9MOL    H63 5839   6.448   0.802   1.970 -0.2866 -2.1692 -1.9452
    9MOL    H64 5840   6.623   0.747   1.959  0.5658 -0.9262  0.8098
    9MOL    H65 5841   6.456   0.635   2.184 -2.4990  1.2747 -1.7283
    9MOL    H66 5842   6.615   0.594   2.121  0.0375 -1.1711 -1.4742
    9MOL    H67 5843   6.458   0.431   2.061 -1.9205  1.3400  1.2542
    9MOL    H68 5844   6.551   0.500   1.927  0.3610 -0.2379  0.5658
    9MOL    H69 5845   6.069   0.691   1.623  0.5687  3.6320  1.7869
    9MOL    H70 5846   6.242   0.760   1.626 -0.2260  0.5192 -1.3256
    9MOL    H71 5847   6.211   0.589   1.597  1.3152 -0.0705  1.1543
    9MOL    H72 5848   5.998   0.670   1.907 -0.6852  0.6243 -2.8690
    9MOL    H73 5849   6.103   0.559   1.986  0.7757  0.2530 -0.2334
    9MOL    C74 5850   6.124   0.222   0.999  0.6136  0.4475  0.1787
    9MOL    C75 5851   5.973   0.234   0.962  0.1871 -0.0766  0.0628
    9MOL    C76 5852   5.910   0.353   1.022 -0.0194 -0.4333  0.4910
    9MOL    C77 5853   5.902   0.351   1.178  0.3667  0.9358  1.0136
    9MOL    C78 5854   5.794   0.453   1.215  0.0323 -0.0741  0.7450
    9MOL    C79 5855   5.785   0.486   1.363 -0.2691 -0.6923  0.2330
    9MOL    C80 5856   5.730   0.364   1.442  0.3774 -0.3907 -0.0085
    9MOL    C81 5857   5.710   0.394   1.592  0.0572  0.5314 -0.3572
    9MOL    O82 5858   5.825   0.393   1.672 -0.2739 -0.5168  0.0617
    9MOL    C83 5859   5.883   0.504   1.731  0.2206 -0.0969 -0.1959
    9MOL    O84 5860   5.846   0.617   1.712  0.5105 -0.1161  0.4646
    9MOL    C85 5861   5.993   0.462   1.833  0.2684  0.3273  0.2083
    9MOL    C86 5862   6.087   0.367   1.759 -0.1654  0.4216  0.4329
    9MOL    C87 5863   5.915   0.377   1.948 -1.0831  0.5269 -0.0857
    9MOL    H88 5864   6.186   0.312   1.006 -0.5540  1.2990 -0.4454
    9MOL    H89 5865   6.178   0.163   0.926 -1.2029  1.9254 -2.4306
    9MOL    H90 5866   6.139   0.160   1.087  0.7109 -1.8009 -1.3901
    9MOL    H91 5867   5.923   0.141   0.987 -0.3206  0.0131 -0.6021
    9MOL    H92 5868   5.951   0.233   0.855 -1.1300 -2.3293  0.3211
    9MOL    H93 5869   5.959   0.442   0.983  0.4463  0.0682  2.1904
    9MOL    H94 5870   5.813   0.368   0.975  0.1597  1.2961  0.6386
    9MOL    H95 5871   5.995   0.378   1.228  1.4287  2.2791 -1.5693
    9MOL    H96 5872   5.880   0.251   1.215 -1.3393  0.9342  0.0199
    9MOL    H97 5873   5.832   0.541   1.163  0.6405  0.7227  2.5202
    9MOL    H98 5874   5.695   0.431   1.175  0.4630  0.6789 -0.7640
    9MOL    H99 5875   5.882   0.520   1.399 -0.1113 -0.4437 -0.4279
    9MOL   H100 5876   5.714   0.569   1.365 -0.7388 -1.0748 -0.5769
    9MOL   H101 5877   5.627   0.348   1.412 -0.2812  2.0845  0.8992
    9MOL   H102 5878   5.787   0.272   1.423 -0.1883 -0.5861 -0.7572
    9MOL   H103 5879   5.642   0.321   1.636 -1.1484  0.5383 -2.1662
    9MOL   H104 5880   5.673   0.496   1.603  0.2441  0.7393 -1.6092
    9MOL   H105 5881   6.162   0.337   1.833  0.6789 -0.3636 -0.7265
    9MOL   H106 5882   6.137   0.408   1.672  1.5496 -0.0607  1.1654
    9MOL   H107 5883   6.033   0.278   1.725 -0.0837  0.7027 -0.4330
    9MOL   H108 5884   5.853   0.301   1.900  0.7193 -2.5920  2.2729
    9MOL   H109 5885   5.988   0.311   1.995 -1.6252  0.6280  0.9100
    9MOL   C110 5886   6.560   7.543   2.632 -0.0288 -0.1259 -0.2755
    9MOL   C111 5887   6.437   7.626   2.641 -0.6771  0.1577  0.5228
    9MOL   C112 5888   6.447   7.766   2.565  0.1836  0.3013 -0.3547
    9MOL   C113 5889   6.305   0.052   2.577  0.5679  0.7023 -0.2500
    9MOL   C114 5890   6.321   0.167   2.476 -0.2625  0.7298 -0.3357
    9MOL   C115 5891   6.195   0.242   2.439  0.9958  0.3029  0.4409
    9MOL   C116 5892   6.224   0.366   2.357 -0.1791  0.7623 -0.2210
    9MOL   C117 5893   6.099   0.459   2.347  0.3391  0.1814  0.1915
    9MOL   O118 5894   6.009   0.407   2.249 -0.1221  0.2565 -0.3195
    9MOL   C119 5895   5.932   0.496   2.186  0.8274  0.5787 -0.1510
    9MOL   O120 5896   5.945   0.619   2.201 -0.0420  1.0039  0.0350
    9MOL   C121 5897   5.833   0.440   2.071  0.0890  0.4836 -0.1934
    9MOL   C122 5898   5.756   0.317   2.130  0.3199 -0.3287  0.1243
    9MOL   C123 5899   5.732   0.549   2.023 -0.0217 -0.4619  0.3049
    9MOL   H124 5900   6.646   7.591   2.680 -0.9064 -0.6008  1.7965
    9MOL   H125 5901   6.550   7.451   2.690  1.4417  0.1011  0.3759
    9MOL   H126 5902   6.577   7.509   2.530  1.5647  1.1182 -0.4509
    9MOL   H127 5903   6.426   7.639   2.749 -1.2147  0.9391  0.3754
    9MOL   H128 5904   6.348   7.573   2.605 -1.2410  0.9920  0.6799
    9MOL   H129 5905   6.457   7.733   2.462 -1.1482 -1.8766  0.1907
    9MOL   H130 5906   6.527   0.053   2.598  0.4234  0.0322 -0.3907
    9MOL   H131 5907   6.223   7.770   2.542  2.9836 -1.9022 -1.5843
    9MOL   H132 5908   6.285   0.096   2.675  0.3184 -0.3064  0.1542
    9MOL   H133 5909   6.341   0.118   2.381  0.1438  0.0610  0.0906
    9MOL   H134 5910   6.401   0.235   2.508 -0.4322 -0.5737  3.0905
    9MOL   H135 5911   6.120   0.186   2.384  1.1662  0.1870  0.3262
    9MOL   H136 5912   6.145   0.264   2.533 -1.3828 -1.5363 -0.3292
    9MOL   H137 5913   6.271   0.335   2.264  0.9757  1.1355  0.2296
    9MOL   H138 5914   6.293   0.427   2.416  0.4768  1.2081 -1.4235
    9MOL   H139 5915   6.047   0.468   2.442 -0.5503  0.1160 -0.2887
    9MOL   H140 5916   6.147   0.552   2.318  1.3328 -0.6037 -0.7133
    9MOL   H141 5917   5.713   0.322   2.230 -0.4990 -0.5144 -0.2171
    9MOL   H142 5918   5.683   0.282   2.056 -1.5516  1.3519  1.1383
    9MOL   H143 5919   5.825   0.233   2.137  0.9092  0.0641 -0.8324
    9MOL   H144 5920   5.703   0.509   1.926 -1.2304  0.4472  0.2825
    9MOL   H145 5921   5.787   0.638   1.993 -1.0518  0.6582  1.6505
    9MOL   C146 5922   5.327   0.345   1.098  0.0531  0.1485 -0.5742
    9MOL   C147 5923   5.366   0.372   1.245 -0.5928  0.3400  0.2123
    9MOL   C148 5924   5.249   0.382   1.342  0.1925 -0.3841  0.2066
    9MOL   C149 5925   5.298   0.404   1.485 -1.1312 -0.2758 -0.0045
    9MOL   C150 5926   5.200   0.459   1.583  0.0923 -0.4620 -0.1777
    9MOL   C151 5927   5.263   0.486   1.720 -0.1337  0.5508  0.5824
    9MOL   C152 5928   5.325   0.363   1.786  0.1138  0.4341  0.0765
    9MOL   C153 5929   5.347   0.380   1.936  0.1509  0.0323 -0.4985
    9MOL   O154 5930   5.446   0.475   1.964  0.6113  0.2865  0.4369
    9MOL   C155 5931   5.494   0.495   2.089  0.3851  0.1817 -0.1567
    9MOL   O156 5932   5.461   0.437   2.195 -0.9229  0.6923 -0.1019
    9MOL   C157 5933   5.603   0.598   2.100 -0.2419  0.5690 -0.7084
    9MOL   C158 5934   5.641   0.611   2.245  0.3226 -0.6884  0.5884
    9MOL   C159 5935   5.559   0.738   2.035  0.9294 -0.3174 -0.6236
    9MOL   H160 5936   5.244   0.408   1.065 -1.6996 -0.9600  1.5631
    9MOL   H161 5937   5.306   0.246   1.058 -3.1758  0.5395  0.0219
    9MOL   H162 5938   5.408   0.378   1.033 -1.9122 -1.8465 -4.1452
    9MOL   H163 5939   5.451   0.310   1.272 -1.8820 -2.6662 -2.2944
    9MOL   H164 5940   5.410   0.471   1.247  0.6786 -0.2334  1.6955
    9MOL   H165 5941   5.175   0.303   1.331 -1.3693  1.0583  0.2415
    9MOL   H166 5942   5.196   0.477   1.334  0.5512 -0.0813  1.2324
    9MOL   H167 5943   5.352   0.312   1.507  0.0002  0.5677  0.8243
    9MOL   H168 5944   5.392   0.458   1.495 -0.9230 -0.8366  1.2177
    9MOL   H169 5945   5.120   0.386   1.594 -0.9114  0.3518 -1.8693
    9MOL   H170 5946   5.151   0.548   1.544 -1.3789 -0.2909  1.9657
    9MOL   H171 5947   5.190   0.535   1.785 -1.0707  1.2079 -0.9360
    9MOL   H172 5948   5.348   0.552   1.699  1.2160 -1.1828  0.5082
    9MOL   H173 5949   5.255   0.280   1.778  0.4530  0.3597 -2.6396
    9MOL   H174 5950   5.419   0.333   1.741 -1.2823 -1.3054 -1.7697
    9MOL   H175 5951   5.250   0.411   1.975  0.9399  1.4291  0.4426
    9MOL   H176 5952   5.380   0.287   1.981  1.0786  0.8098  0.4811
    9MOL   H177 5953   5.714   0.688   2.267  0.6453 -1.5304  2.6074
    9MOL   H178 5954   5.667   0.516   2.294  0.8975 -0.9265 -0.1793
    9MOL   H179 5955   5.551   0.644   2.299 -1.0384  0.9033 -2.5490
    9MOL   H180 5956   5.513   0.715   1.938 -3.3107 -1.4808  1.5236
    9MOL   H181 5957   5.651   0.795   2.027 -0.2716  1.8443  0.6598
    9MOL   C182 5958   5.959   1.750   1.898  0.2274 -0.1269  0.4251
    9MOL   C183 5959   5.818   1.699   1.909 -0.1545  0.3110 -0.3370
    9MOL   C184 5960   5.784   1.591   1.807  0.0680 -0.1841  0.2294
    9MOL   C185 5961   5.864   1.457   1.823 -0.0671 -0.2989  0.1067
    9MOL   C186 5962   5.838   1.352   1.707  0.0393  0.5185 -0.5564
    9MOL   C187 5963   5.693   1.283   1.726  0.2885 -0.2911 -0.1798
    9MOL   C188 5964   5.697   1.180   1.840  0.3381 -0.6441 -0.2457
    9MOL   C189 5965   5.564   1.109   1.841 -0.1624  0.1072 -0.2880
    9MOL   O190 5966   5.570   1.032   1.965  0.5308  0.0249 -0.1733
    9MOL   C191 5967   5.460   0.951   1.992  0.2808 -0.2871 -0.2601
    9MOL   O192 5968   5.356   0.951   1.927 -0.1126 -0.2511  0.0499
    9MOL   C193 5969   5.484   0.853   2.108 -0.5529  0.4924  0.3968
    9MOL   C194 5970   5.572   0.922   2.220 -0.2182  0.5811  0.3882
    9MOL   C195 5971   5.355   0.797   2.157  0.5619  0.6755 -0.5809
    9MOL   H196 5972   5.976   1.838   1.959  1.4343 -0.6211  0.8138
    9MOL   H197 5973   6.023   1.671   1.937 -0.8990 -0.0900  2.3826
    9MOL   H198 5974   5.996   1.759   1.795 -1.7952 -0.9355 -0.3944
    9MOL   H199 5975   5.754   1.787   1.906 -2.1481 -1.0169  1.6723
    9MOL   H200 5976   5.814   1.653   2.008 -0.4571 -1.1029 -0.9999
    9MOL   H201 5977   5.679   1.571   1.829 -1.2375  4.3511 -1.1981
    9MOL   H202 5978   5.780   1.631   1.705  2.2053  1.2228  0.6696
    9MOL   H203 5979   5.971   1.476   1.818  0.4523 -2.6724  1.5787
    9MOL   H204 5980   5.844   1.421   1.924  2.0070 -1.0973  0.2418
    9MOL   H205 5981   5.920   1.281   1.703 -1.4478 -1.4190  2.0813
    9MOL   H206 5982   5.849   1.409   1.615 -0.5360 -0.4811 -1.2490
    9MOL   H207 5983   5.654   1.242   1.634  0.6945  0.7154 -0.8108
    9MOL   H208 5984   5.609   1.346   1.758  0.6871  0.1604 -0.0202
    9MOL   H209 5985   5.778   1.109   1.830  0.5698 -0.6618  1.5861
    9MOL   H210 5986   5.700   1.227   1.938  0.4696  1.4134 -1.2108
    9MOL   H211 5987   5.539   1.054   1.750  1.2031 -0.0390 -0.5826
    9MOL   H212 5988   5.480   1.177   1.860 -0.4882 -0.1373 -0.8599
    9MOL   H213 5989   5.599   0.871   2.313 -1.5833  0.9333  0.9977
    9MOL   H214 5990   5.671   0.936   2.179 -0.6109  3.9833  0.4794
    9MOL   H215 5991   5.527   1.017   2.250  3.0089  1.7747  1.6848
    9MOL   H216 5992   5.289   0.759   2.079  2.5847 -0.6057 -1.7061
    9MOL   H217 5993   5.378   0.702   2.206 -4.0028  0.1341  0.7430
    9MOL   C218 5994   5.884   0.040   2.696  0.5141 -0.7520  0.3154
    9MOL   C219 5995   5.761   0.115   2.637 -0.5662  0.2688 -0.0382
    9MOL   C220 5996   5.771   0.265   2.655 -0.3682 -0.1882  0.2827
    9MOL   C221 5997   5.639   0.323   2.613  0.5226  0.0737  0.1534
    9MOL   C222 5998   5.628   0.478   2.618 -0.0984  0.0550 -0.4351
    9MOL   C223 5999   5.490   0.529   2.582  0.7009  0.7239  0.2366
    9MOL   C224 6000   5.470   0.675   2.621  0.0923 -0.0170 -0.0729
    9MOL   C225 6001   5.331   0.726   2.600 -0.0397  0.6078  0.7265
    9MOL   O226 6002   5.315   0.740   2.457 -0.7597 -0.6673 -0.0213
    9MOL   C227 6003   5.324   0.861   2.401 -0.4887  0.4452 -1.0773
    9MOL   O228 6004   5.373   0.961   2.457  0.1772 -0.0986  0.2432
    9MOL   C229 6005   5.258   0.873   2.262 -0.0847 -0.7218  0.0587
    9MOL   C230 6006   5.131   0.792   2.254 -0.1035  0.1071 -0.1651
    9MOL   C231 6007   5.227   1.017   2.213 -0.2861 -0.5841  0.2334
    9MOL   H232 6008   5.973   0.101   2.678  0.3667 -0.1888  1.4371
    9MOL   H233 6009   5.888   7.723   2.646  0.3035 -0.2618 -0.6618
    9MOL   H234 6010   5.869   0.035   2.804 -1.5945  0.7969  0.1145
    9MOL   H235 6011   5.661   0.085   2.670  0.6078 -1.3032  2.1787
    9MOL   H236 6012   5.764   0.084   2.532 -0.1361 -1.3867  0.4610
    9MOL   H237 6013   5.789   0.297   2.757 -2.1075 -0.9068  0.8330
    9MOL   H238 6014   5.853   0.304   2.594  0.5989 -0.9971  1.0485
    9MOL   H239 6015   5.623   0.295   2.509  1.0992  1.4131 -0.3085
    9MOL   H240 6016   5.566   0.278   2.680 -1.8015  2.1111 -0.9277
    9MOL   H241 6017   5.653   0.518   2.716  1.1266  1.1343 -1.1716
    9MOL   H242 6018   5.699   0.530   2.554  2.0601 -2.8762 -0.5465
    9MOL   H243 6019   5.466   0.528   2.475  1.6652  0.5634  0.0212
    9MOL   H244 6020   5.413   0.461   2.620 -1.3245  0.6782 -3.6616
    9MOL   H245 6021   5.531   0.743   2.561 -0.6053  0.1715 -0.5741
    9MOL   H246 6022   5.499   0.683   2.726 -1.1842 -0.3560  0.3093
    9MOL   H247 6023   5.310   0.822   2.646 -0.9976  0.6031  0.3016
    9MOL   H248 6024   5.253   0.660   2.638 -0.8197  1.0005 -0.1751
    9MOL   H249 6025   5.078   0.818   2.162  0.0582 -0.0950 -0.3161
    9MOL   H250 6026   5.064   0.796   2.340  2.6108 -0.4999  2.0429
    9MOL   H251 6027   5.152   0.686   2.241 -2.2906 -0.3373 -0.3584
    9MOL   H252 6028   5.322   1.066   2.192 -1.5406  0.8648 -2.2895
    9MOL   H253 6029   5.184   0.998   2.114 -0.0341 -0.2711  0.0633
    9MOL   C254 6030   5.844   1.229   3.127 -0.1890  0.8997  1.1713
    9MOL   C255 6031   5.747   1.175   3.023 -0.1130 -0.1280  0.0057
    9MOL   C256 6032   5.774   1.231   2.881  0.2115  0.3956 -0.5935
    9MOL   C257 6033   5.665   1.186   2.778 -0.1637  0.0407  0.5960
    9MOL   C258 6034   5.541   1.271   2.791  0.3280  1.0743  0.2891
    9MOL   C259 6035   5.428   1.209   2.704  0.6624 -0.0972 -0.7929
    9MOL   C260 6036   5.310   1.303   2.684  0.4759  0.6689  0.0925
    9MOL   C261 6037   5.184   1.218   2.626  0.3707  0.2820  0.6457
    9MOL   O262 6038   5.201   1.174   2.495  0.8692 -0.4074 -0.6368
    9MOL   C263 6039   5.112   1.105   2.427 -0.2268 -0.5938 -0.1390
    9MOL   O264 6040   5.026   1.038   2.474  0.3753  0.2726  0.4716
    9MOL   C265 6041   5.124   1.113   2.272  0.3736  0.7520 -0.7810
    9MOL   C266 6042   4.981   1.074   2.212 -0.2977  0.3182  0.1778
    9MOL   C267 6043   5.163   1.264   2.235  0.1396  0.2993 -0.4894
    9MOL   H268 6044   5.815   1.183   3.221 -0.0619  1.8634  1.6882
    9MOL   H269 6045   5.945   1.196   3.103 -1.4138 -1.9184 -0.3558
    9MOL   H270 6046   5.834   1.337   3.143  0.6793  1.0618  0.6337
    9MOL   H271 6047   5.757   1.067   3.034  1.4243 -0.0851 -0.7980
    9MOL   H272 6048   5.645   1.201   3.051  0.1972  1.8412 -0.5956
    9MOL   H273 6049   5.872   1.207   2.840  0.0793 -0.0813 -0.6304
    9MOL   H274 6050   5.770   1.339   2.893 -0.9426  0.0164  3.3630
    9MOL   H275 6051   5.647   1.078   2.775  1.1298 -0.1579 -0.9065
    9MOL   H276 6052   5.707   1.202   2.679 -0.6793 -1.6343  0.0808
    9MOL   H277 6053   5.499   1.282   2.891 -3.4405  2.6067 -1.3852
    9MOL   H278 6054   5.558   1.377   2.772  2.1725  0.5813 -0.9887
    9MOL   H279 6055   5.402   1.109   2.739 -1.5359 -0.0851 -2.2828
    9MOL   H280 6056   5.472   1.183   2.608 -1.7021  0.3840 -2.0564
    9MOL   H281 6057   5.283   1.345   2.781  1.7035  0.6770  0.4338
    9MOL   H282 6058   5.346   1.382   2.618 -2.7624 -0.0776 -2.7255
    9MOL   H283 6059   5.158   1.132   2.688 -2.1551  0.0578 -0.6632
    9MOL   H284 6060   5.097   1.282   2.634 -0.4648 -0.5278 -1.6816
    9MOL   H285 6061   4.909   1.151   2.240  1.0997  1.8206 -0.2890
    9MOL   H286 6062   4.979   1.065   2.104 -0.0895  1.3693  0.0825
    9MOL   H287 6063   4.939   0.980   2.246 -0.1985  0.6380  1.2081
    9MOL   H288 6064   5.193   1.267   2.130  2.2950  2.7553  0.1452
    9MOL   H289 6065   5.258   1.281   2.285 -0.1659  0.5724 -0.0056
    9MOL   C290 6066   4.864   0.550   1.486 -0.3027 -0.7535  0.2075
    9MOL   C291 6067   4.888   0.707   1.503  0.8093 -0.7779  0.8961
    9MOL   C292 6068   4.940   0.754   1.642 -0.8463 -0.3070  0.7407
    9MOL   C293 6069   4.937   0.909   1.654  0.5801  0.2801 -0.0399
    9MOL   C294 6070   5.009   0.948   1.792 -0.5187  0.0475 -0.1341
    9MOL   C295 6071   5.021   1.097   1.818 -0.1997  0.5150 -0.1948
    9MOL   C296 6072   4.887   1.177   1.837  0.5113  0.0824  0.2349
    9MOL   C297 6073   4.905   1.317   1.891 -0.2130 -0.1290 -0.1390
    9MOL   O298 6074   4.989   1.312   2.011 -0.0092 -0.5718 -0.4764
    9MOL   C299 6075   4.954   1.385   2.116 -0.8714  0.5903 -0.2680
    9MOL   O300 6076   4.848   1.447   2.130 -0.1414 -0.3912 -0.0753
    9MOL   C301 6077   5.064   1.385   2.236 -0.0323 -0.1645 -0.3980
    9MOL   C302 6078   4.984   1.385   2.365  0.8133 -0.2829  0.0154
    9MOL   C303 6079   5.149   1.519   2.247  0.1077  0.3912 -0.1944
    9MOL   H304 6080   4.831   0.515   1.388 -0.2720  1.7545 -0.7362
    9MOL   H305 6081   4.800   0.520   1.569  0.3490 -0.3941  0.8497
    9MOL   H306 6082   4.963   0.504   1.491  1.0374  2.0032  0.0901
    9MOL   H307 6083   4.791   0.756   1.491  0.9529 -0.8791 -0.7944
    9MOL   H308 6084   4.953   0.741   1.423  2.5832 -0.6577  2.3590
    9MOL   H309 6085   5.033   0.702   1.666 -1.2095  0.2090  3.3777
    9MOL   H310 6086   4.870   0.716   1.716  0.5308 -0.1300  2.1741
    9MOL   H311 6087   4.991   0.959   1.574 -0.3719  0.7343 -0.4052
    9MOL   H312 6088   4.839   0.955   1.666 -0.0487 -1.5216  2.0648
    9MOL   H313 6089   4.947   0.907   1.872 -1.4923  2.2740  0.2714
    9MOL   H314 6090   5.109   0.903   1.796 -0.2915  0.4278 -1.4833
    9MOL   H315 6091   5.098   1.143   1.756  2.2387 -1.7790  1.0422
    9MOL   H316 6092   5.079   1.095   1.910  0.6419 -0.9777 -0.7342
    9MOL   H317 6093   4.816   1.118   1.894 -0.4325  2.5971  1.7079
    9MOL   H318 6094   4.832   1.190   1.744 -0.5684  1.6460  1.0749
    9MOL   H319 6095   4.806   1.352   1.920  0.8455  4.5492 -1.6958
    9MOL   H320 6096   4.954   1.379   1.816 -2.7598  1.9044 -0.1667
    9MOL   H321 6097   4.931   1.475   2.394  0.8647 -0.3659  0.3698
    9MOL   H322 6098   5.048   1.366   2.451  0.6204 -0.4983  0.1114
    9MOL   H323 6099   4.901   1.314   2.367  2.4272 -2.2977 -1.5606
    9MOL   H324 6100   5.068   1.590   2.265 -0.9156 -1.0412  0.9728
    9MOL   H325 6101   5.214   1.515   2.335 -0.0297  3.4435  0.0955
    9MOL   C326 6102   6.017   1.871   2.518  0.2046  0.1202  0.2894
    9MOL   C327 6103   5.960   1.762   2.615  0.0700 -0.0582 -0.2706
    9MOL   C328 6104   5.921   1.625   2.551 -0.8611  0.0787  0.9121
    9MOL   C329 6105   5.803   1.634   2.448 -0.1748 -0.1349 -0.8393
    9MOL   C330 6106   5.773   1.492   2.404  0.6952 -0.5347 -0.6068
    9MOL   C331 6107   5.655   1.477   2.306 -0.4273  0.6818  1.2621
    9MOL   C332 6108   5.615   1.336   2.266 -0.0853  0.0955  0.0663
    9MOL   C333 6109   5.519   1.337   2.148  0.1066 -0.3450 -0.2095
    9MOL   O334 6110   5.413   1.424   2.177  0.4022  0.1848 -0.9143
    9MOL   C335 6111   5.338   1.470   2.082 -0.6909  0.0610  0.5334
    9MOL   O336 6112   5.357   1.448   1.963  0.1467 -0.1973 -0.2440
    9MOL   C337 6113   5.237   1.573   2.134  0.1678  0.4285  0.0079
    9MOL   C338 6114   5.148   1.615   2.010 -0.1348 -0.0507  0.3225
    9MOL   C339 6115   5.305   1.692   2.203 -0.7396 -0.2934 -0.1280
    9MOL   H340 6116   6.076   1.951   2.563  0.7714  0.6157 -1.3194
    9MOL   H341 6117   5.935   1.912   2.459  0.2891 -0.3545 -0.1539
    9MOL   H342 6118   6.091   1.825   2.454  0.4974  1.0528 -0.0472
    9MOL   H343 6119   5.878   1.807   2.671  0.7003  0.1472  0.4909
    9MOL   H344 6120   6.032   1.748   2.695  0.6740  0.8163 -0.6505
    9MOL   H345 6121   5.884   1.565   2.634  1.8339 -1.1716  1.2684
    9MOL   H346 6122   6.007   1.577   2.505 -2.5134 -2.8135  0.7730
    9MOL   H347 6123   5.838   1.693   2.364  0.6638 -1.9342 -1.7965
    9MOL   H348 6124   5.713   1.681   2.488  1.0955  1.2551  0.4550
    9MOL   H349 6125   5.851   1.435   2.352  0.2433 -0.7863 -1.0134
    9MOL   H350 6126   5.759   1.438   2.497  1.3635 -0.4137 -0.4362
    9MOL   H351 6127   5.566   1.525   2.345 -1.4656 -1.8162  2.1081
    9MOL   H352 6128   5.680   1.533   2.215  2.1101 -2.6653 -0.2390
    9MOL   H353 6129   5.566   1.299   2.356  1.0599  2.4777  1.7363
    9MOL   H354 6130   5.696   1.268   2.239 -0.9878 -0.9801  0.0741
    9MOL   H355 6131   5.584   1.383   2.074  0.6817  2.3082  1.8686
    9MOL   H356 6132   5.485   1.234   2.135  0.2051 -0.4400  0.2806
    9MOL   H357 6133   5.124   1.534   1.941 -1.6270  0.0058  0.7712
    9MOL   H358 6134   5.057   1.670   2.034  0.5249  0.8141  0.8868
    9MOL   H359 6135   5.200   1.684   1.943  1.3422  0.8118  2.3058
    9MOL   H360 6136   5.224   1.736   2.261  0.1712  0.6536  0.4535
    9MOL   H361 6137   5.363   1.653   2.286 -0.6458 -0.0955 -0.0991
    9MOL   C362 6138   4.571   2.171   2.688  0.0319  0.3833 -0.5094
    9MOL   C363 6139   4.645   2.207   2.565  0.2958  0.8206 -1.0176
    9MOL   C364 6140   4.629   2.097   2.455 -1.0117  0.0104 -0.0747
    9MOL   C365 6141   4.729   2.112   2.337  0.1508 -0.7304  0.7600
    9MOL   C366 6142   4.711   2.022   2.218 -0.0281 -0.1215  1.1639
    9MOL   C367 6143   4.828   2.053   2.126 -0.2186  0.0857 -0.4759
    9MOL   C368 6144   4.952   1.973   2.173  0.1393 -0.6631  0.0109
    9MOL   C369 6145   5.069   1.998   2.078 -0.9603  0.2156  0.1238
    9MOL   O370 6146   5.178   1.913   2.117 -0.6957  0.2333 -0.1268
    9MOL   C371 6147   5.298   1.915   2.072  0.5453 -0.3239  1.0186
    9MOL   O372 6148   5.340   1.975   1.977 -0.3721  0.6231  0.5097
    9MOL   C373 6149   5.388   1.810   2.129  0.3707  0.4629 -0.0060
    9MOL   C374 6150   5.479   1.753   2.012  0.3943 -0.3634  0.5302
    9MOL   C375 6151   5.498   1.874   2.229  0.1699  0.6639 -0.1272
    9MOL   H376 6152   4.581   2.245   2.767 -0.3810  2.6943 -2.5463
    9MOL   H377 6153   4.467   2.147   2.664 -0.1433  1.2935 -0.6966
    9MOL   H378 6154   4.610   2.073   2.716  0.9094  0.4092 -1.5932
    9MOL   H379 6155   4.748   2.222   2.599 -0.3378  2.6395  0.2029
    9MOL   H380 6156   4.613   2.305   2.527 -0.4330  1.5884  1.4869
    9MOL   H381 6157   4.529   2.103   2.414 -1.1280  1.1743  0.3791
    9MOL   H382 6158   4.637   1.994   2.492  1.9061 -0.3426 -1.5418
    9MOL   H383 6159   4.828   2.097   2.380  0.8751 -0.4769 -0.7864
    9MOL   H384 6160   4.715   2.216   2.307  2.4105 -0.7691 -0.5186
    9MOL   H385 6161   4.708   1.917   2.244 -1.1316  0.1046  1.9493
    9MOL   H386 6162   4.615   2.050   2.174  2.2949  2.8413 -2.3276
    9MOL   H387 6163   4.849   2.160   2.120  1.1105 -0.1967 -1.3108
    9MOL   H388 6164   4.788   2.018   2.031  2.2494  0.4871 -1.7125
    9MOL   H389 6165   4.930   1.866   2.162  4.0784 -1.7705  1.8847
    9MOL   H390 6166   5.001   2.004   2.265  0.4486  0.5875 -0.5705
    9MOL   H391 6167   5.047   1.975   1.974  1.3248  0.8219 -0.5344
    9MOL   H392 6168   5.089   2.103   2.099 -0.9006  0.3246 -0.4787
    9MOL   H393 6169   5.418   1.726   1.925  1.7582 -0.1310 -0.5198
    9MOL   H394 6170   5.546   1.822   1.961 -0.4237  1.4505  1.8863
    9MOL   H395 6171   5.524   1.654   2.022  0.7120 -0.3883 -0.9476
    9MOL   H396 6172   5.556   1.786   2.256  0.3378 -0.2743 -3.2656
    9MOL   H397 6173   5.556   1.939   2.163  0.4623 -0.5168 -1.0686
    9MOL   C398 6174   5.009   1.757   3.371  0.2030 -0.3239  0.3120
    9MOL   C399 6175   5.065   1.641   3.281  0.1479 -0.2852 -0.0935
    9MOL   C400 6176   5.163   1.710   3.183  0.4623 -0.3782  0.3370
    9MOL   C401 6177   5.207   1.621   3.070  0.7306 -0.0585 -0.1472
    9MOL   C402 6178   5.299   1.699   2.975  0.6036  1.2193  0.5784
    9MOL   C403 6179   5.330   1.626   2.844 -0.8616  0.1565 -0.9926
    9MOL   C404 6180   5.391   1.717   2.741  0.3472 -0.6778 -0.5010
    9MOL   C405 6181   5.421   1.659   2.601 -0.1166 -0.4531  0.5998
    9MOL   O406 6182   5.477   1.756   2.517 -0.3502 -1.0350 -0.2470
    9MOL   C407 6183   5.399   1.854   2.469  0.2192  0.0278 -0.1662
    9MOL   O408 6184   5.287   1.870   2.508  0.2034  0.0011 -0.7126
    9MOL   C409 6185   5.467   1.946   2.367  0.1357 -0.0778  0.4040
    9MOL   C410 6186   5.612   1.974   2.417  0.0082 -0.0228  0.0277
    9MOL   C411 6187   5.383   2.080   2.342 -0.1591 -0.0057  0.3600
    9MOL   H412 6188   4.920   1.733   3.430 -0.5810 -0.3485 -0.8715
    9MOL   H413 6189   4.972   1.842   3.314 -2.0010 -0.8737  0.8416
    9MOL   H414 6190   5.078   1.789   3.448  0.8364  1.3239 -0.9252
    9MOL   H415 6191   4.984   1.601   3.221  0.4370 -2.2583  0.8092
    9MOL   H416 6192   5.110   1.560   3.338  0.5754 -1.4053 -1.9969
    9MOL   H417 6193   5.103   1.794   3.150  1.8049  0.3033 -0.4146
    9MOL   H418 6194   5.239   1.761   3.244 -0.6212 -0.5181  1.8359
    9MOL   H419 6195   5.118   1.593   3.014  0.1802  0.7923  0.2899
    9MOL   H420 6196   5.253   1.532   3.113  2.0253  0.0152 -1.3382
    9MOL   H421 6197   5.255   1.795   2.952 -2.4249 -0.4478 -0.7905
    9MOL   H422 6198   5.392   1.724   3.027  0.2963 -0.9791  2.2772
    9MOL   H423 6199   5.242   1.573   2.806 -1.1883 -2.3285  2.8347
    9MOL   H424 6200   5.397   1.543   2.869 -0.5159  1.7816  4.0991
    9MOL   H425 6201   5.320   1.799   2.739  1.3008  0.1625 -0.4230
    9MOL   H426 6202   5.481   1.769   2.774 -1.1168  2.9289 -1.8492
    9MOL   H427 6203   5.488   1.574   2.615  1.8717  1.2303  1.7288
    9MOL   H428 6204   5.327   1.623   2.561 -0.4068  0.5421  0.3791
    9MOL   H429 6205   5.667   2.049   2.361 -0.6742  0.8838  0.5598
    9MOL   H430 6206   5.682   1.891   2.416 -1.1473 -1.0077 -0.6682
    9MOL   H431 6207   5.609   2.001   2.523  0.8824 -2.6931  0.7661
    9MOL   H432 6208   5.289   2.038   2.307 -0.1295  1.3709 -1.4125
    9MOL   H433 6209   5.416   2.125   2.249  0.0885 -1.5458 -0.3054
    9MOL   C434 6210   5.400   3.009   2.271 -0.0567  0.1345 -0.3058
    9MOL   C435 6211   5.411   2.896   2.172 -0.1213  0.0928 -0.1631
    9MOL   C436 6212   5.550   2.821   2.189 -0.5108  0.0359  0.5401
    9MOL   C437 6213   5.550   2.698   2.089  0.5835 -0.1838 -0.2545
    9MOL   C438 6214   5.661   2.603   2.124 -0.4750 -0.1723  0.4284
    9MOL   C439 6215   5.646   2.546   2.263 -0.3064  0.2504 -0.7385
    9MOL   C440 6216   5.744   2.431   2.288 -0.1783 -0.3952  0.0795
    9MOL   C441 6217   5.704   2.353   2.413 -0.2789  0.3110  0.1085
    9MOL   O442 6218   5.578   2.294   2.393 -0.1755  0.1999 -0.1657
    9MOL   C443 6219   5.497   2.264   2.489  0.2711  0.1128 -0.4833
    9MOL   O444 6220   5.519   2.275   2.610  0.1844  0.0619 -0.1374
    9MOL   C445 6221   5.357   2.202   2.445 -0.3925 -0.0613 -0.7099
    9MOL   C446 6222   5.273   2.148   2.560  0.3691 -0.0742  0.6670
    9MOL   C447 6223   5.277   2.309   2.358  0.1653 -0.5381 -0.2281
    9MOL   H448 6224   5.300   3.051   2.280  0.9473  2.8443 -1.2943
    9MOL   H449 6225   5.471   3.089   2.253 -2.6327  3.0269  1.9519
    9MOL   H450 6226   5.423   2.983   2.374 -1.2846  1.5127  0.3261
    9MOL   H451 6227   5.408   2.933   2.070 -0.4991 -0.4879 -0.3606
    9MOL   H452 6228   5.323   2.833   2.180  0.3089 -0.4083  0.7255
    9MOL   H453 6229   5.554   2.796   2.295 -1.1194 -0.4459  0.4565
    9MOL   H454 6230   5.628   2.892   2.165 -1.8764  1.0865 -0.9511
    9MOL   H455 6231   5.558   2.739   1.989  0.6553  2.3606  0.7584
    9MOL   H456 6232   5.456   2.645   2.107  0.9597 -1.2523 -1.3102
    9MOL   H457 6233   5.641   2.518   2.059  4.1492 -0.4950 -0.7378
    9MOL   H458 6234   5.759   2.642   2.098 -1.7633  2.0288 -1.3522
    9MOL   H459 6235   5.546   2.508   2.282 -1.5457  2.9089 -1.5999
    9MOL   H460 6236   5.665   2.622   2.339  0.2706 -0.8487  0.2288
    9MOL   H461 6237   5.756   2.356   2.210 -1.7398 -1.8915  1.2308
    9MOL   H462 6238   5.846   2.470   2.290 -0.1997 -0.3217 -0.3807
    9MOL   H463 6239   5.701   2.420   2.499 -1.0677 -1.1347  1.2170
    9MOL   H464 6240   5.773   2.276   2.447 -1.7315 -1.7880 -1.5810
    9MOL   H465 6241   5.240   2.226   2.628  1.8269  0.4215  0.8259
    9MOL   H466 6242   5.191   2.090   2.518  2.3591 -1.5695 -1.2776
    9MOL   H467 6243   5.334   2.091   2.629  1.4329  0.5598  0.2626
    9MOL   H468 6244   5.348   2.340   2.281  0.3844  2.0065  0.9416
    9MOL   H469 6245   5.203   2.254   2.300  1.7364 -2.2181 -0.6662
    9MOL   C470 6246   4.006   2.636   2.575  0.7142 -0.7028  0.3084
    9MOL   C471 6247   4.136   2.580   2.630 -0.4880 -0.5912 -0.0249
    9MOL   C472 6248   4.262   2.666   2.603  0.4986 -0.2700  0.8100
    9MOL   C473 6249   4.382   2.592   2.636  0.7590 -0.5800  0.2381
    9MOL   C474 6250   4.508   2.624   2.561 -0.4774  0.9079  0.1379
    9MOL   C475 6251   4.634   2.568   2.632  0.1716 -0.2896  0.5671
    9MOL   C476 6252   4.770   2.573   2.546  0.1399  0.3122 -0.3839
    9MOL   C477 6253   4.886   2.501   2.614 -0.2487  0.1069  1.3106
    9MOL   O478 6254   5.003   2.509   2.532 -0.1765  0.3614  0.1281
    9MOL   C479 6255   5.058   2.406   2.466 -0.4002 -0.0338 -0.1214
    9MOL   O480 6256   4.998   2.301   2.445  0.0556 -0.6901 -0.2842
    9MOL   C481 6257   5.199   2.441   2.406  0.8478  0.0126 -0.1912
    9MOL   C482 6258   5.279   2.510   2.514 -0.1997  0.5272  0.1716
    9MOL   C483 6259   5.189   2.552   2.295  0.3488 -0.3605 -0.4945
    9MOL   H484 6260   3.973   2.736   2.602  0.7609 -0.7250  0.4489
    9MOL   H485 6261   3.923   2.577   2.615 -0.2396 -0.8745 -1.8823
    9MOL   H486 6262   3.989   2.624   2.468 -1.2971 -0.7480  0.6122
    9MOL   H487 6263   4.137   2.572   2.739 -0.2566 -0.6249 -0.0305
    9MOL   H488 6264   4.152   2.480   2.590 -0.6567 -0.2068 -1.0550
    9MOL   H489 6265   4.265   2.693   2.497  1.0560 -2.7796  0.1388
    9MOL   H490 6266   4.260   2.763   2.652 -1.1380 -0.6339  1.5226
    9MOL   H491 6267   4.408   2.600   2.742 -1.5021  0.1367  0.7608
    9MOL   H492 6268   4.367   2.485   2.624 -0.3414 -0.3465 -0.6137
    9MOL   H493 6269   4.496   2.588   2.459 -0.3069 -1.3598  0.8737
    9MOL   H494 6270   4.522   2.731   2.553 -1.4105  1.2931  2.9256
    9MOL   H495 6271   4.651   2.634   2.717  2.8308 -0.1459 -0.0279
    9MOL   H496 6272   4.611   2.473   2.681  0.6492 -1.1660 -0.8740
    9MOL   H497 6273   4.748   2.522   2.452  0.6777 -0.6435  0.0067
    9MOL   H498 6274   4.791   2.670   2.501  0.8088  0.2377 -0.2284
    9MOL   H499 6275   4.849   2.403   2.643 -0.5744 -0.0174  0.4998
    9MOL   H500 6276   4.910   2.546   2.710 -0.3679  3.1139  0.0056
    9MOL   H501 6277   5.297   2.451   2.605  1.6799 -1.4540 -1.4375
    9MOL   H502 6278   5.242   2.607   2.547  0.8136  1.1194 -0.4147
    9MOL   H503 6279   5.377   2.544   2.482 -0.2195 -1.0777 -1.6882
    9MOL   H504 6280   5.164   2.645   2.346 -0.3402 -1.9957  2.2264
    9MOL   H505 6281   5.292   2.577   2.269  1.1239 -0.6399  2.1403
    9MOL   C506 6282   5.674   2.839   1.400 -0.3569 -0.1913  0.0775
    9MOL   C507 6283   5.583   2.799   1.518  0.8144 -0.1230 -0.3265
    9MOL   C508 6284   5.610   2.658   1.570  0.0182 -0.4354  0.3138
    9MOL   C509 6285   5.519   2.621   1.693  0.3457 -0.1416  0.2720
    9MOL   C510 6286   5.526   2.474   1.720 -0.0098 -0.1169 -0.0520
    9MOL   C511 6287   5.409   2.432   1.819 -0.0975 -0.3625 -0.3393
    9MOL   C512 6288   5.438   2.310   1.910  0.1757 -0.3262  0.6201
    9MOL   C513 6289   5.306   2.277   1.981  0.3804  0.5863 -0.3319
    9MOL   O514 6290   5.262   2.394   2.049 -0.1078 -0.2376 -0.0267
    9MOL   C515 6291   5.127   2.408   2.082 -0.4343  0.1497 -0.4911
    9MOL   O516 6292   5.039   2.333   2.048 -0.7391 -0.0233  0.2610
    9MOL   C517 6293   5.094   2.542   2.161  0.6636 -0.2868 -0.4963
    9MOL   C518 6294   4.940   2.547   2.190  0.3096  0.2520  0.8909
    9MOL   C519 6295   5.131   2.668   2.067 -1.1162 -0.4673  0.2698
    9MOL   H520 6296   5.779   2.827   1.425 -0.6245 -1.8980  0.4605
    9MOL   H521 6297   5.656   2.940   1.364 -2.0907 -0.3985  0.3111
    9MOL   H522 6298   5.655   2.767   1.319  0.1047 -0.2301  0.0039
    9MOL   H523 6299   5.483   2.798   1.474  0.3813 -1.5612  0.6736
    9MOL   H524 6300   5.584   2.873   1.598 -2.3413 -0.3934  0.0259
    9MOL   H525 6301   5.585   2.587   1.492  2.8616 -0.7544 -0.3606
    9MOL   H526 6302   5.717   2.656   1.589  0.2294 -0.6559 -0.8909
    9MOL   H527 6303   5.559   2.667   1.783  0.8912  1.3338 -0.7093
    9MOL   H528 6304   5.418   2.652   1.667  0.1704 -0.9428 -0.0411
    9MOL   H529 6305   5.535   2.418   1.628  2.0431  0.3648 -0.1888
    9MOL   H530 6306   5.623   2.463   1.770  0.0984 -1.3012 -0.5313
    9MOL   H531 6307   5.321   2.425   1.755  1.3667 -1.2024 -2.3007
    9MOL   H532 6308   5.371   2.514   1.880  0.1807 -1.0350  0.7511
    9MOL   H533 6309   5.508   2.340   1.988 -1.5186 -0.3507  2.1823
    9MOL   H534 6310   5.480   2.229   1.850 -0.4146  0.2543 -0.5995
    9MOL   H535 6311   5.336   2.194   2.045  1.0160 -1.8160 -3.6097
    9MOL   H536 6312   5.234   2.237   1.909  0.2504  1.8925 -0.9300
    9MOL   H537 6313   4.895   2.467   2.248 -1.5748  1.1765  0.7372
    9MOL   H538 6314   4.887   2.538   2.095 -2.3723 -1.5685  2.4893
    9MOL   H539 6315   4.921   2.649   2.225  0.5960 -0.4038  2.9883
    9MOL   H540 6316   5.119   2.750   2.138 -1.0840  0.4936 -0.8227
    9MOL   H541 6317   5.239   2.675   2.053 -0.9266 -1.0741  1.3512
    9MOL   C542 6318   5.052   2.759   2.834  0.5623 -0.1396 -0.4047
    9MOL   C543 6319   5.075   2.875   2.737  0.1818 -0.1325 -0.4720
    9MOL   C544 6320   5.003   2.847   2.608  0.1843 -0.1413  0.0614
    9MOL   C545 6321   4.998   2.965   2.502  0.1586  0.8534  0.8917
    9MOL   C546 6322   4.897   2.935   2.384  0.1081 -0.5088 -0.0228
    9MOL   C547 6323   4.900   3.052   2.281  0.8962 -0.5175 -0.0461
    9MOL   C548 6324   4.791   3.048   2.166  0.3739 -1.0288 -0.1172
    9MOL   C549 6325   4.775   2.921   2.086  0.2404  0.0468 -0.1490
    9MOL   O550 6326   4.898   2.871   2.039  0.0205  0.1771  0.0926
    9MOL   C551 6327   4.904   2.757   1.955 -0.4252  0.7532  0.3924
    9MOL   O552 6328   4.810   2.703   1.895 -0.3869  0.6635 -0.0759
    9MOL   C553 6329   5.053   2.708   1.936 -0.4595 -0.1620  0.1518
    9MOL   C554 6330   5.066   2.596   1.835  0.2832  0.0178 -0.0564
    9MOL   C555 6331   5.130   2.834   1.883 -0.9065 -0.2676  0.5236
    9MOL   H556 6332   5.137   2.751   2.901  0.9217 -3.2032 -1.1381
    9MOL   H557 6333   5.061   2.672   2.768 -2.0640 -1.2854  0.6529
    9MOL   H558 6334   4.952   2.764   2.879  1.2452 -2.9728  1.6093
    9MOL   H559 6335   5.046   2.966   2.790  2.7612  0.7410 -0.4499
    9MOL   H560 6336   5.180   2.895   2.713  0.4529  1.2765  1.6486
    9MOL   H561 6337   4.899   2.816   2.620 -0.0660 -0.1349 -1.9801
    9MOL   H562 6338   5.047   2.762   2.556  0.6151  1.0326 -1.5120
    9MOL   H563 6339   4.975   3.053   2.563  1.2058  0.9797  1.1168
    9MOL   H564 6340   5.098   2.991   2.467 -0.4808 -0.6884 -2.2458
    9MOL   H565 6341   4.796   2.918   2.422  0.6582 -3.5746  0.1830
    9MOL   H566 6342   4.923   2.839   2.339 -0.4739 -0.8815  0.4328
    9MOL   H567 6343   4.880   3.150   2.325  3.6278 -0.1298  0.4453
    9MOL   H568 6344   5.000   3.046   2.239  0.9551  1.5504 -0.2397
    9MOL   H569 6345   4.693   3.065   2.212  0.1354  0.5059 -1.1672
    9MOL   H570 6346   4.785   3.139   2.107  0.3466  0.4635  2.1077
    9MOL   H571 6347   4.701   2.925   2.006 -0.1656 -1.5813  0.1191
    9MOL   H572 6348   4.748   2.841   2.156 -0.7648  0.6056  0.1180
    9MOL   H573 6349   5.035   2.614   1.732  2.1621 -2.7240 -1.1696
    9MOL   H574 6350   5.010   2.513   1.878 -0.0686  0.3671  0.1636
    9MOL   H575 6351   5.171   2.567   1.831  0.7767  1.7029  0.2111
    9MOL   H576 6352   5.232   2.798   1.874 -1.2894 -0.6025 -3.2639
    9MOL   H577 6353   5.139   2.911   1.960  2.0900 -0.2949  0.2546
    9MOL   C578 6354   4.084   2.491   1.502 -0.3626  0.1175  0.1122
    9MOL   C579 6355   4.140   2.631   1.485  0.1469  0.6327  0.5031
    9MOL   C580 6356   4.276   2.654   1.554  0.2994  0.4315 -0.3302
    9MOL   C581 6357   4.321   2.803   1.560 -0.3940  0.4138  0.5865
    9MOL   C582 6358   4.452   2.814   1.631  0.1510  0.0238  0.0327
    9MOL   C583 6359   4.502   2.956   1.639  0.0753  0.1654 -0.0417
    9MOL   C584 6360   4.640   2.971   1.710 -0.0896 -0.4809 -0.4766
    9MOL   C585 6361   4.761   2.929   1.626 -0.6701 -0.2192  0.0573
    9MOL   O586 6362   4.873   2.938   1.705  0.0286  0.3004 -0.2555
    9MOL   C587 6363   4.987   2.876   1.666 -0.3682 -0.8095 -0.6766
    9MOL   O588 6364   4.995   2.816   1.561  0.1838  0.0615 -0.5101
    9MOL   C589 6365   5.119   2.915   1.745  0.1372  0.4829 -0.0502
    9MOL   C590 6366   5.232   2.880   1.645  0.1947  0.0987  0.2676
    9MOL   C591 6367   5.117   3.070   1.787 -0.2518 -0.1400  0.5362
    9MOL   H592 6368   4.077   2.465   1.607 -1.5137  1.7686  0.4649
    9MOL   H593 6369   4.145   2.417   1.450 -0.9465  1.1908 -2.1756
    9MOL   H594 6370   3.985   2.481   1.457 -0.8916 -1.1385  1.5398
    9MOL   H595 6371   4.072   2.708   1.522 -0.6267 -0.2769  0.9765
    9MOL   H596 6372   4.152   2.643   1.377  1.1011 -2.1452  0.2763
    9MOL   H597 6373   4.341   2.595   1.489 -0.1112  0.8059 -1.0773
    9MOL   H598 6374   4.271   2.602   1.650  1.6347 -3.5950 -2.3039
    9MOL   H599 6375   4.244   2.864   1.609 -0.4516  1.6420 -0.9742
    9MOL   H600 6376   4.336   2.847   1.462 -0.2912  1.3624  1.0147
    9MOL   H601 6377   4.529   2.752   1.585 -0.5717  1.3220 -3.0810
    9MOL   H602 6378   4.441   2.776   1.732  2.8942 -1.5848 -0.2112
    9MOL   H603 6379   4.429   3.013   1.695  1.0462 -0.0141  1.4497
    9MOL   H604 6380   4.498   2.993   1.536  1.7984  0.0820 -0.1701
    9MOL   H605 6381   4.633   2.898   1.791 -1.8965 -0.4732 -0.6185
    9MOL   H606 6382   4.674   3.069   1.746  0.4025 -0.5745 -0.6897
    9MOL   H607 6383   4.749   2.821   1.616  1.5325 -0.4743 -0.0627
    9MOL   H608 6384   4.756   2.969   1.525  0.4311  0.5353  0.2943
    9MOL   H609 6385   5.332   2.914   1.674  0.5128  0.6057 -1.3996
    9MOL   H610 6386   5.237   2.772   1.629  0.8244  0.2683 -0.7355
    9MOL   H611 6387   5.212   2.927   1.549  4.3555  0.0406 -0.7505
    9MOL   H612 6388   5.187   3.081   1.870  1.6919 -4.6360 -0.3505
    9MOL   H613 6389   5.019   3.084   1.833  0.7724 -0.2535  2.8143
    9MOL   C614 6390   6.161   2.779   2.137  0.0184  0.7909 -0.6012
    9MOL   C615 6391   6.114   2.899   2.062 -0.1654 -0.2416  0.2332
    9MOL   C616 6392   5.977   2.886   2.002 -0.6262  0.1234 -0.0113
    9MOL   C617 6393   5.938   3.010   1.916  0.6710 -0.7717  1.1218
    9MOL   C618 6394   5.788   2.988   1.893 -0.7133 -0.1519  0.5073
    9MOL   C619 6395   5.724   3.092   1.805 -0.5294 -0.6324 -0.2103
    9MOL   C620 6396   5.567   3.074   1.815 -0.2183  0.4625  0.3823
    9MOL   C621 6397   5.513   3.162   1.711  1.0582  0.0487 -0.4068
    9MOL   O622 6398   5.377   3.175   1.734  0.5468 -0.2934 -0.0959
    9MOL   C623 6399   5.281   3.174   1.633  0.4782 -0.0377  0.5470
    9MOL   O624 6400   5.310   3.154   1.512  0.3230 -0.0615  0.1803
    9MOL   C625 6401   5.137   3.189   1.688  0.3446  0.2423 -0.2892
    9MOL   C626 6402   5.032   3.182   1.568 -0.0219  0.4618 -0.3949
    9MOL   C627 6403   5.110   3.321   1.769  0.3147  0.4600  0.1015
    9MOL   H628 6404   6.149   2.681   2.091 -1.1599 -0.9029  3.0506
    9MOL   H629 6405   6.104   2.788   2.230 -0.7587  1.8713 -1.1843
    9MOL   H630 6406   6.267   2.797   2.155 -0.0844  0.3536  0.5199
    9MOL   H631 6407   6.118   2.987   2.127 -1.2958  0.8246 -1.1113
    9MOL   H632 6408   6.186   2.928   1.986 -1.9024  1.8986 -0.6408
    9MOL   H633 6409   5.902   2.863   2.077  0.5991  0.1497  1.2360
    9MOL   H634 6410   5.982   2.802   1.933  0.5184  1.9901 -2.2775
    9MOL   H635 6411   5.995   3.005   1.824  1.3814 -2.7652  1.6442
    9MOL   H636 6412   5.963   3.105   1.964 -1.5867  0.1091  0.6230
    9MOL   H637 6413   5.766   2.893   1.844 -1.8180  0.9164 -1.0993
    9MOL   H638 6414   5.725   2.995   1.982 -2.2722 -2.6124 -0.3438
    9MOL   H639 6415   5.752   3.192   1.836 -0.6814 -1.1348  1.5609
    9MOL   H640 6416   5.751   3.092   1.699  1.3999  0.8971  0.2425
    9MOL   H641 6417   5.533   3.094   1.916 -0.8824  3.4461 -0.3775
    9MOL   H642 6418   5.543   2.968   1.806 -0.9748  0.7876 -1.8513
    9MOL   H643 6419   5.561   3.259   1.720 -1.3306  0.9775  3.8128
    9MOL   H644 6420   5.532   3.119   1.613  1.0920  0.4280 -0.5670
    9MOL   H645 6421   5.042   3.262   1.494 -0.4394  0.5202 -0.3941
    9MOL   H646 6422   4.929   3.179   1.604 -0.2124 -1.5160 -1.0023
    9MOL   H647 6423   5.053   3.090   1.512 -0.1394 -0.5328  1.1820
    9MOL   H648 6424   5.179   3.316   1.853 -1.1391 -0.3044  1.2688
    9MOL   H649 6425   5.012   3.316   1.817  0.0638  4.5922  0.2178
    9MOL   C650 6426   3.920   3.348   1.636  0.2122 -0.4395 -0.7166
    9MOL   C651 6427   4.038   3.361   1.533  0.3193  0.0187 -0.6442
    9MOL   C652 6428   4.176   3.368   1.602 -0.1550 -0.2234 -0.4604
    9MOL   C653 6429   4.298   3.367   1.507  0.6843  0.3748  0.0693
    9MOL   C654 6430   4.430   3.348   1.591 -0.5963  0.0242  0.6607
    9MOL   C655 6431   4.555   3.368   1.492 -0.0708 -0.4064 -0.7482
    9MOL   C656 6432   4.692   3.354   1.558  0.5997 -0.7006 -0.1211
    9MOL   C657 6433   4.727   3.472   1.650 -0.2774 -0.3413  0.2993
    9MOL   O658 6434   4.864   3.468   1.706 -0.0401  0.1559  0.0110
    9MOL   C659 6435   4.978   3.486   1.636 -0.0827 -0.1835 -0.0676
    9MOL   O660 6436   4.981   3.515   1.517  0.3360  0.7919  0.1690
    9MOL   C661 6437   5.108   3.471   1.720 -0.0391  0.6952 -0.0436
    9MOL   C662 6438   5.227   3.503   1.631 -0.0155  0.1225  0.1750
    9MOL   C663 6439   5.114   3.570   1.849  0.3266  0.0524 -0.0559
    9MOL   H664 6440   3.908   3.433   1.703  1.5233  0.2722 -1.3544
    9MOL   H665 6441   3.941   3.262   1.698  0.1132  0.1472  0.1339
    9MOL   H666 6442   3.827   3.335   1.581  0.5595 -1.7128 -1.0256
    9MOL   H667 6443   4.021   3.453   1.476 -3.6686 -0.0755  0.2579
    9MOL   H668 6444   4.053   3.274   1.468 -1.6584 -0.6974 -0.1549
    9MOL   H669 6445   4.186   3.274   1.657 -3.3742  0.6980  1.8333
    9MOL   H670 6446   4.182   3.452   1.672  0.5466  0.3087 -1.1489
    9MOL   H671 6447   4.294   3.464   1.457 -2.5893  1.1761  1.7451
    9MOL   H672 6448   4.289   3.286   1.435 -1.3045  3.2801 -3.1155
    9MOL   H673 6449   4.423   3.250   1.637  0.5681 -1.5656 -2.4175
    9MOL   H674 6450   4.426   3.431   1.662 -2.1462 -0.5388  1.2594
    9MOL   H675 6451   4.547   3.289   1.417 -4.5665 -1.7569  0.9709
    9MOL   H676 6452   4.550   3.460   1.433  0.3354  0.1518  0.0675
    9MOL   H677 6453   4.780   3.341   1.495  0.0912 -0.4840 -0.8816
    9MOL   H678 6454   4.680   3.265   1.619 -1.1747 -0.0436  0.4959
    9MOL   H679 6455   4.655   3.484   1.731  1.1840  1.0043  1.4258
    9MOL   H680 6456   4.718   3.557   1.583  0.9388  0.6475  1.3639
    9MOL   H681 6457   5.229   3.433   1.548  1.9837 -0.7836  0.9416
    9MOL   H682 6458   5.323   3.491   1.681 -0.6736 -1.3851  1.0947
    9MOL   H683 6459   5.212   3.601   1.584 -0.6929  0.0301  0.2056
    9MOL   H684 6460   5.017   3.569   1.898 -0.2882 -0.7995 -1.2584
    9MOL   H685 6461   5.174   3.522   1.926 -0.1211 -0.3934  0.0184
    9MOL   C686 6462   6.253   3.749   1.696  0.1698  0.5932 -0.2359
    9MOL   C687 6463   6.171   3.619   1.666 -0.4937  0.5720 -0.0219
    9MOL   C688 6464   6.019   3.636   1.649 -1.1025  0.1451  0.7300
    9MOL   C689 6465   5.945   3.506   1.671  0.3000  0.1557  0.0210
    9MOL   C690 6466   5.791   3.513   1.648 -0.3207 -0.6355 -0.8343
    9MOL   C691 6467   5.732   3.599   1.762 -0.7633 -0.2987 -0.7018
    9MOL   C692 6468   5.575   3.600   1.763 -0.6225  0.2319  0.4065
    9MOL   C693 6469   5.518   3.705   1.863  0.1240 -0.0391 -0.1707
    9MOL   O694 6470   5.379   3.675   1.877 -0.0376 -0.0554 -0.3779
    9MOL   C695 6471   5.288   3.744   1.805  0.3729 -0.0298  0.1078
    9MOL   O696 6472   5.319   3.835   1.730 -0.2371 -0.2086 -0.4861
    9MOL   C697 6473   5.140   3.723   1.844  0.7736  0.1745  0.1202
    9MOL   C698 6474   5.107   3.788   1.982  0.1305 -0.6186 -0.5929
    9MOL   C699 6475   5.052   3.787   1.735 -1.1332  0.5924  0.0627
    9MOL   H700 6476   6.352   3.741   1.652  0.6891 -1.8025  1.2998
    9MOL   H701 6477   6.255   3.764   1.804 -0.8408 -0.1250 -0.1101
    9MOL   H702 6478   6.207   3.835   1.646  0.9349  0.6064 -0.9403
    9MOL   H703 6479   6.200   3.546   1.742  0.2927 -0.1607 -1.0090
    9MOL   H704 6480   6.220   3.569   1.582  0.9199  2.0266 -0.0899
    9MOL   H705 6481   6.003   3.682   1.552  2.6418  0.3669  0.1295
    9MOL   H706 6482   5.974   3.715   1.709  1.0663  0.4803  1.9899
    9MOL   H707 6483   5.960   3.469   1.772 -1.5541  0.7214  0.5164
    9MOL   H708 6484   5.997   3.428   1.616  1.5427  0.5881  0.5662
    9MOL   H709 6485   5.734   3.421   1.631 -1.3998 -0.0334 -0.4744
    9MOL   H710 6486   5.774   3.580   1.565 -0.2184 -1.2259 -1.3385
    9MOL   H711 6487   5.758   3.555   1.858  0.2201  0.7615 -0.4796
    9MOL   H712 6488   5.777   3.698   1.757 -0.5073 -0.3514  0.4313
    9MOL   H713 6489   5.533   3.608   1.662  1.8749 -1.4711 -0.8101
    9MOL   H714 6490   5.539   3.502   1.794  1.1495 -0.8781 -0.9547
    9MOL   H715 6491   5.532   3.807   1.828  2.5768 -0.2377  0.1608
    9MOL   H716 6492   5.567   3.680   1.958  1.7505 -0.5433 -1.1125
    9MOL   H717 6493   5.105   3.896   1.972 -0.0430 -0.3092  2.3362
    9MOL   H718 6494   5.009   3.755   2.017 -1.1684 -1.0116 -4.3215
    9MOL   H719 6495   5.171   3.736   2.053 -1.4196 -0.6000  0.8507
    9MOL   H720 6496   5.048   3.895   1.734  1.3999  0.7253  0.4778
    9MOL   H721 6497   4.947   3.761   1.749 -1.3010  0.5575 -1.2180
    9MOL   H722 6498   5.081   3.765   1.632 -1.7420  1.9692 -0.4064
   10MOL     C1 6499   3.898   2.472   7.771  0.1163 -0.1761 -0.4958
   10MOL     C2 6500   3.866   2.602   7.691  0.4879  0.6960 -0.0757
   10MOL     C3 6501   3.937   2.595   7.560 -0.3213  0.3690  0.2225
   10MOL     C4 6502   3.927   2.715   7.466 -0.0740  0.0689 -0.5372
   10MOL     C5 6503   3.950   2.858   7.514  0.2039  0.0355  0.0897
   10MOL     C6 6504   3.996   2.943   7.392  0.1083 -0.7903  0.9737
   10MOL     C7 6505   3.885   2.972   7.294 -0.6395 -0.3079  0.7632
   10MOL     C8 6506   3.919   3.061   7.170 -0.2400  0.3694 -0.0889
   10MOL     O9 6507   3.972   3.170   7.227 -0.3112  0.0660 -0.1834
   10MOL    C10 6508   4.001   3.275   7.149  0.1637  0.2443  0.3667
   10MOL    O11 6509   3.993   3.279   7.029  0.0249 -0.1734 -0.1765
   10MOL    C12 6510   4.043   3.396   7.233  0.6160  0.0738  0.8386
   10MOL    C13 6511   3.915   3.454   7.298 -0.3429  0.1823 -0.1425
   10MOL    C14 6512   4.162   3.366   7.334 -0.5469  0.4893  0.0730
   10MOL    H15 6513   3.830   2.453   0.074 -2.4546  0.0122 -2.5047
   10MOL    H16 6514   4.004   2.453   0.008  0.4122  0.3106 -1.7446
   10MOL    H17 6515   3.879   2.388   7.704  1.1561 -0.9476  0.1609
   10MOL    H18 6516   3.908   2.686   7.746  0.7668  1.7131 -1.7882
   10MOL    H19 6517   3.759   2.614   7.680  0.0896 -2.6595 -0.4500
   10MOL    H20 6518   4.041   2.570   7.578 -0.7337 -0.8562  1.0093
   10MOL    H21 6519   3.890   2.512   7.508 -2.4237  0.5474  1.7738
   10MOL    H22 6520   4.004   2.693   7.392  1.3080  3.7450 -0.2695
   10MOL    H23 6521   3.834   2.727   7.409 -2.0775 -0.4265  2.5012
   10MOL    H24 6522   4.023   2.857   7.595  0.8169  1.1836 -0.4313
   10MOL    H25 6523   3.855   2.893   7.555 -1.0752 -1.5308 -1.4549
   10MOL    H26 6524   4.082   2.896   7.345 -0.6165  0.8104 -2.0361
   10MOL    H27 6525   4.017   3.039   7.440 -1.0967  0.0694 -0.1632
   10MOL    H28 6526   3.802   3.015   7.350  0.1771  2.1840  0.1077
   10MOL    H29 6527   3.842   2.876   7.263  1.7198 -0.3979 -2.4220
   10MOL    H30 6528   3.837   3.070   7.100 -2.0005  1.5400  2.0595
   10MOL    H31 6529   3.989   3.014   7.101  0.3955 -0.1625  0.9114
   10MOL    H32 6530   3.942   3.529   7.372  0.7036 -1.2500  0.9660
   10MOL    H33 6531   3.850   3.501   7.224 -0.1855  1.8723  0.7615
   10MOL    H34 6532   3.849   3.385   7.352  0.2179  0.9544  1.5808
   10MOL    H35 6533   4.137   3.274   7.387 -0.4682  0.6437  0.3751
   10MOL    H36 6534   4.156   3.454   7.399  0.0747 -1.4723  2.8689
   10MOL    H37 6535   4.060   3.458   7.145 -0.0076 -0.4596  0.3338
   10MOL    C38 6536   3.738   3.473   6.654  0.7724 -0.0387  1.2450
   10MOL    C39 6537   3.704   3.612   6.693  0.3501  0.4951 -0.4323
   10MOL    C40 6538   3.748   3.649   6.836  0.0492 -0.5025 -0.3334
   10MOL    C41 6539   3.902   3.635   6.857  0.0420 -0.0775 -0.3587
   10MOL    C42 6540   3.962   3.727   6.964  0.2589  0.4316  0.0984
   10MOL    C43 6541   4.114   3.704   6.985 -0.6053  0.5402 -0.3934
   10MOL    C44 6542   4.165   3.765   7.113  0.2755  0.8208  0.7771
   10MOL    C45 6543   4.309   3.721   7.153  1.1251  0.3199 -0.2187
   10MOL    O46 6544   4.303   3.605   7.232  0.0890  0.0816 -0.2045
   10MOL    C47 6545   4.335   3.483   7.184  0.4711  0.6408 -1.0104
   10MOL    O48 6546   4.365   3.473   7.068  0.0924  0.1136 -0.0593
   10MOL    C49 6547   4.311   3.360   7.282 -0.6132 -0.1491  0.8648
   10MOL    C50 6548   4.329   3.228   7.209  0.6547  0.0409 -0.5576
   10MOL    C51 6549   4.407   3.378   7.412  0.1037 -0.0002 -0.0776
   10MOL    H52 6550   3.690   3.450   6.559 -1.4717  0.9923  2.1066
   10MOL    H53 6551   3.686   3.407   6.724 -0.3749 -0.6630 -0.1712
   10MOL    H54 6552   3.842   3.441   6.646  0.5023 -1.0357  1.6773
   10MOL    H55 6553   3.597   3.622   6.675 -0.0998  0.3797  2.0340
   10MOL    H56 6554   3.759   3.672   6.621  0.9672 -0.0488 -0.4284
   10MOL    H57 6555   3.709   3.744   6.872 -2.1011 -1.7903  0.8992
   10MOL    H58 6556   3.697   3.578   6.901 -0.8324 -2.6887 -3.2940
   10MOL    H59 6557   3.950   3.655   6.761  0.2830 -0.5909 -0.3511
   10MOL    H60 6558   3.907   3.530   6.885 -2.8601 -0.4372 -0.9964
   10MOL    H61 6559   3.944   3.829   6.931  0.3681  0.3386 -0.2540
   10MOL    H62 6560   3.919   3.698   7.060  2.7821 -0.0814  1.1153
   10MOL    H63 6561   4.137   3.598   6.982  0.0435  0.7080 -1.1923
   10MOL    H64 6562   4.175   3.735   6.901 -0.2728  2.6561  0.5881
   10MOL    H65 6563   4.101   3.738   7.197 -1.2809  1.2876 -0.2265
   10MOL    H66 6564   4.155   3.873   7.101  0.7901  1.0966  2.7457
   10MOL    H67 6565   4.349   3.795   7.222 -2.1256  2.0150 -0.0124
   10MOL    H68 6566   4.378   3.712   7.069  1.4465  1.0828 -0.0449
   10MOL    H69 6567   4.297   3.139   7.263  0.6929  0.1420 -0.3701
   10MOL    H70 6568   4.277   3.228   7.113  0.0922  0.0122 -0.2528
   10MOL    H71 6569   4.429   3.213   7.168  0.6317  1.0640 -1.0066
   10MOL    H72 6570   4.361   3.327   7.496  0.9315 -1.3570 -0.4368
   10MOL    H73 6571   4.400   3.477   7.458  0.4439 -0.3354  0.7040
   10MOL    C74 6572   4.019   2.824   0.243 -0.0175  0.2569  0.4593
   10MOL    C75 6573   4.101   2.696   0.244  0.2334  0.3568  0.3880
   10MOL    C76 6574   4.244   2.723   0.187 -0.4939  0.7196 -0.5901
   10MOL    C77 6575   4.256   2.770   0.037  0.2982 -0.5479 -0.1385
   10MOL    C78 6576   4.278   2.920   0.021 -0.6724 -0.0115  0.2831
   10MOL    C79 6577   4.329   2.970   7.663 -0.3009 -0.7271 -0.1367
   10MOL    C80 6578   4.475   2.941   7.622 -0.2369  0.2852 -0.0250
   10MOL    C81 6579   4.515   2.991   7.479  0.4478  0.3744  0.1137
   10MOL    O82 6580   4.529   3.129   7.490 -0.6576 -0.0255  0.6596
   10MOL    C83 6581   4.583   3.202   7.387 -0.7692 -0.2333 -0.0752
   10MOL    O84 6582   4.651   3.162   7.295 -0.0705 -0.9610  0.2025
   10MOL    C85 6583   4.561   3.357   7.405  0.4422 -0.3892  0.5355
   10MOL    C86 6584   4.627   3.427   7.285  0.0084  0.1956 -0.6753
   10MOL    C87 6585   4.615   3.402   7.544 -0.8661 -0.3192  0.2154
   10MOL    H88 6586   3.982   2.835   0.141 -0.3514 -2.8583  0.2062
   10MOL    H89 6587   4.067   2.915   0.279 -0.4171  1.6030 -2.2270
   10MOL    H90 6588   3.925   2.824   0.297 -0.2438 -4.7514  0.2695
   10MOL    H91 6589   4.062   2.627   0.169 -1.8194 -0.7181  2.3809
   10MOL    H92 6590   4.115   2.643   0.338  0.6416  0.1790  0.2251
   10MOL    H93 6591   4.295   2.794   0.252 -1.2644  1.2362 -0.5397
   10MOL    H94 6592   4.298   2.630   0.205 -0.8093  0.4681 -0.9265
   10MOL    H95 6593   4.169   2.738   7.759 -0.0854  1.0015 -0.4524
   10MOL    H96 6594   4.344   2.714   0.005  0.9018  0.0235  0.4911
   10MOL    H97 6595   4.193   2.979   0.053 -0.2830  0.1904  0.9341
   10MOL    H98 6596   4.357   2.955   0.086 -0.5595  1.8837 -0.8542
   10MOL    H99 6597   4.261   2.927   7.590 -0.9915 -0.0232  0.0844
   10MOL   H100 6598   4.317   3.078   7.667  0.2281 -0.6816  0.2427
   10MOL   H101 6599   4.527   2.974   7.712  0.4959 -2.4825  0.5963
   10MOL   H102 6600   4.487   2.833   7.631 -1.0424  0.3448  1.9421
   10MOL   H103 6601   4.441   2.959   7.405  0.8095 -0.6194  0.1755
   10MOL   H104 6602   4.611   2.945   7.455  0.3092  0.6805 -1.0338
   10MOL   H105 6603   4.592   3.392   7.188  1.0003 -0.7446 -0.7061
   10MOL   H106 6604   4.735   3.417   7.291  0.1237  1.3902 -0.5222
   10MOL   H107 6605   4.625   3.536   7.287  0.4010  0.2625 -3.1432
   10MOL   H108 6606   4.566   3.495   7.572 -0.2438 -0.1712  0.8184
   10MOL   H109 6607   4.575   3.330   7.615  1.4011 -1.1509  0.6771
   10MOL   C110 6608   4.583   4.539   7.231 -0.6224 -0.2489 -0.0177
   10MOL   C111 6609   4.621   4.418   7.140  0.4131 -0.3065  1.0998
   10MOL   C112 6610   4.620   4.291   7.211 -0.2689  0.3987  0.9469
   10MOL   C113 6611   4.638   4.153   7.136 -0.5245 -0.2350  0.0652
   10MOL   C114 6612   4.603   4.036   7.232  0.7958 -0.9511 -0.0014
   10MOL   C115 6613   4.711   3.985   7.327 -0.4420 -1.0312  0.0775
   10MOL   C116 6614   4.675   3.846   7.392  0.0185 -0.4001 -0.6668
   10MOL   C117 6615   4.773   3.801   7.507 -0.2988  0.6580 -0.0331
   10MOL   O118 6616   4.743   3.666   7.543 -0.5284  0.0265 -0.0773
   10MOL   C119 6617   4.816   3.561   7.502  0.2094  0.4782  0.3604
   10MOL   O120 6618   4.899   3.578   7.416  0.0455  0.1272 -0.1336
   10MOL   C121 6619   4.771   3.429   7.567 -0.8016  0.1766  1.1143
   10MOL   C122 6620   4.869   3.318   7.508 -0.3520  0.0733 -0.1074
   10MOL   C123 6621   4.781   3.437   7.724  0.1962 -0.1580  0.5586
   10MOL   H124 6622   4.643   4.566   7.318 -0.6024  2.8965 -0.9329
   10MOL   H125 6623   4.555   4.627   7.173 -0.1990 -0.3647 -0.4013
   10MOL   H126 6624   4.484   4.511   7.267 -1.2247  1.1050 -0.5660
   10MOL   H127 6625   4.711   4.442   7.084 -0.1382 -0.4054  0.1491
   10MOL   H128 6626   4.554   4.400   7.055  1.1116  1.3982  0.1637
   10MOL   H129 6627   4.520   4.295   7.253 -0.3984 -0.3758  0.7129
   10MOL   H130 6628   4.689   4.284   7.296  1.4819  3.2344 -0.1721
   10MOL   H131 6629   4.561   4.157   7.059  0.3085 -0.8591 -0.8171
   10MOL   H132 6630   4.730   4.136   7.080 -0.8517  0.5391 -0.7236
   10MOL   H133 6631   4.586   3.958   7.158 -0.1830  1.7408 -2.7083
   10MOL   H134 6632   4.510   4.067   7.279  0.1683 -0.6095 -1.4363
   10MOL   H135 6633   4.806   3.967   7.277  0.1789 -1.7064  1.4623
   10MOL   H136 6634   4.740   4.056   7.405  1.8327 -0.5003 -1.2200
   10MOL   H137 6635   4.674   3.768   7.315 -0.1161 -1.0045 -0.0559
   10MOL   H138 6636   4.572   3.855   7.428 -0.3450  2.6772 -2.3156
   10MOL   H139 6637   4.877   3.809   7.477 -0.2855  1.6916  0.2625
   10MOL   H140 6638   4.752   3.874   7.586 -0.6998  3.0462 -2.2659
   10MOL   H141 6639   4.857   3.226   7.566  0.0118 -0.1954 -0.4593
   10MOL   H142 6640   4.853   3.292   7.404  0.4089  1.1460 -0.4971
   10MOL   H143 6641   4.976   3.333   7.502  0.0803 -2.8494 -0.3782
   10MOL   H144 6642   4.747   3.337   7.752 -0.1405 -0.0674  0.4711
   10MOL   H145 6643   4.699   3.498   7.763 -0.2200  0.4952 -1.2880
   10MOL   C146 6644   5.052   2.327   0.033  0.4989 -0.2255  0.7441
   10MOL   C147 6645   5.073   2.470   7.766 -0.4158  0.1173  0.0870
   10MOL   C148 6646   5.007   2.580   0.064  0.0927  0.0393  0.2504
   10MOL   C149 6647   5.061   2.724   0.034 -0.3577  0.1003  0.3539
   10MOL   C150 6648   4.984   2.823   0.124 -0.0901  0.0469 -0.0689
   10MOL   C151 6649   5.042   2.969   0.119  0.9532 -0.0953 -0.3356
   10MOL   C152 6650   5.074   3.018   7.755  0.1334  0.0835  0.0700
   10MOL   C153 6651   5.123   3.158   7.754 -0.2932 -0.2092  0.0476
   10MOL   O154 6652   5.011   3.251   7.776 -0.9592  0.1982 -0.2073
   10MOL   C155 6653   5.033   3.383   7.769 -0.8835  0.0133  1.1966
   10MOL   O156 6654   5.139   3.433   7.737  0.6005 -0.0054 -0.1338
   10MOL   C157 6655   4.910   3.473   0.034  0.4378  0.2028  0.1414
   10MOL   C158 6656   4.947   3.621   0.015 -0.4244  0.7201 -0.6980
   10MOL   C159 6657   4.873   3.440   0.187  0.0064 -0.5873  0.3653
   10MOL   H160 6658   4.960   2.289   7.768 -0.6938  0.9651  2.1310
   10MOL   H161 6659   5.060   2.332   0.141 -0.8901 -0.0059  0.8525
   10MOL   H162 6660   5.129   2.264   7.769  0.1231 -0.6363  0.6772
   10MOL   H163 6661   5.180   2.486   7.775  0.1531 -2.3956 -1.5851
   10MOL   H164 6662   5.059   2.483   7.658 -0.0497 -0.8431 -0.0889
   10MOL   H165 6663   5.030   2.568   0.169 -3.3322 -0.6828  0.9864
   10MOL   H166 6664   4.900   2.572   0.042  0.0580  1.0230  0.0265
   10MOL   H167 6665   5.164   2.737   0.068 -0.4282 -0.5608  0.8513
   10MOL   H168 6666   5.058   2.756   7.710  0.2263 -1.8881 -0.2940
   10MOL   H169 6667   4.993   2.785   0.226 -0.8407  0.2101  0.0626
   10MOL   H170 6668   4.878   2.828   0.096  0.4269  0.0870 -2.0808
   10MOL   H171 6669   5.135   2.967   0.176  0.1406  1.4068  1.0765
   10MOL   H172 6670   4.969   3.032   0.169 -0.2038  0.0625 -2.1930
   10MOL   H173 6671   5.138   2.948   7.702 -0.1013  0.1596 -0.3091
   10MOL   H174 6672   4.987   3.004   7.691 -0.4556  0.0187  0.8802
   10MOL   H175 6673   5.201   3.174   0.049  0.0851 -0.6761 -0.2427
   10MOL   H176 6674   5.164   3.185   7.657 -1.8486  1.0872 -0.2640
   10MOL   H177 6675   4.863   3.686   0.038 -0.4071  0.5883 -0.2594
   10MOL   H178 6676   4.966   3.644   7.690 -0.5837  1.7501 -0.5036
   10MOL   H179 6677   5.026   3.650   0.083 -3.7336  0.7030  3.3325
   10MOL   H180 6678   4.881   3.331   0.198 -0.9285 -0.7668 -0.5701
   10MOL   H181 6679   4.766   3.460   0.189 -0.1815 -1.6328  1.1423
   10MOL   C182 6680   4.134   3.453   7.707  0.7314 -0.1735 -0.2296
   10MOL   C183 6681   4.090   3.600   7.733  0.3546  0.7666  0.1626
   10MOL   C184 6682   4.167   3.684   0.058 -0.0968 -0.1318 -0.6335
   10MOL   C185 6683   4.316   3.708   0.030  0.5064 -0.1689 -0.2232
   10MOL   C186 6684   4.381   3.764   0.156  0.1923 -0.3059 -0.4052
   10MOL   C187 6685   4.540   3.767   0.144 -0.6692  0.2669  0.2779
   10MOL   C188 6686   4.607   3.833   0.268 -0.1093  0.9389 -0.3088
   10MOL   C189 6687   4.764   3.827   0.272  0.2277 -0.3079 -0.6625
   10MOL   O190 6688   4.802   3.692   0.266  0.1319 -0.3587  0.5538
   10MOL   C191 6689   4.920   3.654   0.316  0.0720 -0.1512  0.3713
   10MOL   O192 6690   5.000   3.738   0.368 -0.2711 -0.2149  0.2415
   10MOL   C193 6691   4.946   3.502   0.307 -0.1901  0.3131 -0.8314
   10MOL   C194 6692   5.094   3.478   0.297 -0.1779 -0.7813 -0.4411
   10MOL   C195 6693   4.914   3.429   0.444  0.7051  0.1363  0.1873
   10MOL   H196 6694   4.226   3.458   7.648  0.6121  0.2214 -0.3813
   10MOL   H197 6695   4.144   3.392   0.018 -0.7740 -2.3348 -1.4745
   10MOL   H198 6696   4.068   3.393   7.645  0.8053  1.9772 -2.4567
   10MOL   H199 6697   3.987   3.609   7.768  0.3157 -2.1835  0.9722
   10MOL   H200 6698   4.103   3.652   7.638  2.1936  1.5729  0.8486
   10MOL   H201 6699   4.109   3.773   0.080 -2.1698 -1.4645 -0.5715
   10MOL   H202 6700   4.169   3.625   0.150 -1.2166 -1.0831 -1.2120
   10MOL   H203 6701   4.360   3.612   0.005 -1.0517 -1.0283  0.2750
   10MOL   H204 6702   4.329   3.776   7.725  1.6274 -0.7493 -0.5286
   10MOL   H205 6703   4.364   3.695   0.238  0.0202  1.3272  0.9533
   10MOL   H206 6704   4.348   3.865   0.181 -1.8325 -1.1537  0.5148
   10MOL   H207 6705   4.561   3.830   0.057 -0.5092  1.4929  1.1850
   10MOL   H208 6706   4.586   3.671   0.119  1.5085  1.3431  0.0049
   10MOL   H209 6707   4.574   3.936   0.260 -0.2540  0.8089 -1.6007
   10MOL   H210 6708   4.571   3.792   0.362  0.3088 -2.1550 -1.4047
   10MOL   H211 6709   4.816   3.881   0.351  1.7988  0.0118 -1.8849
   10MOL   H212 6710   4.808   3.874   0.184 -1.8267 -0.7347 -1.9309
   10MOL   H213 6711   5.152   3.518   0.381 -0.2498  1.9930 -1.6321
   10MOL   H214 6712   5.109   3.370   0.294  2.2254 -0.4602 -1.9014
   10MOL   H215 6713   5.142   3.526   0.212 -1.3011  0.2668 -0.4908
   10MOL   H216 6714   4.938   3.323   0.436  2.1914  0.4811 -0.1391
   10MOL   H217 6715   4.992   3.463   0.513  0.8006 -1.7659  1.0499
   10MOL   C218 6716   4.707   2.410   0.383 -0.2804 -0.0921 -0.2009
   10MOL   C219 6717   4.722   2.553   0.428  0.3672 -0.1272  0.0082
   10MOL   C220 6718   4.651   2.656   0.343 -0.2602 -0.0689 -0.5323
   10MOL   C221 6719   4.640   2.797   0.397  0.0441  0.1778 -0.2350
   10MOL   C222 6720   4.618   2.904   0.277 -0.6006 -0.2425 -0.0597
   10MOL   C223 6721   4.554   3.033   0.329 -0.2866  0.8347 -0.1156
   10MOL   C224 6722   4.545   3.144   0.226  0.1812 -0.2353 -0.1530
   10MOL   C225 6723   4.522   3.292   0.286 -0.0450 -0.1021 -0.1011
   10MOL   O226 6724   4.649   3.325   0.350  0.0078 -0.6680  0.9186
   10MOL   C227 6725   4.654   3.430   0.427  0.3653 -0.0188  0.6457
   10MOL   O228 6726   4.568   3.519   0.423  0.2952 -0.3097  0.6323
   10MOL   C229 6727   4.776   3.451   0.525  0.0602 -0.5705 -0.1474
   10MOL   C230 6728   4.776   3.593   0.584  0.0361  0.2239  0.0295
   10MOL   C231 6729   4.775   3.338   0.637 -1.2407  0.3525 -0.1600
   10MOL   H232 6730   4.606   2.370   0.388  0.1171 -1.3128 -1.6423
   10MOL   H233 6731   4.781   2.360   0.445  0.8465  0.5831 -0.9857
   10MOL   H234 6732   4.744   2.403   0.281 -0.5818 -2.2302 -0.1870
   10MOL   H235 6733   4.828   2.577   0.438 -0.0406  1.5679  0.4502
   10MOL   H236 6734   4.677   2.553   0.528  0.8151  0.0812  0.2106
   10MOL   H237 6735   4.712   2.652   0.252  0.9088 -0.1408  0.2499
   10MOL   H238 6736   4.552   2.619   0.316 -1.4130  0.6406  2.5633
   10MOL   H239 6737   4.550   2.799   0.459 -0.1375 -2.0885 -0.4094
   10MOL   H240 6738   4.730   2.818   0.455  0.8029 -0.9888 -0.9792
   10MOL   H241 6739   4.716   2.916   0.232 -1.0343  0.5615 -0.8048
   10MOL   H242 6740   4.558   2.857   0.199  1.4621 -1.5921 -0.8872
   10MOL   H243 6741   4.453   3.014   0.366  0.2517  0.9534  1.4243
   10MOL   H244 6742   4.624   3.059   0.408 -0.3353 -1.0667  0.5975
   10MOL   H245 6743   4.458   3.124   0.164  1.0145  0.4032 -1.5490
   10MOL   H246 6744   4.635   3.143   0.165 -0.0335 -0.4093 -0.4676
   10MOL   H247 6745   4.444   3.295   0.362 -0.1940  1.4974 -0.2998
   10MOL   H248 6746   4.507   3.373   0.215  0.5464 -0.7578 -0.9812
   10MOL   H249 6747   4.688   3.596   0.649  0.2287 -0.0029  0.2978
   10MOL   H250 6748   4.750   3.669   0.510 -2.2435 -1.3080 -0.8063
   10MOL   H251 6749   4.871   3.626   0.625 -0.3519 -2.6593  3.4999
   10MOL   H252 6750   4.747   3.244   0.591 -0.3850  0.3881 -0.7649
   10MOL   H253 6751   4.876   3.319   0.671 -0.2363  3.1525 -1.3933
   10MOL   C254 6752   3.795   2.569   0.655 -0.4437  0.7655 -0.4732
   10MOL   C255 6753   3.812   2.722   0.660  0.7168  0.0391 -0.1573
   10MOL   C256 6754   3.955   2.758   0.628  0.8015  0.6475  0.4449
   10MOL   C257 6755   3.983   2.911   0.624  0.6369 -0.6215 -0.0062
   10MOL   C258 6756   4.128   2.957   0.614  0.0893  0.0703 -0.5619
   10MOL   C259 6757   4.143   3.111   0.636  0.1864  0.1314  0.1787
   10MOL   C260 6758   4.299   3.144   0.636 -0.0129  0.0306 -0.0417
   10MOL   C261 6759   4.335   3.299   0.639  0.3761 -0.3451 -0.2053
   10MOL   O262 6760   4.480   3.314   0.653 -0.4692 -0.0347 -0.1758
   10MOL   C263 6761   4.540   3.397   0.740 -0.3051  0.5385 -0.3295
   10MOL   O264 6762   4.493   3.500   0.796  0.2558  0.1539 -0.4183
   10MOL   C265 6763   4.686   3.344   0.774  0.6005 -0.3212  0.6069
   10MOL   C266 6764   4.756   3.445   0.869  0.1159 -0.2722 -0.0980
   10MOL   C267 6765   4.693   3.193   0.832 -0.2384  1.4932 -0.0887
   10MOL   H268 6766   3.878   2.522   0.708  0.4732  2.2825 -0.5282
   10MOL   H269 6767   3.699   2.538   0.697  0.5775 -0.9086  0.6979
   10MOL   H270 6768   3.784   2.543   0.550 -0.8046 -0.9828 -0.0184
   10MOL   H271 6769   3.744   2.761   0.584 -0.3905  0.7399  1.1494
   10MOL   H272 6770   3.786   2.758   0.760  3.1486  2.3977 -0.3489
   10MOL   H273 6771   3.990   2.715   0.534 -0.5215  3.4688 -1.4192
   10MOL   H274 6772   4.016   2.706   0.701  2.3454 -1.0150 -1.9532
   10MOL   H275 6773   3.941   2.942   0.721  0.4075 -1.7255  0.2529
   10MOL   H276 6774   3.930   2.970   0.549  2.7536  1.5165  0.1131
   10MOL   H277 6775   4.194   2.903   0.681  1.7609  0.5840 -1.7425
   10MOL   H278 6776   4.169   2.928   0.517  1.9317 -1.9409  0.7879
   10MOL   H279 6777   4.089   3.145   0.724 -1.0562 -0.5014 -0.3371
   10MOL   H280 6778   4.109   3.158   0.543  1.0862 -1.1378 -0.8032
   10MOL   H281 6779   4.341   3.098   0.725  0.2193  2.2742  1.0409
   10MOL   H282 6780   4.352   3.094   0.554 -1.5000 -3.2124  0.8899
   10MOL   H283 6781   4.282   3.352   0.560 -1.4945  0.2331  1.4103
   10MOL   H284 6782   4.300   3.333   0.736  0.0274 -1.1859 -0.0339
   10MOL   H285 6783   4.706   3.442   0.966 -0.5919  1.2412 -0.4027
   10MOL   H286 6784   4.857   3.409   0.890  1.0904  1.7295 -1.1572
   10MOL   H287 6785   4.758   3.551   0.843 -2.7040  0.4546  2.3571
   10MOL   H288 6786   4.794   3.156   0.814 -0.3004  0.7710  0.9475
   10MOL   H289 6787   4.631   3.126   0.772 -1.5193  1.5573  1.1335
   10MOL   C290 6788   5.237   2.452   1.453 -0.7975  0.1522 -0.3697
   10MOL   C291 6789   5.219   2.530   1.314  0.0221  0.3246 -0.2020
   10MOL   C292 6790   5.211   2.677   1.332 -0.0542 -0.2513  0.7118
   10MOL   C293 6791   5.184   2.746   1.203 -0.2272 -0.7004  0.3198
   10MOL   C294 6792   5.167   2.900   1.225  0.6678  0.1415 -0.2054
   10MOL   C295 6793   5.145   2.964   1.090 -0.3169  0.8008  0.3316
   10MOL   C296 6794   5.123   3.123   1.093  0.5739  0.2733 -0.2904
   10MOL   C297 6795   4.988   3.185   1.144  0.2086  0.0158  0.1716
   10MOL   O298 6796   4.883   3.157   1.048  0.1851  0.4764 -0.4512
   10MOL   C299 6797   4.750   3.183   1.084 -0.7580  0.4735 -0.0262
   10MOL   O300 6798   4.719   3.232   1.194 -0.0875  0.2729  0.3951
   10MOL   C301 6799   4.642   3.137   0.976 -0.3006  0.2724  0.4667
   10MOL   C302 6800   4.516   3.221   1.019  0.0673  0.2516  0.3477
   10MOL   C303 6801   4.598   2.985   0.975  0.1086 -0.4123  0.0585
   10MOL   H304 6802   5.246   2.346   1.432  0.0475  0.4532 -1.5818
   10MOL   H305 6803   5.160   2.458   1.530  2.3892  1.2925  2.8570
   10MOL   H306 6804   5.326   2.479   1.509 -1.8079 -0.2748  1.4688
   10MOL   H307 6805   5.138   2.489   1.254  0.9144 -0.3072 -1.0062
   10MOL   H308 6806   5.311   2.514   1.257  0.7896 -0.6945  1.2800
   10MOL   H309 6807   5.309   2.698   1.377 -0.5490 -0.6305  1.9801
   10MOL   H310 6808   5.135   2.693   1.408 -0.3960  1.1327  0.1032
   10MOL   H311 6809   5.268   2.734   1.135  0.5338  0.0537  1.1042
   10MOL   H312 6810   5.085   2.716   1.167 -1.5577  0.9602  2.3985
   10MOL   H313 6811   5.093   2.924   1.302  1.3630 -1.0180  0.8454
   10MOL   H314 6812   5.256   2.945   1.270  0.0579  0.1337  1.0436
   10MOL   H315 6813   5.060   2.918   1.040 -1.3910  3.6314 -0.5386
   10MOL   H316 6814   5.231   2.937   1.028  2.2518  2.8259  2.9194
   10MOL   H317 6815   5.134   3.161   0.992  1.8545  0.9084  0.0771
   10MOL   H318 6816   5.191   3.184   1.153  0.4419  0.7269 -0.5991
   10MOL   H319 6817   5.002   3.292   1.153 -1.7962  0.3047  0.1812
   10MOL   H320 6818   4.969   3.150   1.246  2.0182  0.6085  0.7219
   10MOL   H321 6819   4.432   3.216   0.949  0.2724  0.3268  0.0954
   10MOL   H322 6820   4.539   3.327   1.034 -0.1664  0.4050 -0.3515
   10MOL   H323 6821   4.484   3.179   1.114  0.8054 -0.0404  0.4688
   10MOL   H324 6822   4.529   2.988   1.059 -0.5368 -0.0440 -0.4843
   10MOL   H325 6823   4.536   2.973   0.886 -0.7742 -0.0065  0.6177
   10MOL   C326 6824   4.516   2.031   0.591  0.0934  0.1183 -0.1275
   10MOL   C327 6825   4.559   2.154   0.666 -0.0899  0.2199  0.2254
   10MOL   C328 6826   4.712   2.176   0.662  0.0110  0.2401  0.4139
   10MOL   C329 6827   4.753   2.292   0.742  0.2196  0.1142 -0.2566
   10MOL   C330 6828   4.905   2.326   0.739  0.0674  0.0132  0.5706
   10MOL   C331 6829   4.955   2.449   0.818  0.5285 -0.9876 -0.0312
   10MOL   C332 6830   4.927   2.578   0.738  0.1220 -0.3839  0.4227
   10MOL   C333 6831   4.978   2.706   0.817  0.5354  0.0141 -0.2736
   10MOL   O334 6832   4.884   2.741   0.918 -0.0525  0.3467 -0.5813
   10MOL   C335 6833   4.791   2.835   0.881  0.8111 -0.0741  0.6648
   10MOL   O336 6834   4.789   2.902   0.776  0.3221 -0.7946  0.4815
   10MOL   C337 6835   4.685   2.852   0.991  0.0508  0.1889 -0.2495
   10MOL   C338 6836   4.756   2.861   1.130 -0.2670 -0.4462 -0.2065
   10MOL   C339 6837   4.595   2.730   0.980  0.7838 -0.0530 -0.2245
   10MOL   H340 6838   4.520   2.051   0.484  0.7500 -1.9198 -0.5047
   10MOL   H341 6839   4.408   2.019   0.602  0.3350 -1.3005  0.7631
   10MOL   H342 6840   4.570   1.944   0.629  2.8531  1.9979  0.3909
   10MOL   H343 6841   4.527   2.163   0.769  0.7645 -0.3953  0.5468
   10MOL   H344 6842   4.508   2.238   0.618 -1.4764 -0.7029  0.0491
   10MOL   H345 6843   4.743   2.200   0.560 -1.4953  1.4500  0.2245
   10MOL   H346 6844   4.764   2.082   0.682  0.3086  0.8493  2.6567
   10MOL   H347 6845   4.712   2.287   0.843 -1.2395  3.9513 -0.5916
   10MOL   H348 6846   4.704   2.380   0.700 -0.6402 -1.7340 -3.3110
   10MOL   H349 6847   4.954   2.235   0.774 -0.2842 -1.4329 -2.5001
   10MOL   H350 6848   4.943   2.339   0.638 -1.1453 -0.1181  0.0915
   10MOL   H351 6849   4.902   2.471   0.911 -1.3920 -2.8088 -0.6634
   10MOL   H352 6850   5.061   2.454   0.845  0.4194 -0.2129  0.2691
   10MOL   H353 6851   4.818   2.586   0.741  0.2796  1.9677  1.0400
   10MOL   H354 6852   4.964   2.572   0.636  0.2927  2.9845  0.2223
   10MOL   H355 6853   5.079   2.687   0.853  0.9858  0.4656 -1.2887
   10MOL   H356 6854   4.994   2.797   0.760  2.0669 -1.3266 -2.0193
   10MOL   H357 6855   4.783   2.769   1.182  2.7777  1.2516  1.2973
   10MOL   H358 6856   4.855   2.906   1.129 -1.0447  1.2896 -1.0192
   10MOL   H359 6857   4.698   2.920   1.201  0.0458 -1.5022  0.9305
   10MOL   H360 6858   4.576   2.709   0.875 -0.3432  1.1898 -0.2804
   10MOL   H361 6859   4.654   2.646   1.018  1.1567  0.2729 -0.0688
   10MOL   C362 6860   3.784   2.994   1.771  0.3409 -0.0138 -0.1941
   10MOL   C363 6861   3.886   2.979   1.659  0.2600  0.4751 -0.4577
   10MOL   C364 6862   3.823   3.012   1.528 -0.3306  0.2088  0.2834
   10MOL   C365 6863   3.926   2.989   1.414 -0.3169  0.8457  0.2644
   10MOL   C366 6864   3.870   3.039   1.286  0.1742 -0.1906  0.4731
   10MOL   C367 6865   3.973   3.042   1.174  0.0363  0.4727  0.0529
   10MOL   C368 6866   4.039   2.912   1.145 -0.1480 -0.3355  0.0284
   10MOL   C369 6867   4.133   2.908   1.024 -0.1063 -0.1577  0.4756
   10MOL   O370 6868   4.236   2.821   1.065 -0.3666  0.2426  0.3279
   10MOL   C371 6869   4.337   2.788   0.984 -0.4849 -0.4393 -0.6668
   10MOL   O372 6870   4.346   2.805   0.862  0.4045 -0.2542  0.0564
   10MOL   C373 6871   4.456   2.714   1.054  0.7828 -0.1450  0.4113
   10MOL   C374 6872   4.475   2.757   1.203  0.5894  0.1847  0.4270
   10MOL   C375 6873   4.414   2.559   1.069  0.3625  0.7295  0.1049
   10MOL   H376 6874   3.694   2.932   1.767  0.1871  0.1604  0.5581
   10MOL   H377 6875   3.829   2.992   1.870 -0.2513 -2.7203  0.0807
   10MOL   H378 6876   3.746   3.093   1.747 -1.6112 -1.2218 -2.3396
   10MOL   H379 6877   3.938   2.884   1.653 -1.7481 -0.6863 -0.1467
   10MOL   H380 6878   3.966   3.051   1.671 -0.0697  0.5167  1.6575
   10MOL   H381 6879   3.803   3.119   1.535 -1.0427 -0.0117  1.9431
   10MOL   H382 6880   3.731   2.956   1.513 -0.1119 -0.3019  0.8292
   10MOL   H383 6881   3.952   2.886   1.387  1.6288  2.0037 -2.4412
   10MOL   H384 6882   4.021   3.032   1.444 -0.8170  1.6174  0.7531
   10MOL   H385 6883   3.785   2.974   1.266  0.2467 -0.5301  1.2469
   10MOL   H386 6884   3.835   3.142   1.296  0.9047 -0.0516  1.7794
   10MOL   H387 6885   4.050   3.114   1.201  1.4577 -1.0735  0.1642
   10MOL   H388 6886   3.936   3.080   1.079  1.6354  0.8995 -0.4153
   10MOL   H389 6887   3.969   2.834   1.116 -0.7822  0.5945 -0.9919
   10MOL   H390 6888   4.091   2.875   1.233  0.5261  1.6785  0.5121
   10MOL   H391 6889   4.089   2.874   0.932 -1.3749  0.6020  0.7910
   10MOL   H392 6890   4.179   3.007   1.025 -1.1812  0.3546 -0.7740
   10MOL   H393 6891   4.496   2.862   1.224  2.4736 -0.3755  1.4741
   10MOL   H394 6892   4.396   2.732   1.273 -0.8825 -1.0354 -1.5977
   10MOL   H395 6893   4.559   2.702   1.246  1.3958  1.2601  0.2348
   10MOL   H396 6894   4.496   2.510   1.122 -0.4379 -0.8374 -0.0928
   10MOL   H397 6895   4.345   2.568   1.153  0.4933  2.5975  0.0288
   10MOL   C398 6896   3.225   2.556   1.072  0.2522  0.0213  0.3643
   10MOL   C399 6897   3.339   2.606   1.165 -0.1396  0.1675 -0.5219
   10MOL   C400 6898   3.482   2.554   1.146  0.3746 -0.2446 -0.5667
   10MOL   C401 6899   3.574   2.620   1.256  0.2679  0.4236  0.6152
   10MOL   C402 6900   3.712   2.562   1.246  0.5157 -0.0936  0.3751
   10MOL   C403 6901   3.793   2.614   1.118  0.0977 -0.3113  0.0210
   10MOL   C404 6902   3.942   2.561   1.127 -0.2187 -0.6408 -0.0049
   10MOL   C405 6903   4.010   2.549   1.000 -0.0009 -0.0736  0.2333
   10MOL   O406 6904   4.141   2.502   1.019  0.2418 -0.2675  0.0548
   10MOL   C407 6905   4.224   2.493   0.914  0.6205  0.3372 -0.4593
   10MOL   O408 6906   4.184   2.510   0.798  0.2043  0.7869 -0.5460
   10MOL   C409 6907   4.366   2.459   0.952 -0.0731  0.1201 -0.3680
   10MOL   C410 6908   4.450   2.476   0.822 -0.0812  0.0981 -0.3831
   10MOL   C411 6909   4.380   2.305   0.999  0.1123  0.0036  0.1432
   10MOL   H412 6910   3.201   2.451   1.092  2.3233 -0.6236 -0.4157
   10MOL   H413 6911   3.265   2.565   0.971 -1.7018  0.3646 -0.4053
   10MOL   H414 6912   3.128   2.606   1.077 -0.7429 -1.8127  0.0692
   10MOL   H415 6913   3.305   2.581   1.266  1.1192 -2.0931 -0.6467
   10MOL   H416 6914   3.352   2.714   1.157 -2.7990  0.4334 -1.6875
   10MOL   H417 6915   3.471   2.446   1.154 -1.5318  0.0231  0.8675
   10MOL   H418 6916   3.523   2.581   1.049 -0.5376  0.7024 -0.6921
   10MOL   H419 6917   3.541   2.607   1.359  2.8509 -2.0152  1.2263
   10MOL   H420 6918   3.576   2.726   1.234 -0.6127  0.2663 -0.2716
   10MOL   H421 6919   3.779   2.589   1.327  2.0241  1.6408 -1.4135
   10MOL   H422 6920   3.705   2.453   1.247  1.0881 -0.1262  0.6870
   10MOL   H423 6921   3.790   2.723   1.116 -1.4032 -0.3046  1.5356
   10MOL   H424 6922   3.748   2.578   1.026 -0.7628  3.4172 -1.0751
   10MOL   H425 6923   4.001   2.627   1.190 -0.1777 -1.0551  0.3905
   10MOL   H426 6924   3.933   2.462   1.173  2.9831 -0.8242  0.3484
   10MOL   H427 6925   3.960   2.467   0.948  1.1104 -1.1240  0.7918
   10MOL   H428 6926   4.003   2.637   0.937 -1.2095 -1.0407 -1.0172
   10MOL   H429 6927   4.447   2.581   0.791  0.6043 -0.1420 -1.2836
   10MOL   H430 6928   4.424   2.418   0.734  1.9570 -3.4653  1.2522
   10MOL   H431 6929   4.557   2.458   0.837 -0.1592  1.3343  2.0665
   10MOL   H432 6930   4.485   2.292   1.021  0.3533  1.8751  0.2143
   10MOL   H433 6931   4.368   2.244   0.909 -0.0928  0.4952 -0.1701
   10MOL   C434 6932   4.344   2.334   0.139 -0.6328  0.8640 -0.5465
   10MOL   C435 6933   4.218   2.332   0.227 -0.1267  0.1458 -0.1444
   10MOL   C436 6934   4.192   2.215   0.321 -1.1049  0.2181 -0.0707
   10MOL   C437 6935   4.058   2.216   0.404 -0.5083  0.3732  0.8761
   10MOL   C438 6936   4.029   2.081   0.478  0.0866  0.1807 -0.2737
   10MOL   C439 6937   4.091   2.068   0.613  0.3115 -0.0333  0.5084
   10MOL   C440 6938   4.032   2.165   0.716  0.4665 -0.4694 -0.2980
   10MOL   C441 6939   4.020   2.119   0.863  0.0033 -0.4133  0.4120
   10MOL   O442 6940   4.153   2.146   0.926 -0.2036  0.1541  0.2437
   10MOL   C443 6941   4.153   2.202   1.048  0.1573 -0.8753  0.5654
   10MOL   O444 6942   4.052   2.224   1.115 -0.5743  0.3075  0.0262
   10MOL   C445 6943   4.292   2.227   1.101  0.2254  0.2706  0.0170
   10MOL   C446 6944   4.282   2.321   1.231  0.0778  0.2014  0.3121
   10MOL   C447 6945   4.368   2.094   1.122 -1.5393  0.2408 -0.2761
   10MOL   H448 6946   4.343   2.416   0.067 -1.0766  1.0453 -0.3296
   10MOL   H449 6947   4.343   2.237   0.089  0.7459  0.5663 -0.0362
   10MOL   H450 6948   4.422   2.331   0.216 -3.3478 -1.3326  2.2644
   10MOL   H451 6949   4.134   2.345   0.159 -1.7004  0.8838  1.8961
   10MOL   H452 6950   4.229   2.416   0.295 -0.5530 -0.2499  0.4171
   10MOL   H453 6951   4.282   2.195   0.379 -1.1314 -2.7354 -0.9871
   10MOL   H454 6952   4.192   2.123   0.262  1.7888  0.0469  0.1375
   10MOL   H455 6953   3.984   2.231   0.326 -1.3352  0.4907  1.6648
   10MOL   H456 6954   4.057   2.308   0.463  1.3836 -0.4792  2.3034
   10MOL   H457 6955   3.923   2.062   0.487  0.3773 -1.0079  0.7823
   10MOL   H458 6956   4.071   2.002   0.417  0.9100 -0.3541  0.9558
   10MOL   H459 6957   4.200   2.079   0.605  0.0314  2.4492 -0.4858
   10MOL   H460 6958   4.058   1.968   0.641 -2.2648  0.9905  1.1727
   10MOL   H461 6959   4.084   2.260   0.708 -0.9195  0.3001 -0.2363
   10MOL   H462 6960   3.928   2.176   0.685  0.5344 -2.0472 -1.1212
   10MOL   H463 6961   4.000   2.013   0.876  2.1312 -0.6709  1.8481
   10MOL   H464 6962   3.949   2.192   0.902 -0.1504  0.3055 -1.1487
   10MOL   H465 6963   4.226   2.415   1.230  2.0620  1.4015 -0.4843
   10MOL   H466 6964   4.250   2.269   1.322 -0.8272  1.7199  0.8789
   10MOL   H467 6965   4.382   2.357   1.253  0.1578 -0.1812  0.5854
   10MOL   H468 6966   4.341   2.029   1.039 -2.1086 -0.9244  0.7939
   10MOL   H469 6967   4.476   2.100   1.107 -1.2006 -0.3049  1.6944
   10MOL   C470 6968   5.152   2.036   1.382 -0.3655 -0.0218  0.1759
   10MOL   C471 6969   5.089   2.091   1.512 -0.2803  0.6188 -0.3828
   10MOL   C472 6970   4.958   2.024   1.556  0.2731 -0.1697  0.0841
   10MOL   C473 6971   4.899   2.104   1.668 -0.4520 -0.2399 -0.1478
   10MOL   C474 6972   4.759   2.058   1.730 -0.4031 -0.0577 -0.0823
   10MOL   C475 6973   4.642   2.072   1.637 -0.0539 -0.0679 -0.0504
   10MOL   C476 6974   4.506   2.054   1.708 -0.2848  0.3560 -0.0414
   10MOL   C477 6975   4.395   2.108   1.611 -0.4452  0.7550 -0.0619
   10MOL   O478 6976   4.357   2.027   1.497 -0.2882 -0.3959  0.2330
   10MOL   C479 6977   4.410   2.072   1.379  0.1238 -0.0948  0.2721
   10MOL   O480 6978   4.488   2.163   1.360  0.4265  0.3661  0.6978
   10MOL   C481 6979   4.354   1.997   1.249 -0.1144 -0.8402 -0.8206
   10MOL   C482 6980   4.201   1.991   1.271  0.3894  0.2763 -0.6585
   10MOL   C483 6981   4.410   1.853   1.217 -0.3909 -0.2896 -0.5248
   10MOL   H484 6982   5.225   1.960   1.408  0.1663  0.9812  1.7116
   10MOL   H485 6983   5.208   2.119   1.340  1.0936 -0.5213  1.0941
   10MOL   H486 6984   5.078   1.999   1.312 -1.7406  1.3321  0.8804
   10MOL   H487 6985   5.175   2.086   1.580 -0.2643 -0.4251 -0.4710
   10MOL   H488 6986   5.073   2.199   1.505  1.3531  1.0481  1.8931
   10MOL   H489 6987   4.889   2.006   1.475  1.3010 -4.8369  0.1128
   10MOL   H490 6988   4.973   1.920   1.584  0.0597 -0.6007 -1.4040
   10MOL   H491 6989   4.972   2.119   1.748 -0.4050  0.0092 -0.2354
   10MOL   H492 6990   4.899   2.205   1.627 -0.1780 -0.6734 -1.2519
   10MOL   H493 6991   4.767   1.959   1.773 -0.0263  0.0641  0.1279
   10MOL   H494 6992   4.743   2.122   1.818  1.4886 -0.8476  0.8583
   10MOL   H495 6993   4.656   2.168   1.586  1.4822  0.0600  0.5515
   10MOL   H496 6994   4.652   1.996   1.561 -0.9194  0.1349 -0.3617
   10MOL   H497 6995   4.484   1.953   1.744 -1.4578 -0.1845 -2.1214
   10MOL   H498 6996   4.512   2.104   1.804 -0.7007 -1.1232  0.7847
   10MOL   H499 6997   4.404   2.214   1.588  4.4353  0.7121  1.0252
   10MOL   H500 6998   4.304   2.112   1.670  1.1574  2.1790  2.4533
   10MOL   H501 6999   4.175   1.931   1.358 -0.1154  1.2177 -0.1574
   10MOL   H502 7000   4.140   1.956   1.187  0.0469 -1.4686  0.2891
   10MOL   H503 7001   4.166   2.087   1.309 -0.6890 -0.6451  0.6981
   10MOL   H504 7002   4.381   1.798   1.306 -0.6869 -2.1950 -1.7761
   10MOL   H505 7003   4.348   1.807   1.140  0.2917  0.9225 -1.8244
   10MOL   C506 7004   4.680   2.509   1.634 -0.2759  0.1369 -0.0573
   10MOL   C507 7005   4.687   2.506   1.479 -0.4287 -0.7843  0.1926
   10MOL   C508 7006   4.807   2.429   1.417 -0.1033 -0.0237 -0.2355
   10MOL   C509 7007   4.833   2.463   1.268  0.7420 -0.1569  0.1528
   10MOL   C510 7008   4.913   2.355   1.194 -0.1603  1.1549  0.1365
   10MOL   C511 7009   4.822   2.241   1.136 -0.4383  0.6548 -0.1289
   10MOL   C512 7010   4.890   2.130   1.065  0.2708 -0.5010  0.3730
   10MOL   C513 7011   4.788   2.046   0.992  0.0005  0.2399  0.2795
   10MOL   O514 7012   4.732   1.947   1.091 -0.1025  0.1648  0.2280
   10MOL   C515 7013   4.618   1.879   1.070  0.3244 -0.3676  0.1224
   10MOL   O516 7014   4.562   1.873   0.957  0.0109 -0.1557  0.0873
   10MOL   C517 7015   4.561   1.812   1.194 -0.4615  0.0887 -0.2168
   10MOL   C518 7016   4.631   1.848   1.324  0.3615  1.3463 -1.0623
   10MOL   C519 7017   4.553   1.660   1.170  0.1824  0.0913  0.6408
   10MOL   H520 7018   4.691   2.404   1.661 -0.2614  0.6825  2.1314
   10MOL   H521 7019   4.590   2.541   1.687 -1.4985 -1.3136 -1.1828
   10MOL   H522 7020   4.765   2.562   1.675 -0.1212 -0.7569  0.7876
   10MOL   H523 7021   4.686   2.608   1.441  1.6303 -0.3627  1.1935
   10MOL   H524 7022   4.604   2.447   1.440  2.4118 -2.4011 -3.7563
   10MOL   H525 7023   4.900   2.464   1.463 -0.1396  1.3181 -1.1767
   10MOL   H526 7024   4.805   2.324   1.445  1.0116  0.3171  1.1749
   10MOL   H527 7025   4.745   2.495   1.211  0.5608  1.8676  1.4989
   10MOL   H528 7026   4.885   2.558   1.258  0.4792 -0.0729 -0.4098
   10MOL   H529 7027   4.970   2.399   1.113  0.0315  2.5933  1.0339
   10MOL   H530 7028   4.975   2.306   1.269 -1.6898 -0.2213  0.5489
   10MOL   H531 7029   4.757   2.297   1.069  1.6925  1.8572 -1.2579
   10MOL   H532 7030   4.757   2.208   1.217 -0.9751  0.7542 -0.5212
   10MOL   H533 7031   4.937   2.062   1.136 -1.6000 -0.5829  1.5570
   10MOL   H534 7032   4.950   2.180   0.988  0.5696  0.0267  0.9328
   10MOL   H535 7033   4.829   1.996   0.905  0.0511 -0.8859  0.9368
   10MOL   H536 7034   4.708   2.111   0.955  0.0580  0.8685  1.2462
   10MOL   H537 7035   4.566   1.808   1.402  0.1820  0.2700 -1.7508
   10MOL   H538 7036   4.630   1.957   1.324 -0.7819  1.3475 -1.7559
   10MOL   H539 7037   4.732   1.818   1.352 -1.0998 -2.6215  0.2799
   10MOL   H540 7038   4.480   1.613   1.237 -1.1250 -2.2924 -2.2926
   10MOL   H541 7039   4.518   1.650   1.067  3.5377  0.1324 -0.5582
   10MOL   C542 7040   4.080   1.633   1.797 -0.2136 -0.4003 -0.5298
   10MOL   C543 7041   4.165   1.608   1.675  0.9553 -0.2717  0.4058
   10MOL   C544 7042   4.158   1.459   1.634  0.1524  0.8341  0.1359
   10MOL   C545 7043   4.283   1.425   1.547  0.2057  0.0840 -0.1958
   10MOL   C546 7044   4.403   1.399   1.636 -0.5715 -0.2877  0.0169
   10MOL   C547 7045   4.514   1.326   1.570 -0.0455 -0.0752 -0.2750
   10MOL   C548 7046   4.660   1.387   1.593  0.4662 -0.1300 -0.6646
   10MOL   C549 7047   4.663   1.528   1.545 -0.0550 -0.1986  0.5404
   10MOL   O550 7048   4.636   1.535   1.410 -1.1376 -0.7512  0.3887
   10MOL   C551 7049   4.729   1.562   1.325  0.3943  0.2470  0.4949
   10MOL   O552 7050   4.842   1.590   1.361 -0.5888 -0.4117  0.1455
   10MOL   C553 7051   4.684   1.574   1.178 -0.8124  0.7551  0.2867
   10MOL   C554 7052   4.793   1.628   1.085 -0.2888 -0.0312 -0.8125
   10MOL   C555 7053   4.631   1.432   1.130 -0.1895  0.2329 -0.1924
   10MOL   H556 7054   4.092   1.738   1.825 -0.6055 -0.6582  0.6043
   10MOL   H557 7055   4.089   1.575   1.888 -2.7881 -0.0728 -0.0417
   10MOL   H558 7056   3.979   1.621   1.758 -0.6750 -0.4935  0.6718
   10MOL   H559 7057   4.120   1.665   1.594  0.7303 -0.7896  0.1694
   10MOL   H560 7058   4.265   1.643   1.702  0.6022  2.0679 -1.1206
   10MOL   H561 7059   4.075   1.440   1.567 -0.5851 -1.2974  1.6144
   10MOL   H562 7060   4.162   1.391   1.719  0.0782  0.5119 -0.1159
   10MOL   H563 7061   4.255   1.339   1.485  1.7633 -0.0091 -0.7902
   10MOL   H564 7062   4.309   1.493   1.466 -2.7052  0.2162 -1.0886
   10MOL   H565 7063   4.374   1.352   1.730  0.3829  2.2631  1.6361
   10MOL   H566 7064   4.432   1.495   1.680  0.9868 -1.0544  0.6863
   10MOL   H567 7065   4.516   1.221   1.599 -1.9973  0.0936  0.5510
   10MOL   H568 7066   4.495   1.328   1.462  0.0357 -2.7648 -0.3821
   10MOL   H569 7067   4.679   1.386   1.700  1.3265 -1.6805 -0.8158
   10MOL   H570 7068   4.723   1.322   1.532 -1.0792 -0.8553 -1.5305
   10MOL   H571 7069   4.761   1.565   1.574 -0.2192  0.4618  0.2784
   10MOL   H572 7070   4.592   1.591   1.600  0.7483  1.9370 -0.8075
   10MOL   H573 7071   4.763   1.634   0.980  1.6139  2.3847 -1.2537
   10MOL   H574 7072   4.880   1.561   1.079 -1.2990 -1.3818 -0.5823
   10MOL   H575 7073   4.832   1.726   1.113  1.5082 -0.9024 -0.1179
   10MOL   H576 7074   4.560   1.444   1.049  1.7377 -0.6017 -2.0307
   10MOL   H577 7075   4.567   1.410   1.216  2.0215  0.4253  1.5706
   10MOL   C578 7076   5.657   1.491   0.465  0.0394  0.2448 -0.2523
   10MOL   C579 7077   5.523   1.536   0.489  0.2598 -0.6662  0.1248
   10MOL   C580 7078   5.460   1.489   0.620  0.3062  0.2372  0.8620
   10MOL   C581 7079   5.414   1.346   0.621 -0.2883 -0.6267  0.1877
   10MOL   C582 7080   5.317   1.313   0.731 -0.2048  0.0068  0.0321
   10MOL   C583 7081   5.180   1.381   0.730 -0.0686  0.4268  0.5298
   10MOL   C584 7082   5.072   1.320   0.822 -0.0998 -0.6401  0.1707
   10MOL   C585 7083   4.948   1.408   0.826 -0.1788  0.0283 -0.1935
   10MOL   O586 7084   4.896   1.374   0.948 -0.1868 -0.2842  0.2423
   10MOL   C587 7085   4.782   1.307   0.961  0.3759 -0.2908  0.5537
   10MOL   O588 7086   4.716   1.268   0.860  0.0869 -0.0961 -0.0408
   10MOL   C589 7087   4.726   1.303   1.112  0.0643  0.0271  0.4472
   10MOL   C590 7088   4.619   1.194   1.125  0.1592  0.4761  0.0046
   10MOL   C591 7089   4.855   1.282   1.206  0.1626 -0.2937 -0.1729
   10MOL   H592 7090   5.710   1.552   0.392  0.4273  1.1341  0.7599
   10MOL   H593 7091   5.660   1.385   0.439  0.2687 -0.5071  2.7011
   10MOL   H594 7092   5.719   1.501   0.554  2.5463 -1.9110 -1.6653
   10MOL   H595 7093   5.454   1.509   0.409  0.7901 -0.8146 -0.2876
   10MOL   H596 7094   5.534   1.644   0.501 -1.3273 -0.3671 -0.9704
   10MOL   H597 7095   5.365   1.540   0.638 -0.5695 -0.7074 -0.9199
   10MOL   H598 7096   5.523   1.514   0.705  0.4961  0.9692  0.5138
   10MOL   H599 7097   5.504   1.286   0.613 -0.7200 -1.5060  1.7834
   10MOL   H600 7098   5.365   1.316   0.528  0.6268  0.3997 -0.6363
   10MOL   H601 7099   5.371   1.333   0.823  2.7624  2.2461 -2.0880
   10MOL   H602 7100   5.296   1.206   0.722  0.1700 -0.1721  1.2707
   10MOL   H603 7101   5.139   1.381   0.630 -3.1586 -0.3105  1.7550
   10MOL   H604 7102   5.199   1.485   0.756  0.1284  0.9713 -1.6780
   10MOL   H605 7103   5.114   1.306   0.921  2.6246 -0.9968 -0.9915
   10MOL   H606 7104   5.044   1.220   0.789  0.9471 -1.2123  0.9914
   10MOL   H607 7105   4.967   1.515   0.823 -1.0163  0.1552 -1.3076
   10MOL   H608 7106   4.896   1.375   0.735 -1.9862  0.4327  0.6599
   10MOL   H609 7107   4.539   1.201   1.052 -1.2771 -2.0591  1.2842
   10MOL   H610 7108   4.667   1.100   1.099 -1.8442 -0.9438  1.3284
   10MOL   H611 7109   4.578   1.182   1.225 -0.5151 -1.3570 -0.4757
   10MOL   H612 7110   4.823   1.300   1.309  0.4007  0.9979 -0.3181
   10MOL   H613 7111   4.920   1.366   1.182  0.0155 -0.2779 -0.5190
   10MOL   C614 7112   5.459   1.979   1.637  0.2737  0.0438 -0.1643
   10MOL   C615 7113   5.426   1.829   1.616  0.2486 -0.0779 -0.1139
   10MOL   C616 7114   5.282   1.791   1.664  0.4694 -0.2216  0.7467
   10MOL   C617 7115   5.235   1.651   1.619  0.7655  0.0149 -1.2714
   10MOL   C618 7116   5.338   1.538   1.644  0.6205  0.6192 -0.2905
   10MOL   C619 7117   5.288   1.394   1.640  0.5081  1.1447 -0.1449
   10MOL   C620 7118   5.194   1.362   1.526 -0.1331 -0.4150  0.3038
   10MOL   C621 7119   5.186   1.215   1.492  0.2825 -0.3391  0.4870
   10MOL   O622 7120   5.071   1.195   1.416 -0.4112 -0.0942  0.2338
   10MOL   C623 7121   5.080   1.188   1.279  0.3437  0.7559 -0.6725
   10MOL   O624 7122   5.174   1.216   1.207 -0.5946  0.6263 -0.5840
   10MOL   C625 7123   4.940   1.150   1.216 -0.5176 -0.2263  0.0390
   10MOL   C626 7124   4.867   1.055   1.316 -0.1515 -0.6134  0.0299
   10MOL   C627 7125   4.949   1.067   1.081 -0.0166 -0.0035 -0.5010
   10MOL   H628 7126   5.416   2.032   1.552 -0.6309 -1.0210 -0.3941
   10MOL   H629 7127   5.560   2.018   1.634 -0.0540  0.8479 -1.0362
   10MOL   H630 7128   5.426   2.020   1.732  1.2801 -1.7790  1.0062
   10MOL   H631 7129   5.445   1.802   1.513  0.4138  0.9644 -0.3633
   10MOL   H632 7130   5.494   1.760   1.668 -1.8566 -1.8305  0.3877
   10MOL   H633 7131   5.205   1.856   1.622  0.0075 -1.3229 -0.1515
   10MOL   H634 7132   5.280   1.812   1.771 -0.2187 -1.4816  0.9882
   10MOL   H635 7133   5.201   1.647   1.515 -0.5692  0.5381 -0.8586
   10MOL   H636 7134   5.146   1.637   1.679  1.5974  2.0638  0.5021
   10MOL   H637 7135   5.417   1.545   1.569 -0.5363  1.4450 -1.4525
   10MOL   H638 7136   5.387   1.546   1.741 -0.7871 -0.7813  0.5618
   10MOL   H639 7137   5.374   1.326   1.640 -0.9637 -0.8385  2.6747
   10MOL   H640 7138   5.236   1.379   1.734  0.9923  1.2683  0.1450
   10MOL   H641 7139   5.222   1.417   1.436 -0.2596 -0.8107  0.0208
   10MOL   H642 7140   5.098   1.401   1.560  0.6182  0.7445  1.1301
   10MOL   H643 7141   5.267   1.181   1.426 -1.2592  1.5895 -2.5187
   10MOL   H644 7142   5.194   1.162   1.587  1.7154  2.0351  1.7590
   10MOL   H645 7143   4.923   0.967   1.345 -0.3143 -0.4679  0.8002
   10MOL   H646 7144   4.773   1.021   1.272  0.1255  1.8330 -2.5638
   10MOL   H647 7145   4.853   1.100   1.414  0.4181  0.2626 -0.2905
   10MOL   H648 7146   5.022   1.122   1.021 -1.1454  2.7403  0.5440
   10MOL   H649 7147   4.853   1.074   1.028 -0.2499 -1.4831 -0.2969
   10MOL   C650 7148   6.132   0.702   1.051  0.7461 -0.0099  0.0343
   10MOL   C651 7149   6.102   0.823   0.965  0.5045 -0.2062  0.4046
   10MOL   C652 7150   5.960   0.819   0.895  0.0063 -0.4507 -0.0841
   10MOL   C653 7151   5.842   0.824   0.996  0.2389  0.2914 -0.4990
   10MOL   C654 7152   5.710   0.871   0.925 -0.2924 -0.1557 -0.3683
   10MOL   C655 7153   5.598   0.872   1.029 -0.1339  0.8101 -0.3017
   10MOL   C656 7154   5.459   0.904   0.971  0.3000 -0.4268 -0.1035
   10MOL   C657 7155   5.352   0.855   1.074 -0.4216  0.1021 -0.3331
   10MOL   O658 7156   5.229   0.918   1.064 -0.2796 -0.1079 -0.3377
   10MOL   C659 7157   5.117   0.874   1.128  0.2719 -1.0714  0.0960
   10MOL   O660 7158   5.113   0.817   1.239 -0.0333 -0.0177 -0.2034
   10MOL   C661 7159   4.987   0.914   1.051 -0.6223  0.3966 -0.7526
   10MOL   C662 7160   5.004   0.900   0.894  0.2659 -0.2226 -0.0978
   10MOL   C663 7161   4.857   0.821   1.094 -0.0227  0.3009  0.5944
   10MOL   H664 7162   6.062   0.703   1.134  1.1817 -1.4794  0.4355
   10MOL   H665 7163   6.231   0.707   1.095  0.2501  0.6342  1.0813
   10MOL   H666 7164   6.141   0.609   0.994  2.0522  1.9935 -3.1633
   10MOL   H667 7165   6.185   0.822   0.895 -1.2822 -2.8247 -1.7702
   10MOL   H668 7166   6.109   0.917   1.021  0.7196 -0.1680  0.3114
   10MOL   H669 7167   5.954   0.730   0.832  1.0697 -0.0453 -0.7628
   10MOL   H670 7168   5.942   0.886   0.811  0.6875 -1.7141 -1.2502
   10MOL   H671 7169   5.866   0.900   1.070 -1.1056  0.3333 -0.0962
   10MOL   H672 7170   5.836   0.732   1.054  3.1384 -1.0750 -2.2539
   10MOL   H673 7171   5.679   0.807   0.842  1.6781 -1.5693 -0.0469
   10MOL   H674 7172   5.731   0.961   0.868 -0.0198  0.0821  0.1058
   10MOL   H675 7173   5.591   0.769   1.063  2.2979  0.3120 -1.2343
   10MOL   H676 7174   5.619   0.940   1.112 -0.7828  0.2769  0.3066
   10MOL   H677 7175   5.450   0.858   0.872 -0.0529  1.9741 -1.2176
   10MOL   H678 7176   5.464   1.011   0.952  1.3848 -0.7085 -1.4900
   10MOL   H679 7177   5.395   0.883   1.171 -0.1291 -1.4978  0.0300
   10MOL   H680 7178   5.345   0.747   1.058 -0.2603  0.2691 -1.5650
   10MOL   H681 7179   5.080   0.967   0.854  2.4437 -2.2730  0.4424
   10MOL   H682 7180   4.907   0.922   0.851  0.2500 -0.9434 -0.4335
   10MOL   H683 7181   5.030   0.799   0.863 -1.9936 -0.7970 -0.2121
   10MOL   H684 7182   4.848   0.811   1.202 -2.8224 -1.6886  0.2077
   10MOL   H685 7183   4.772   0.878   1.057  0.1545 -0.8078 -1.5851
   10MOL   C686 7184   4.054   0.424   1.149  0.2835 -0.5396  0.1622
   10MOL   C687 7185   4.074   0.385   1.000 -0.1689  0.1256 -0.7508
   10MOL   C688 7186   4.175   0.486   0.942 -0.2145 -0.3687 -0.2399
   10MOL   C689 7187   4.189   0.501   0.794 -0.2292 -0.4419  0.1523
   10MOL   C690 7188   4.266   0.635   0.753  0.4260  0.4126 -0.3629
   10MOL   C691 7189   4.419   0.628   0.753  0.1821 -0.3504  0.2283
   10MOL   C692 7190   4.490   0.758   0.730 -0.0595 -0.0175 -0.2638
   10MOL   C693 7191   4.648   0.735   0.716  0.3405  0.2574  0.6295
   10MOL   O694 7192   4.697   0.731   0.852  0.0908  0.6219  0.5561
   10MOL   C695 7193   4.812   0.668   0.887  0.6356 -0.1856  0.1210
   10MOL   O696 7194   4.891   0.614   0.800 -0.2050  0.0692  0.0188
   10MOL   C697 7195   4.838   0.671   1.039  0.0739  0.1145 -0.4729
   10MOL   C698 7196   4.716   0.598   1.108  1.1826  0.3515 -0.5054
   10MOL   C699 7197   4.967   0.589   1.066 -0.1269  0.0314 -0.6444
   10MOL   H700 7198   3.982   0.361   1.201  0.8297 -0.0076  1.6012
   10MOL   H701 7199   4.027   0.528   1.167  0.5345 -0.3988 -0.2794
   10MOL   H702 7200   4.148   0.405   1.202  0.0436 -1.0546  0.4058
   10MOL   H703 7201   3.979   0.387   0.946 -0.1842 -0.4536 -0.7521
   10MOL   H704 7202   4.114   0.284   0.988  2.2873  0.5769  2.8474
   10MOL   H705 7203   4.276   0.475   0.982 -0.6768 -0.4351  0.9453
   10MOL   H706 7204   4.152   0.588   0.974  0.9330  0.5163 -2.1570
   10MOL   H707 7205   4.088   0.505   0.755 -1.2359 -5.3871  1.8253
   10MOL   H708 7206   4.235   0.412   0.751  0.3976  0.0170 -0.1397
   10MOL   H709 7207   4.255   0.713   0.829  1.6759  2.0669 -1.8439
   10MOL   H710 7208   4.226   0.667   0.657  1.0965 -0.6228 -1.0036
   10MOL   H711 7209   4.447   0.601   0.854  3.0653 -0.1732 -0.4847
   10MOL   H712 7210   4.447   0.549   0.682  0.8400 -1.8147  2.0920
   10MOL   H713 7211   4.438   0.800   0.645 -0.0146 -1.7394 -1.1635
   10MOL   H714 7212   4.459   0.829   0.807 -1.9205 -0.8727 -0.1929
   10MOL   H715 7213   4.692   0.820   0.664 -1.4210  0.9054  0.1446
   10MOL   H716 7214   4.673   0.642   0.664 -1.4962 -0.0272  0.2136
   10MOL   H717 7215   4.645   0.679   1.123  0.1074 -0.6171 -0.3098
   10MOL   H718 7216   4.654   0.531   1.048  0.7166 -0.7055  1.1345
   10MOL   H719 7217   4.736   0.540   1.198  2.3696  0.4815 -0.6830
   10MOL   H720 7218   4.985   0.593   1.173  0.3996 -0.5563 -0.7100
   10MOL   H721 7219   5.056   0.630   1.019 -0.2244  0.8575 -0.1263
   10MOL   H722 7220   4.952   0.488   1.031 -0.8673 -0.2621  0.4817
   11MOL     C1 7221   7.198   2.377   2.265  0.2995 -0.6891  0.5849
   11MOL     C2 7222   7.317   2.469   2.289 -0.5813 -0.0552  0.2614
   11MOL     C3 7223   7.381   2.438   2.425  0.7570 -0.2192 -0.4754
   11MOL     C4 7224   7.467   2.560   2.474 -0.2728  0.3778  1.1514
   11MOL     C5 7225   7.604   2.574   2.397 -0.1960 -0.2424  0.0747
   11MOL     C6 7226   7.694   2.673   2.465  0.3537  0.2595 -0.2922
   11MOL     C7 7227   0.052   2.670   2.398 -0.7814 -0.2962 -0.1422
   11MOL     C8 7228   0.142   2.791   2.437 -0.2175  0.4247  0.6419
   11MOL     O9 7229   0.172   2.788   2.578 -0.2536 -0.2930 -0.0449
   11MOL    C10 7230   0.294   2.739   2.622 -0.3936  0.0092 -0.2933
   11MOL    O11 7231   0.396   2.704   2.560 -0.3653  0.1987  0.3407
   11MOL    C12 7232   0.304   2.728   2.776 -0.3851  0.3406 -0.0515
   11MOL    C13 7233   0.451   2.726   2.832 -0.1531  0.8184  0.6756
   11MOL    C14 7234   0.223   2.835   2.848  0.2200 -0.0832  0.6304
   11MOL    H15 7235   7.225   2.275   2.295  0.4330 -0.9089 -0.2652
   11MOL    H16 7236   7.178   2.391   2.159 -1.7765 -1.8588  0.7946
   11MOL    H17 7237   7.123   2.413   2.336  0.0723 -1.2824  0.6523
   11MOL    H18 7238   7.278   2.571   2.278 -0.2218 -0.2829 -3.8271
   11MOL    H19 7239   7.395   2.455   2.214 -0.6674 -1.3531  0.4046
   11MOL    H20 7240   7.309   2.429   2.507 -1.4199  2.2287 -2.0513
   11MOL    H21 7241   7.445   2.349   2.423  1.5864  0.3864 -1.5374
   11MOL    H22 7242   7.415   2.656   2.467  0.2338  0.8071  2.9978
   11MOL    H23 7243   7.484   2.557   2.581  0.7120  2.0773  1.0629
   11MOL    H24 7244   7.580   2.621   2.301 -1.5811 -0.2563  0.3939
   11MOL    H25 7245   7.652   2.477   2.386  0.2597  0.0494 -0.4982
   11MOL    H26 7246   7.691   2.658   2.573  1.0871 -0.7603 -0.4037
   11MOL    H27 7247   7.662   2.777   2.453  1.8173  0.7243 -0.2779
   11MOL    H28 7248   0.044   2.665   2.290  0.4101  0.2746 -0.2625
   11MOL    H29 7249   0.109   2.582   2.428  0.0556  0.9738  2.1471
   11MOL    H30 7250   0.103   2.888   2.406  1.2936  0.0732 -2.6097
   11MOL    H31 7251   0.229   2.779   2.371 -0.4215  3.0738 -0.1546
   11MOL    H32 7252   0.510   2.813   2.803 -2.3566  1.3691 -2.3757
   11MOL    H33 7253   0.470   2.707   2.938  0.0176  1.6512  0.7988
   11MOL    H34 7254   0.497   2.640   2.783 -1.3801 -0.4845  1.7419
   11MOL    H35 7255   0.182   2.912   2.783 -1.0968 -2.4054 -1.3546
   11MOL    H36 7256   0.288   2.901   2.906 -0.7724 -0.2306  1.9206
   11MOL    H37 7257   0.259   2.630   2.791  2.6349 -0.8394  1.8744
   11MOL    C38 7258   1.011   2.201   2.938 -0.2379  0.1026 -0.0711
   11MOL    C39 7259   0.865   2.201   2.995  0.8142  0.0437  0.4317
   11MOL    C40 7260   0.830   2.335   3.059  0.3552  0.4604  0.0482
   11MOL    C41 7261   0.677   2.355   3.063 -0.5446 -0.3221  0.5450
   11MOL    C42 7262   0.633   2.475   3.145  0.2866 -0.5205 -0.0285
   11MOL    C43 7263   0.481   2.509   3.140 -0.1624  0.2898  0.5508
   11MOL    C44 7264   0.435   2.638   3.213 -0.3995 -0.1685  0.2511
   11MOL    C45 7265   0.285   2.672   3.221  0.4042  0.9829  0.1141
   11MOL    O46 7266   0.227   2.746   3.119  0.0121 -0.2420  0.2721
   11MOL    C47 7267   0.154   2.691   3.029  0.0147  0.6339  0.5911
   11MOL    O48 7268   0.128   2.573   3.026  0.5862  0.2262  0.3694
   11MOL    C49 7269   0.103   2.788   2.925  0.3987 -0.0930 -0.6997
   11MOL    C50 7270   0.002   2.709   2.831  0.0423  0.3837  0.5720
   11MOL    C51 7271   0.034   2.919   2.993  0.0565 -0.0446 -0.2307
   11MOL    H52 7272   1.087   2.223   3.014 -1.1026 -3.3379  1.9017
   11MOL    H53 7273   1.018   2.267   2.852 -0.7701 -0.0515 -0.2315
   11MOL    H54 7274   1.031   2.098   2.907  0.7369  0.4333 -0.5843
   11MOL    H55 7275   0.837   2.113   3.054  1.0678 -0.4924 -0.2311
   11MOL    H56 7276   0.801   2.184   2.908  1.3649 -2.5692  0.4955
   11MOL    H57 7277   0.859   2.317   3.163  0.0368 -2.3161 -0.3124
   11MOL    H58 7278   0.884   2.425   3.030 -0.9564  1.1840 -0.2138
   11MOL    H59 7279   0.640   2.267   3.117  2.0081 -0.9172  1.4098
   11MOL    H60 7280   0.639   2.358   2.961  0.5080  2.0308  0.1853
   11MOL    H61 7281   0.670   2.480   3.247  1.7660 -2.7033 -0.4057
   11MOL    H62 7282   0.690   2.557   3.100  2.1883 -0.7398  1.8841
   11MOL    H63 7283   0.447   2.502   3.037 -0.2465  0.5431  0.5618
   11MOL    H64 7284   0.435   2.421   3.186  0.7411 -1.1314 -1.1768
   11MOL    H65 7285   0.494   2.723   3.180  0.0034  0.0009  1.4039
   11MOL    H66 7286   0.459   2.628   3.319  1.3976  0.7510 -0.0549
   11MOL    H67 7287   0.252   2.720   3.313 -1.1949  1.2206 -0.5475
   11MOL    H68 7288   0.241   2.574   3.239  0.5195  1.2624  2.0017
   11MOL    H69 7289   0.046   2.632   2.768  0.2074  1.6013 -0.8344
   11MOL    H70 7290   7.698   2.660   2.882  0.6289 -2.9557 -1.5170
   11MOL    H71 7291   7.735   2.780   2.762 -2.0259 -0.5880  0.9191
   11MOL    H72 7292   0.035   3.005   2.925 -2.8292  0.6901  0.5911
   11MOL    H73 7293   0.103   2.955   3.069 -0.3299 -2.1329  1.1198
   11MOL    C74 7294   7.075   2.726   2.132  0.2168 -0.2977  0.4897
   11MOL    C75 7295   7.139   2.861   2.159  0.6061  0.5120  0.1125
   11MOL    C76 7296   7.233   2.848   2.279  0.3376  0.4144  0.2947
   11MOL    C77 7297   7.298   2.976   2.325 -0.2004 -0.9014 -0.7090
   11MOL    C78 7298   7.394   2.961   2.436  0.1488 -0.1232  1.0569
   11MOL    C79 7299   7.447   3.090   2.505 -0.9061  0.3861  0.1362
   11MOL    C80 7300   7.552   3.072   2.621  0.7102  0.2778 -0.2421
   11MOL    C81 7301   7.484   3.010   2.743  0.3264 -0.4064  0.5708
   11MOL    O82 7302   7.577   3.001   2.849 -0.5476  0.6490 -0.8572
   11MOL    C83 7303   7.564   2.905   2.941  0.6727 -0.7380 -0.4247
   11MOL    O84 7304   7.484   2.819   2.937  0.4830  0.2888  0.2870
   11MOL    C85 7305   7.668   2.910   3.054  0.4827  0.1291 -0.0411
   11MOL    C86 7306   7.649   2.783   3.138  0.7296  0.3552  0.1003
   11MOL    C87 7307   7.651   3.044   3.139 -0.1577  0.1024  0.7235
   11MOL    H88 7308   7.155   2.658   2.102  0.0167 -0.1719 -0.3411
   11MOL    H89 7309   7.015   2.727   2.041  0.6094 -0.2422  0.2294
   11MOL    H90 7310   7.013   2.692   2.214  0.2220  0.8339  0.9721
   11MOL    H91 7311   7.063   2.937   2.177  0.7999  0.8682 -0.5640
   11MOL    H92 7312   7.198   2.903   2.077  0.3138  3.6713  1.4802
   11MOL    H93 7313   7.181   2.801   2.363  2.4249  1.0814  1.9953
   11MOL    H94 7314   7.314   2.778   2.261 -0.2481 -0.1096 -0.3501
   11MOL    H95 7315   7.222   3.042   2.367  0.8969 -0.2273  0.2477
   11MOL    H96 7316   7.342   3.024   2.238 -0.9850  2.0182  0.4312
   11MOL    H97 7317   7.350   2.890   2.506 -1.7562 -1.1665 -1.1355
   11MOL    H98 7318   7.483   2.910   2.397  0.3823  0.5870  0.6497
   11MOL    H99 7319   7.483   3.152   2.423  0.9475  1.8327  2.0131
   11MOL   H100 7320   7.362   3.136   2.555 -1.5265 -0.3361 -0.2448
   11MOL   H101 7321   7.628   3.005   2.580 -0.6855 -1.6634  0.3029
   11MOL   H102 7322   7.597   3.170   2.638  3.3980 -0.8332 -0.6765
   11MOL   H103 7323   7.451   2.910   2.712 -0.3493 -0.4166  1.3048
   11MOL   H104 7324   7.395   3.064   2.774 -0.3565 -0.8439 -0.6073
   11MOL   H105 7325   7.658   2.690   3.082  0.8990 -1.1030  2.4905
   11MOL   H106 7326   7.555   2.784   3.194 -0.1583  2.2177 -1.3567
   11MOL   H107 7327   7.732   2.778   3.208  1.0607  1.2450 -0.2166
   11MOL   H108 7328   7.746   3.043   3.192  0.1803 -1.3081  0.1401
   11MOL   H109 7329   7.666   3.120   3.062  0.8351 -2.0844 -1.3249
   11MOL   C110 7330   0.158   3.456   3.576 -0.1625 -0.0883  0.0808
   11MOL   C111 7331   0.220   3.348   3.664  0.3171 -0.0742 -0.3442
   11MOL   C112 7332   0.198   3.208   3.593  0.2313 -0.4989  0.1116
   11MOL   C113 7333   0.265   3.089   3.668  0.3866  0.0176 -0.1441
   11MOL   C114 7334   0.278   2.973   3.574  0.0798 -0.4401  0.2685
   11MOL   C115 7335   0.143   2.910   3.520 -0.1470  0.0777  0.4100
   11MOL   C116 7336   0.030   2.903   3.615  0.2713  0.8200  0.3414
   11MOL   C117 7337   7.679   2.874   3.532 -0.7408  0.1365  0.6136
   11MOL   O118 7338   7.667   2.962   3.423 -0.1665  0.0866  0.5642
   11MOL   C119 7339   7.541   2.987   3.365 -0.1593 -0.7376 -0.0161
   11MOL   O120 7340   7.438   2.935   3.407 -0.0312 -0.0756  0.3344
   11MOL   C121 7341   7.538   3.069   3.241 -0.3654 -0.1291  0.6681
   11MOL   C122 7342   7.405   3.063   3.172  0.2165 -0.3505 -0.2330
   11MOL   C123 7343   7.572   3.216   3.290 -0.1209 -0.0192  0.2388
   11MOL   H124 7344   0.173   3.434   3.470  1.7302  2.1767 -0.1439
   11MOL   H125 7345   0.049   3.459   3.586 -0.4449  0.1088 -2.5552
   11MOL   H126 7346   0.186   3.559   3.596 -3.2272  0.5735  1.1741
   11MOL   H127 7347   0.176   3.344   3.764 -0.7425  0.9011 -0.7679
   11MOL   H128 7348   0.323   3.376   3.686 -0.2636  1.8098  0.1521
   11MOL   H129 7349   0.256   3.217   3.501  1.5830 -2.0664  0.7733
   11MOL   H130 7350   0.094   3.191   3.565  0.2903 -1.7563  0.6481
   11MOL   H131 7351   0.367   3.115   3.694  0.4663  0.0010 -0.4369
   11MOL   H132 7352   0.208   3.074   3.760  1.9301 -0.6279  0.7185
   11MOL   H133 7353   0.340   2.895   3.619  1.0452  0.5113  0.6149
   11MOL   H134 7354   0.340   3.009   3.492 -3.1620  0.3934 -1.8861
   11MOL   H135 7355   0.121   2.980   3.440 -0.5975 -0.6357 -0.0902
   11MOL   H136 7356   0.174   2.817   3.473  1.8011  0.5530  0.6961
   11MOL   H137 7357   7.773   2.994   3.662  0.1267 -0.1363  2.1104
   11MOL   H138 7358   0.041   2.827   3.692  1.8003  1.8228  1.1508
   11MOL   H139 7359   7.683   2.776   3.485  2.0034  0.9724 -1.0106
   11MOL   H140 7360   7.596   2.874   3.603 -0.7538 -0.5876  0.6000
   11MOL   H141 7361   7.386   3.140   3.097  1.0330  0.3698  0.2973
   11MOL   H142 7362   7.390   2.970   3.117  1.6302 -0.0216 -1.2277
   11MOL   H143 7363   7.315   3.067   3.234  0.0834 -1.4290 -0.3492
   11MOL   H144 7364   7.595   3.270   3.199 -4.7048 -0.6913 -1.4954
   11MOL   H145 7365   7.671   3.209   3.334 -0.4332 -1.5361  0.7435
   11MOL   C146 7366   6.944   4.274   3.468  0.3365  0.2313 -0.3786
   11MOL   C147 7367   7.014   4.148   3.408 -0.5486  0.2278 -0.4158
   11MOL   C148 7368   7.132   4.185   3.319 -0.2343  0.1609 -0.6493
   11MOL   C149 7369   7.198   4.075   3.235 -0.0641  0.9881 -0.4274
   11MOL   C150 7370   7.248   3.956   3.315  0.1716 -0.5951  0.3840
   11MOL   C151 7371   7.302   3.840   3.230 -0.7207 -0.4889  0.2872
   11MOL   C152 7372   7.362   3.720   3.309  0.0873  0.2572  0.0838
   11MOL   C153 7373   7.437   3.624   3.218  0.0010  0.6678  0.0320
   11MOL   O154 7374   7.431   3.492   3.265  0.0314  0.5032  0.1572
   11MOL   C155 7375   7.520   3.445   3.352  0.4910 -0.0629  0.2369
   11MOL   O156 7376   7.614   3.504   3.397 -0.1712  0.1451 -0.2093
   11MOL   C157 7377   7.491   3.304   3.395  0.6508 -0.1037  0.4000
   11MOL   C158 7378   7.340   3.278   3.382  0.1134 -0.3586 -0.1747
   11MOL   C159 7379   7.542   3.274   3.540  0.1520 -0.5545 -0.3232
   11MOL   H160 7380   6.912   4.348   3.395 -0.1853 -0.1573 -0.5421
   11MOL   H161 7381   7.014   4.338   3.521 -1.2910  2.2047 -0.5766
   11MOL   H162 7382   6.856   4.263   3.531  0.0009  1.4128 -0.6451
   11MOL   H163 7383   7.054   4.088   3.490 -1.8050  2.5840  2.0044
   11MOL   H164 7384   6.939   4.087   3.358 -1.6696  0.7402  0.6085
   11MOL   H165 7385   7.210   4.235   3.377 -0.8927  1.4733 -0.8578
   11MOL   H166 7386   7.096   4.270   3.260 -1.7765  0.1718  0.2783
   11MOL   H167 7387   7.126   4.045   3.159 -1.2189 -0.9056  1.3589
   11MOL   H168 7388   7.279   4.129   3.185 -1.4163  4.1247  0.6672
   11MOL   H169 7389   7.162   3.928   3.376  0.3682  1.7645  1.8253
   11MOL   H170 7390   7.326   3.971   3.390  0.8614 -1.7579 -0.0850
   11MOL   H171 7391   7.370   3.882   3.156  0.2373 -2.5018  0.0064
   11MOL   H172 7392   7.226   3.786   3.173  0.4225  1.0028 -2.8070
   11MOL   H173 7393   7.422   3.766   3.387 -0.6283  2.3600 -0.5600
   11MOL   H174 7394   7.283   3.666   3.360  0.8507 -0.6087  0.3489
   11MOL   H175 7395   7.392   3.626   3.119  0.2150  0.5250 -0.0692
   11MOL   H176 7396   7.541   3.651   3.198  0.3407  0.8442  1.9699
   11MOL   H177 7397   7.279   3.344   3.443  0.4026 -1.7057  1.6162
   11MOL   H178 7398   7.303   3.181   3.416  0.3023 -0.8717 -1.3926
   11MOL   H179 7399   7.317   3.285   3.275  1.9632 -1.5317 -0.6745
   11MOL   H180 7400   7.646   3.305   3.543 -0.5954  2.1693 -1.4434
   11MOL   H181 7401   7.545   3.166   3.555 -0.7079 -0.7314 -1.3309
   11MOL   C182 7402   0.086   2.610   3.905  0.4916 -0.1342  0.3040
   11MOL   C183 7403   7.720   2.653   3.945 -0.4560 -0.0150 -0.2750
   11MOL   C184 7404   7.625   2.655   3.826 -0.0582 -0.0332  0.3482
   11MOL   C185 7405   7.479   2.637   3.857  0.2194 -0.6216  0.0247
   11MOL   C186 7406   7.386   2.710   3.760 -0.1069 -0.0258  0.4403
   11MOL   C187 7407   7.351   2.860   3.788  0.5764  0.2820  0.7639
   11MOL   C188 7408   7.234   2.912   3.700 -0.6579 -0.3248 -0.0802
   11MOL   C189 7409   7.219   3.062   3.730  0.7059 -0.1493  0.0199
   11MOL   O190 7410   7.335   3.134   3.696 -0.9943 -0.3464  0.2014
   11MOL   C191 7411   7.347   3.273   3.697  1.0671  0.3560  1.1329
   11MOL   O192 7412   7.246   3.344   3.710  0.2981  0.4153 -0.8323
   11MOL   C193 7413   7.485   3.329   3.677  0.6240 -0.4773 -1.2896
   11MOL   C194 7414   7.479   3.482   3.683 -0.7140  0.0653  0.3217
   11MOL   C195 7415   7.593   3.283   3.786  0.2683  0.2564  0.4612
   11MOL   H196 7416   0.070   2.502   3.896 -3.9167  0.4487 -0.1996
   11MOL   H197 7417   0.133   2.653   3.816  1.4026 -0.5273  0.5943
   11MOL   H198 7418   0.153   2.621   3.990  0.1355 -0.2961  0.6072
   11MOL   H199 7419   7.726   2.747   4.000  0.8247 -0.1864 -0.1171
   11MOL   H200 7420   7.675   2.590   4.022  0.7679  2.3799  2.4863
   11MOL   H201 7421   7.629   2.747   3.768 -0.5581  0.4015  0.9827
   11MOL   H202 7422   7.657   2.584   3.750 -3.7495 -0.0060 -1.3456
   11MOL   H203 7423   7.449   2.533   3.860  2.2258 -1.2184 -0.1366
   11MOL   H204 7424   7.462   2.686   3.953  1.2249  0.8990 -0.5561
   11MOL   H205 7425   7.295   2.650   3.766  0.3994 -0.8741 -0.3115
   11MOL   H206 7426   7.413   2.708   3.655 -0.0217  2.7655  0.3533
   11MOL   H207 7427   7.441   2.921   3.780 -1.2830  3.2822  1.7218
   11MOL   H208 7428   7.332   2.869   3.895  0.4213  0.7136  0.7013
   11MOL   H209 7429   7.247   2.903   3.592  1.8780 -0.2416  0.1891
   11MOL   H210 7430   7.140   2.860   3.717 -1.3374  1.3191  1.4365
   11MOL   H211 7431   7.184   3.077   3.832  0.7194  0.1954 -0.0278
   11MOL   H212 7432   7.132   3.097   3.674  0.6681 -2.7835 -1.6737
   11MOL   H213 7433   7.416   3.518   3.602 -1.4701 -4.1075 -1.0970
   11MOL   H214 7434   7.429   3.518   3.773 -1.3085  0.0211  0.0159
   11MOL   H215 7435   7.579   3.524   3.683 -0.3144 -0.8329  1.7071
   11MOL   H216 7436   7.590   3.175   3.781 -1.7024  0.3820 -1.9178
   11MOL   H217 7437   7.697   3.295   3.753  0.9194 -1.1567  1.9015
   11MOL   C218 7438   0.653   3.591   4.539  0.3203  0.3020  0.1623
   11MOL   C219 7439   0.558   3.544   4.427  0.2551 -0.6330  0.2087
   11MOL   C220 7440   0.451   3.645   4.402 -0.4691  0.2138 -0.5041
   11MOL   C221 7441   0.341   3.593   4.308  0.0985 -0.3299 -0.5550
   11MOL   C222 7442   0.379   3.581   4.160  0.5677  0.5372 -0.1952
   11MOL   C223 7443   0.276   3.528   4.062 -0.2630  0.1164 -0.6187
   11MOL   C224 7444   0.164   3.630   4.038 -0.6364 -0.4897 -0.2736
   11MOL   C225 7445   0.079   3.602   3.915  0.5096  0.1623 -0.0134
   11MOL   O226 7446   0.013   3.476   3.913  0.5839 -0.4266  0.2840
   11MOL   C227 7447   7.654   3.465   3.949  0.0847  0.3648  0.4804
   11MOL   O228 7448   7.581   3.561   3.983  0.0717 -0.3978 -0.7451
   11MOL   C229 7449   7.594   3.320   3.935 -0.2664  0.5932 -0.1645
   11MOL   C230 7450   7.703   3.224   4.001 -0.0030 -0.5437 -0.1345
   11MOL   C231 7451   7.454   3.305   4.006 -0.9758  0.4896  0.1850
   11MOL   H232 7452   0.732   3.519   4.559 -0.0643  0.2859  1.7058
   11MOL   H233 7453   0.607   3.592   4.638 -1.1003  0.4198 -0.4874
   11MOL   H234 7454   0.704   3.684   4.514 -0.1676  0.3855 -0.5604
   11MOL   H235 7455   0.527   3.445   4.459  0.6453 -0.3324  1.5806
   11MOL   H236 7456   0.622   3.541   4.339 -0.4207 -0.0853 -0.3026
   11MOL   H237 7457   0.401   3.670   4.496  0.3609  0.4999 -0.1390
   11MOL   H238 7458   0.499   3.733   4.361 -0.4471  0.6382  0.4154
   11MOL   H239 7459   0.303   3.502   4.354 -2.6233  0.8586 -0.3992
   11MOL   H240 7460   0.269   3.674   4.316  1.1329  0.3957  2.1598
   11MOL   H241 7461   0.421   3.676   4.129  1.3098 -0.1163 -1.2272
   11MOL   H242 7462   0.469   3.522   4.143  0.4799  0.7116 -1.3265
   11MOL   H243 7463   0.327   3.521   3.966 -0.9592 -0.8724 -0.9261
   11MOL   H244 7464   0.239   3.430   4.091  1.4376 -0.0059  1.1691
   11MOL   H245 7465   0.212   3.728   4.035 -1.5290 -0.0203  0.4568
   11MOL   H246 7466   0.096   3.636   4.123 -1.6227 -1.0460 -1.0048
   11MOL   H247 7467   0.135   3.594   3.822 -1.9090 -0.7049 -1.4392
   11MOL   H248 7468   0.008   3.680   3.889 -1.1557 -1.6441 -0.9870
   11MOL   H249 7469   7.726   3.243   4.106 -1.0049  1.7588 -0.3066
   11MOL   H250 7470   0.020   3.232   3.952  0.0063 -0.9687 -0.1853
   11MOL   H251 7471   7.674   3.119   4.000 -0.0783 -0.5148 -0.7762
   11MOL   H252 7472   7.390   3.391   3.983  0.5948  1.7883  0.5402
   11MOL   H253 7473   7.399   3.226   3.955  1.4416 -1.2233  0.1788
   11MOL   C254 7474   7.383   2.786   4.848 -0.7738  0.4070 -0.1384
   11MOL   C255 7475   7.285   2.814   4.731  0.0008  0.0564  0.4832
   11MOL   C256 7476   7.327   2.934   4.644  0.3794 -0.2440 -0.4046
   11MOL   C257 7477   7.306   3.069   4.722  0.2207  0.3460 -0.1076
   11MOL   C258 7478   7.347   3.181   4.624 -0.6718  0.5687 -0.4000
   11MOL   C259 7479   7.395   3.311   4.692 -0.0139  0.6043  0.5206
   11MOL   C260 7480   7.418   3.429   4.607 -0.0649 -0.5620  0.6408
   11MOL   C261 7481   7.526   3.396   4.498  0.0924 -0.4599  0.3082
   11MOL   O262 7482   7.482   3.325   4.386  0.3106 -0.3118 -0.6075
   11MOL   C263 7483   7.519   3.340   4.263 -0.2406  0.1026 -0.1084
   11MOL   O264 7484   7.616   3.404   4.233 -0.2083 -0.4034  0.1367
   11MOL   C265 7485   7.430   3.267   4.160  0.8092  0.5827  0.4827
   11MOL   C266 7486   7.448   3.117   4.178 -0.7407 -0.3847 -0.0097
   11MOL   C267 7487   7.274   3.280   4.203  0.1912  0.5440  0.4666
   11MOL   H268 7488   7.333   2.736   4.931  1.0371 -1.6738 -0.2293
   11MOL   H269 7489   7.462   2.720   4.811  0.5281  1.9696 -0.2085
   11MOL   H270 7490   7.436   2.872   4.888  0.0708 -1.6480  3.4253
   11MOL   H271 7491   7.296   2.720   4.678  0.5448 -1.2808  2.8992
   11MOL   H272 7492   7.180   2.815   4.761  0.7532 -2.9637  3.4896
   11MOL   H273 7493   7.279   2.929   4.546  0.6931  0.1874 -0.5805
   11MOL   H274 7494   7.433   2.920   4.621  0.4831 -0.3356  0.1337
   11MOL   H275 7495   7.372   3.069   4.808 -0.4922 -1.7262  0.4527
   11MOL   H276 7496   7.202   3.084   4.750 -0.1633 -1.3194 -0.5755
   11MOL   H277 7497   7.436   3.149   4.570  1.3012  1.3974  2.2749
   11MOL   H278 7498   7.258   3.189   4.562 -2.0264 -0.7987  1.3118
   11MOL   H279 7499   7.472   3.290   4.766 -0.0471  2.7281  1.1894
   11MOL   H280 7500   7.318   3.342   4.764  0.4652 -0.7643  1.6391
   11MOL   H281 7501   7.325   3.468   4.565 -0.2018 -0.6486  0.8663
   11MOL   H282 7502   7.463   3.499   4.676  2.3064 -1.4028 -0.0226
   11MOL   H283 7503   7.568   3.490   4.464 -1.0129  0.3325  1.0953
   11MOL   H284 7504   7.615   3.346   4.537  1.4642  1.3548 -0.4310
   11MOL   H285 7505   7.532   3.070   4.128 -1.5477 -2.1947  0.2814
   11MOL   H286 7506   7.457   3.092   4.284  1.6321  1.8685  0.3711
   11MOL   H287 7507   7.363   3.055   4.149  0.1268 -1.4669 -0.2611
   11MOL   H288 7508   7.275   3.250   4.307  1.9642  0.2677  0.3758
   11MOL   H289 7509   7.225   3.202   4.145  3.0083 -1.7420  1.0641
   11MOL   C290 7510   6.802   2.681   4.842 -0.5185 -0.5394 -0.3147
   11MOL   C291 7511   6.788   2.729   4.695 -0.4720  0.2380  0.4689
   11MOL   C292 7512   6.921   2.785   4.647 -0.3664 -0.2167  0.5510
   11MOL   C293 7513   6.931   2.827   4.499 -0.6440 -0.2314  0.2815
   11MOL   C294 7514   6.853   2.954   4.477 -0.1721  0.4746 -0.5802
   11MOL   C295 7515   6.945   3.078   4.466  0.4079  0.2349  0.5438
   11MOL   C296 7516   6.866   3.213   4.467  0.3988  0.6360 -0.1812
   11MOL   C297 7517   6.947   3.338   4.455  0.2207  0.5068 -0.5297
   11MOL   O298 7518   7.031   3.331   4.333  0.8229  0.3565 -0.4309
   11MOL   C299 7519   7.108   3.427   4.328  0.7241 -0.1945 -0.5408
   11MOL   O300 7520   7.123   3.523   4.404  0.6994  0.6788  0.2160
   11MOL   C301 7521   7.204   3.420   4.194  0.0239  0.1843 -0.2903
   11MOL   C302 7522   7.299   3.544   4.212  0.0249 -0.0079  0.2874
   11MOL   C303 7523   7.105   3.407   4.071 -0.5732  0.1672  0.0658
   11MOL   H304 7524   6.721   2.718   4.904  0.4815 -0.3812  0.9364
   11MOL   H305 7525   6.896   2.706   4.892  2.0747 -1.1172 -4.5527
   11MOL   H306 7526   6.794   2.573   4.851  0.5684 -0.6754 -0.7973
   11MOL   H307 7527   6.711   2.806   4.693  0.0270  0.7153 -0.2994
   11MOL   H308 7528   6.749   2.644   4.638 -2.8548  0.7466  1.2897
   11MOL   H309 7529   7.002   2.713   4.657  0.0469  0.1374 -0.2078
   11MOL   H310 7530   6.947   2.875   4.702  0.2188  0.4589 -0.8230
   11MOL   H311 7531   7.034   2.847   4.469 -0.9219 -0.5685 -0.9478
   11MOL   H312 7532   6.881   2.752   4.436  0.3812  0.8804 -1.9220
   11MOL   H313 7533   6.790   2.943   4.388 -1.9964 -0.9488  0.8513
   11MOL   H314 7534   6.772   2.961   4.549 -0.5789 -0.2774 -0.9505
   11MOL   H315 7535   7.012   3.061   4.381 -0.5466  1.0527 -0.3859
   11MOL   H316 7536   7.011   3.086   4.552 -0.4496 -1.4699  1.3808
   11MOL   H317 7537   6.800   3.216   4.553 -0.9217 -0.9216 -1.1049
   11MOL   H318 7538   6.782   3.200   4.398 -1.0870  0.0332  1.6835
   11MOL   H319 7539   6.999   3.349   4.549 -0.8338 -3.5278  0.6283
   11MOL   H320 7540   6.878   3.422   4.457 -0.0292  0.2835  0.4467
   11MOL   H321 7541   7.255   3.643   4.217  2.4952  1.1156 -0.0120
   11MOL   H322 7542   7.376   3.550   4.135 -1.0392  0.2168 -0.7914
   11MOL   H323 7543   7.353   3.543   4.306  1.5250  0.3730 -0.5525
   11MOL   H324 7544   7.156   3.357   3.988 -0.8405 -1.0333  0.6200
   11MOL   H325 7545   7.018   3.351   4.104 -2.1436  2.5393  0.1321
   11MOL   C326 7546   7.144   2.762   4.129 -0.4022 -0.6789 -0.0294
   11MOL   C327 7547   7.061   2.889   4.128 -0.0125 -0.1733  0.6711
   11MOL   C328 7548   6.921   2.901   4.058 -0.6416  0.3693  0.2796
   11MOL   C329 7549   6.877   3.046   4.048  0.1369  0.5512  0.3216
   11MOL   C330 7550   6.737   3.070   3.984 -1.0199 -0.2835  0.2769
   11MOL   C331 7551   6.735   3.204   3.909 -0.1751  0.8683  0.5957
   11MOL   C332 7552   6.820   3.210   3.783  0.4554  0.1342  0.2652
   11MOL   C333 7553   6.869   3.346   3.735 -0.4178 -0.4864 -0.0273
   11MOL   O334 7554   6.959   3.401   3.824 -0.2647  0.1660  0.4576
   11MOL   C335 7555   6.929   3.495   3.919  1.0240  0.8456  0.6316
   11MOL   O336 7556   6.810   3.529   3.934  0.0160  0.0316  0.0280
   11MOL   C337 7557   7.042   3.542   4.006 -0.1669 -0.2285 -0.0829
   11MOL   C338 7558   6.977   3.634   4.114 -0.4666 -0.3310  0.7979
   11MOL   C339 7559   7.143   3.613   3.915 -0.2084 -0.3664  0.1273
   11MOL   H340 7560   7.230   2.776   4.194 -0.6517  1.7228 -0.2023
   11MOL   H341 7561   7.166   2.753   4.023 -1.1064 -3.8125  0.0176
   11MOL   H342 7562   7.079   2.681   4.163 -0.8680 -1.8438 -3.4554
   11MOL   H343 7563   7.118   2.968   4.079  3.3098 -2.8016  0.1310
   11MOL   H344 7564   7.052   2.921   4.232 -0.4228 -0.0604  0.6028
   11MOL   H345 7565   6.852   2.844   4.120 -1.0935  2.0123  1.3037
   11MOL   H346 7566   6.931   2.858   3.959 -1.0179  3.3916 -1.1158
   11MOL   H347 7567   6.953   3.099   3.990 -1.0126 -0.1003 -1.8106
   11MOL   H348 7568   6.886   3.095   4.145  2.7263  0.1554  0.3334
   11MOL   H349 7569   6.720   2.992   3.910  1.0856 -2.1734  1.7232
   11MOL   H350 7570   6.665   3.066   4.066 -1.3399  5.1728  0.4389
   11MOL   H351 7571   6.634   3.225   3.872  0.2695  0.5773 -0.8398
   11MOL   H352 7572   6.761   3.286   3.976 -0.7926  0.4185  1.3902
   11MOL   H353 7573   6.766   3.165   3.700 -0.8954  1.9094  0.1350
   11MOL   H354 7574   6.911   3.151   3.784 -0.7372 -1.7322  0.9625
   11MOL   H355 7575   6.913   3.335   3.636 -0.7882  0.1270 -0.2612
   11MOL   H356 7576   6.788   3.418   3.719 -0.8355 -0.9565 -0.0482
   11MOL   H357 7577   7.049   3.686   4.177  0.5188  0.7200 -1.1275
   11MOL   H358 7578   6.927   3.714   4.060 -0.4835  0.1959  1.5854
   11MOL   H359 7579   6.903   3.572   4.164 -0.2771 -1.5250 -0.3524
   11MOL   H360 7580   7.243   3.611   3.957 -0.2408 -0.6814  0.1853
   11MOL   H361 7581   7.161   3.546   3.831 -1.0020 -0.9877  0.4451
   11MOL   C362 7582   7.142   3.386   2.901 -0.0543 -0.1062  0.0528
   11MOL   C363 7583   7.173   3.319   3.031 -0.0099 -0.7082 -0.6396
   11MOL   C364 7584   7.053   3.330   3.129 -0.8576  0.7396  0.3042
   11MOL   C365 7585   7.058   3.468   3.198 -0.0984  0.5687 -0.2790
   11MOL   C366 7586   6.936   3.474   3.291 -0.3359 -0.0906  0.0683
   11MOL   C367 7587   6.939   3.591   3.383 -0.0660  0.0105  0.4891
   11MOL   C368 7588   6.825   3.596   3.483  0.6604  0.5558 -0.3447
   11MOL   C369 7589   6.842   3.707   3.586  0.1038 -0.0498 -0.1857
   11MOL   O370 7590   6.962   3.691   3.666  0.4550  0.4337 -0.3652
   11MOL   C371 7591   6.981   3.766   3.777 -0.0349  0.1088 -0.5297
   11MOL   O372 7592   6.892   3.848   3.810  0.2115 -0.3308 -0.4546
   11MOL   C373 7593   7.121   3.763   3.847 -0.2545 -0.4068  0.3583
   11MOL   C374 7594   7.228   3.774   3.744 -0.0046 -0.3069  0.2174
   11MOL   C375 7595   7.132   3.865   3.965  0.0417  0.1435  0.5395
   11MOL   H376 7596   7.215   3.353   2.826 -0.4969  0.1398 -0.4915
   11MOL   H377 7597   7.044   3.361   2.860  0.1682  0.1189 -0.6284
   11MOL   H378 7598   7.150   3.493   2.917  2.3087 -0.3581  0.8789
   11MOL   H379 7599   7.268   3.353   3.073  0.2669 -2.3553  0.1022
   11MOL   H380 7600   7.195   3.215   3.009 -2.0333 -1.0754 -1.0332
   11MOL   H381 7601   7.058   3.252   3.206  0.9722 -0.3776 -0.9101
   11MOL   H382 7602   6.961   3.315   3.073  0.9080 -3.6345 -1.6814
   11MOL   H383 7603   7.062   3.551   3.128  1.7269  0.0394 -0.8223
   11MOL   H384 7604   7.154   3.464   3.250 -0.6260  2.3330  0.8707
   11MOL   H385 7605   6.847   3.489   3.230  0.9706  3.8294 -1.0161
   11MOL   H386 7606   6.923   3.388   3.357  0.0653  0.2547  0.6049
   11MOL   H387 7607   6.942   3.685   3.328  1.4184 -0.3140 -0.0101
   11MOL   H388 7608   7.032   3.588   3.440 -0.6637  0.4285  1.5002
   11MOL   H389 7609   6.803   3.501   3.530 -1.3863  1.6053  0.8884
   11MOL   H390 7610   6.730   3.625   3.438  0.1108  0.1760  0.5730
   11MOL   H391 7611   6.836   3.810   3.552  0.3779  0.4305  1.1759
   11MOL   H392 7612   6.761   3.704   3.660  2.3279 -0.8343  2.2930
   11MOL   H393 7613   7.216   3.701   3.663 -0.8335  0.4478 -0.3592
   11MOL   H394 7614   7.229   3.869   3.691 -1.8546  0.3853  1.3890
   11MOL   H395 7615   7.327   3.749   3.779  0.4942  0.6452 -0.4762
   11MOL   H396 7616   7.032   3.886   4.003 -0.0552  1.6406 -0.5385
   11MOL   H397 7617   7.186   3.821   4.049  0.4101  0.6750  0.5764
   11MOL   C398 7618   0.074   3.525   4.667 -0.3027 -0.4855 -0.3229
   11MOL   C399 7619   0.087   3.608   4.537 -0.8315  0.0669 -0.1903
   11MOL   C400 7620   7.745   3.711   4.529  0.0403  0.0044  0.5403
   11MOL   C401 7621   7.720   3.759   4.383 -0.2059 -0.4803  0.1327
   11MOL   C402 7622   7.584   3.832   4.365  0.2024  0.0403 -0.6317
   11MOL   C403 7623   7.529   3.838   4.222  0.5377 -0.8430 -0.9504
   11MOL   C404 7624   7.603   3.939   4.124 -0.8653 -0.1907 -0.2656
   11MOL   C405 7625   7.547   3.948   3.979  0.4861 -0.3199  0.6892
   11MOL   O406 7626   7.409   3.965   3.997 -0.3183  0.4741 -0.1381
   11MOL   C407 7627   7.328   4.021   3.911 -0.1320 -0.1423  0.1444
   11MOL   O408 7628   7.370   4.074   3.809  0.1766 -1.1730 -0.1243
   11MOL   C409 7629   7.177   4.018   3.952  0.2322  0.1424  0.1840
   11MOL   C410 7630   7.088   4.089   3.849  0.3869 -0.7863  0.5394
   11MOL   C411 7631   7.159   4.079   4.093 -0.5497 -0.2212  0.0905
   11MOL   H412 7632   0.140   3.438   4.671 -0.4496 -0.5616  0.6823
   11MOL   H413 7633   7.751   3.489   4.680 -0.3391 -0.2599  0.0337
   11MOL   H414 7634   0.099   3.582   4.757  1.3227  0.2765 -1.2491
   11MOL   H415 7635   0.082   3.540   4.452 -0.9409 -0.0615 -0.0807
   11MOL   H416 7636   0.180   3.664   4.529 -1.4887  1.2759  0.5033
   11MOL   H417 7637   7.653   3.672   4.574  0.8702  0.1671  2.4254
   11MOL   H418 7638   7.779   3.804   4.574  1.1139  0.5398 -1.3213
   11MOL   H419 7639   7.726   3.672   4.317 -0.8822  1.1689 -2.1959
   11MOL   H420 7640   0.027   3.820   4.358 -0.3963  0.9154  2.7747
   11MOL   H421 7641   7.507   3.774   4.415 -0.3524  0.6718 -0.7552
   11MOL   H422 7642   7.596   3.926   4.419  1.4934 -0.7092  0.4281
   11MOL   H423 7643   7.421   3.852   4.223  0.5008 -1.1441 -0.0285
   11MOL   H424 7644   7.527   3.738   4.180 -1.4222 -1.2351  0.0531
   11MOL   H425 7645   7.596   4.039   4.166 -1.3359  0.2984 -1.4888
   11MOL   H426 7646   7.707   3.906   4.121 -0.7708  0.0011  1.0027
   11MOL   H427 7647   7.581   4.041   3.935  1.5494 -1.6191 -1.2950
   11MOL   H428 7648   7.566   3.862   3.914 -1.1413 -1.3832  1.5842
   11MOL   H429 7649   7.127   4.184   3.813  0.8861 -1.4688 -0.7458
   11MOL   H430 7650   6.984   4.095   3.882  0.7766 -0.1915  1.6874
   11MOL   H431 7651   7.083   4.033   3.756  0.0788 -1.7123  1.1116
   11MOL   H432 7652   7.209   4.002   4.152  1.7761  1.1125 -0.0819
   11MOL   H433 7653   7.054   4.061   4.115 -0.3029 -1.8184  0.0304
   11MOL   C434 7654   6.186   4.238   3.538 -0.2366  0.3340 -0.2072
   11MOL   C435 7655   6.299   4.285   3.643  0.2021 -0.2446 -0.2685
   11MOL   C436 7656   6.393   4.389   3.585 -0.4082 -0.1470 -0.1266
   11MOL   C437 7657   6.493   4.445   3.691 -0.3845 -0.1297 -0.2809
   11MOL   C438 7658   6.601   4.343   3.747 -0.6181 -0.0611 -0.6818
   11MOL   C439 7659   6.689   4.413   3.857  0.3945 -0.6762 -0.2892
   11MOL   C440 7660   6.813   4.333   3.902  0.5267  0.0123  0.5814
   11MOL   C441 7661   6.888   4.397   4.016  0.6384 -0.2991  0.4814
   11MOL   O442 7662   6.983   4.298   4.059  0.2726 -0.1779  0.2363
   11MOL   C443 7663   7.115   4.326   4.060  0.1293 -0.4236 -0.4036
   11MOL   O444 7664   7.167   4.419   3.999  0.2616  0.0398 -0.2863
   11MOL   C445 7665   7.196   4.223   4.140 -0.0810  0.4789 -0.4680
   11MOL   C446 7666   7.355   4.251   4.139 -0.0072  0.5522  0.2664
   11MOL   C447 7667   7.154   4.248   4.292  0.4832  0.2179 -0.7914
   11MOL   H448 7668   6.109   4.181   3.589 -0.1294  0.0452 -0.3649
   11MOL   H449 7669   6.221   4.166   3.464  1.3826 -0.1160  0.9797
   11MOL   H450 7670   6.140   4.323   3.486  2.0944  1.1324 -1.0646
   11MOL   H451 7671   6.355   4.197   3.673  1.1734  0.1842 -0.7920
   11MOL   H452 7672   6.257   4.323   3.737 -3.6433 -0.2576 -1.8715
   11MOL   H453 7673   6.330   4.464   3.536 -0.6786 -1.4704 -1.8524
   11MOL   H454 7674   6.442   4.342   3.499 -0.8261 -0.9187  0.0470
   11MOL   H455 7675   6.439   4.491   3.774 -0.3841  0.2535 -0.4933
   11MOL   H456 7676   6.551   4.522   3.642 -0.8130  0.4609  0.1265
   11MOL   H457 7677   6.551   4.254   3.786 -3.8116  0.9233 -2.3301
   11MOL   H458 7678   6.664   4.312   3.663  1.9131  0.5252  0.9432
   11MOL   H459 7679   6.629   4.429   3.946  2.2287 -1.3192  1.1100
   11MOL   H460 7680   6.720   4.510   3.817  1.7703 -0.2389  1.7723
   11MOL   H461 7681   6.768   4.240   3.934  1.1726 -0.0102  1.4421
   11MOL   H462 7682   6.874   4.330   3.811 -0.6556 -1.4047 -0.1885
   11MOL   H463 7683   6.827   4.421   4.103  0.1712 -1.4965  0.4989
   11MOL   H464 7684   6.931   4.487   3.972 -2.5243  1.4849  0.8792
   11MOL   H465 7685   7.392   4.338   4.193 -0.7157 -0.5359  2.5820
   11MOL   H466 7686   7.404   4.167   4.188  0.0658  0.9225  0.8253
   11MOL   H467 7687   7.398   4.254   4.038 -1.8405  2.5915 -0.4901
   11MOL   H468 7688   7.203   4.344   4.308 -2.3263  1.6609 -0.4741
   11MOL   H469 7689   7.048   4.277   4.297  0.3726 -0.4559  1.4031
   11MOL   C470 7690   6.011   3.723   4.347 -0.1809 -0.4965  0.1196
   11MOL   C471 7691   6.164   3.691   4.333 -0.4645 -0.5400 -0.1287
   11MOL   C472 7692   6.260   3.797   4.395  0.1629  0.0614  0.2277
   11MOL   C473 7693   6.404   3.773   4.349  0.4464  0.5593 -0.4125
   11MOL   C474 7694   6.496   3.889   4.359  0.2459  0.4281 -0.7161
   11MOL   C475 7695   6.635   3.853   4.300  0.0739  0.0177 -0.4025
   11MOL   C476 7696   6.733   3.972   4.324 -0.5531  0.3115 -0.1558
   11MOL   C477 7697   6.878   3.924   4.296 -0.2099 -1.0727 -0.4834
   11MOL   O478 7698   6.960   4.036   4.336  0.0436  0.0841  0.0535
   11MOL   C479 7699   7.085   4.015   4.389  0.0949 -0.4459 -0.6458
   11MOL   O480 7700   7.128   3.907   4.411 -0.2259 -0.3867 -0.4667
   11MOL   C481 7701   7.171   4.145   4.413 -0.5887 -0.6695  0.0530
   11MOL   C482 7702   7.320   4.091   4.426 -1.0912 -0.2022 -0.1494
   11MOL   C483 7703   7.143   4.207   4.557  0.0368 -0.6367  0.0813
   11MOL   H484 7704   5.942   3.639   4.341 -1.4519  0.5330  0.1297
   11MOL   H485 7705   5.971   3.787   4.268 -2.0071  0.6277  1.8876
   11MOL   H486 7706   6.003   3.773   4.444 -0.2626 -3.0422  1.4756
   11MOL   H487 7707   6.177   3.594   4.381 -1.0146 -1.4334 -1.7324
   11MOL   H488 7708   6.186   3.679   4.227 -1.9034  0.1857 -0.5151
   11MOL   H489 7709   6.211   3.890   4.365  1.6243  0.3945 -1.1831
   11MOL   H490 7710   6.251   3.797   4.504  2.4445  1.4523  0.4520
   11MOL   H491 7711   6.440   3.692   4.412  2.8741  3.2514  1.7843
   11MOL   H492 7712   6.415   3.741   4.245  0.2661  0.7020 -0.4756
   11MOL   H493 7713   6.456   3.978   4.310 -2.2236 -0.5917 -0.6502
   11MOL   H494 7714   6.506   3.926   4.462  3.0929 -1.8178 -0.1378
   11MOL   H495 7715   6.678   3.759   4.337 -0.5474  0.6907  2.1423
   11MOL   H496 7716   6.629   3.826   4.194 -1.1183  0.9174 -0.5653
   11MOL   H497 7717   6.704   4.051   4.254 -1.5802  0.4968  0.4741
   11MOL   H498 7718   6.727   4.015   4.423 -1.5577 -0.8887  0.3217
   11MOL   H499 7719   6.900   3.916   4.189  0.3648  0.2739 -0.4794
   11MOL   H500 7720   6.894   3.833   4.353 -1.3874 -0.1216  1.4331
   11MOL   H501 7721   7.342   4.026   4.341  0.1296 -1.6422  1.2411
   11MOL   H502 7722   7.345   4.039   4.518 -0.8227 -0.8588 -0.5950
   11MOL   H503 7723   7.387   4.177   4.432  0.2472 -1.2002 -0.6429
   11MOL   H504 7724   7.174   4.133   4.631 -0.8143 -1.6281 -0.5329
   11MOL   H505 7725   7.209   4.291   4.576  0.3183 -0.6973 -0.6093
   11MOL   C506 7726   7.506   4.846   3.880 -0.2573 -0.5241 -0.0914
   11MOL   C507 7727   7.414   4.798   3.991 -0.8484  0.0229  0.7908
   11MOL   C508 7728   7.493   4.760   4.120 -0.2412  0.1396  0.0989
   11MOL   C509 7729   7.417   4.672   4.216  0.4381 -0.7964  0.2815
   11MOL   C510 7730   7.286   4.731   4.273  0.4342  0.1942  0.3562
   11MOL   C511 7731   7.186   4.625   4.306 -0.6052  0.1642 -1.0942
   11MOL   C512 7732   7.057   4.674   4.382  0.6387  0.0900 -0.1568
   11MOL   C513 7733   6.950   4.568   4.407  0.4190  0.2333 -0.5821
   11MOL   O514 7734   7.008   4.471   4.506  0.3537  0.4382 -0.5389
   11MOL   C515 7735   6.931   4.360   4.521  0.2438  0.0091 -0.2003
   11MOL   O516 7736   6.815   4.344   4.481  0.8303 -0.0057  0.4432
   11MOL   C517 7737   6.994   4.251   4.612  0.0182 -1.0224  0.2115
   11MOL   C518 7738   6.902   4.134   4.638  0.6012  0.2727 -0.0887
   11MOL   C519 7739   7.028   4.321   4.746  0.2544 -0.0979  0.1528
   11MOL   H520 7740   7.451   4.863   3.787  1.5088 -0.3002 -1.1193
   11MOL   H521 7741   7.577   4.766   3.860 -1.1892 -1.2053 -0.7214
   11MOL   H522 7742   7.557   4.939   3.902  0.2834 -0.6792 -0.6811
   11MOL   H523 7743   7.355   4.714   3.955  1.2351 -0.9282 -0.4698
   11MOL   H524 7744   7.343   4.879   4.008  0.3533  1.1817  0.3558
   11MOL   H525 7745   7.579   4.700   4.092 -1.7601 -1.9832 -0.1075
   11MOL   H526 7746   7.527   4.849   4.173  1.2625 -1.0106  1.0897
   11MOL   H527 7747   7.400   4.585   4.151  3.5819 -0.8037 -0.6156
   11MOL   H528 7748   7.485   4.631   4.291  0.4667  1.2573  1.3785
   11MOL   H529 7749   7.309   4.790   4.362  1.3227  0.6519 -0.1760
   11MOL   H530 7750   7.245   4.809   4.209  0.4901 -0.6499 -0.7210
   11MOL   H531 7751   7.242   4.549   4.361 -1.1828  0.5073 -0.0085
   11MOL   H532 7752   7.155   4.580   4.212 -2.3489 -0.9680  0.0093
   11MOL   H533 7753   7.021   4.765   4.334  2.0930  0.9684  0.3851
   11MOL   H534 7754   7.085   4.726   4.474  0.2171 -0.6073  0.3756
   11MOL   H535 7755   6.924   4.517   4.314 -1.4046 -3.2389  1.7441
   11MOL   H536 7756   6.866   4.633   4.431 -0.0298 -0.0938 -1.2226
   11MOL   H537 7757   6.798   4.149   4.664 -0.2205 -4.0449 -0.5078
   11MOL   H538 7758   6.940   4.051   4.698 -2.3759  1.1156  3.1296
   11MOL   H539 7759   6.881   4.099   4.537 -0.2048  0.3564  0.0474
   11MOL   H540 7760   7.104   4.262   4.798  1.7237  2.1452  0.6342
   11MOL   H541 7761   7.071   4.416   4.716 -2.5293  1.0906 -0.2088
   11MOL   C542 7762   6.663   5.406   4.387 -0.2232 -0.4576  0.2812
   11MOL   C543 7763   6.812   5.367   4.413 -0.2635 -0.6117 -0.1706
   11MOL   C544 7764   6.841   5.268   4.526  0.1603  0.1762  0.3920
   11MOL   C545 7765   6.773   5.130   4.508  0.0866 -0.6148 -0.4361
   11MOL   C546 7766   6.810   5.029   4.617 -0.4816 -0.0043 -0.5226
   11MOL   C547 7767   6.741   4.892   4.605  0.5576  0.1525  0.1584
   11MOL   C548 7768   6.821   4.799   4.697  0.8845  0.3218 -0.4952
   11MOL   C549 7769   6.760   4.665   4.711 -0.5694  0.5366  0.0194
   11MOL   O550 7770   6.866   4.574   4.758 -0.6173  0.4568  0.0291
   11MOL   C551 7771   6.821   4.459   4.810  0.6293  0.0629 -1.0180
   11MOL   O552 7772   6.699   4.425   4.818 -0.2941 -0.4456  0.4990
   11MOL   C553 7773   6.930   4.363   4.863 -0.2279  0.5253 -0.8770
   11MOL   C554 7774   7.011   4.456   4.956  0.2666 -0.0119  0.9736
   11MOL   C555 7775   6.865   4.241   4.929 -0.3324  0.3046 -0.1235
   11MOL   H556 7776   6.626   5.327   4.322  2.3191 -0.6293 -1.0180
   11MOL   H557 7777   6.654   5.500   4.331  1.1218  0.0816  0.9281
   11MOL   H558 7778   6.601   5.411   4.476  1.7127  1.9303  1.5524
   11MOL   H559 7779   6.864   5.345   4.319 -0.5440  0.0213 -0.4767
   11MOL   H560 7780   6.866   5.455   4.448 -0.8765 -0.2386 -0.1535
   11MOL   H561 7781   6.805   5.303   4.623 -0.5555  1.0112 -0.1715
   11MOL   H562 7782   6.950   5.269   4.535  0.0814  1.0326  1.4028
   11MOL   H563 7783   6.666   5.150   4.516  0.3059  0.7689 -0.7846
   11MOL   H564 7784   6.787   5.087   4.410  0.2297  0.2798 -0.8136
   11MOL   H565 7785   6.805   5.066   4.719 -0.9706 -1.1925 -0.1028
   11MOL   H566 7786   6.917   5.007   4.610 -0.3805  0.3806 -0.1848
   11MOL   H567 7787   6.636   4.898   4.632  0.8887 -1.7760  2.0403
   11MOL   H568 7788   6.743   4.857   4.501  0.4528  1.4711 -0.2914
   11MOL   H569 7789   6.926   4.794   4.669  0.5638 -0.4246 -1.6023
   11MOL   H570 7790   6.829   4.832   4.800  0.5439  0.4167 -0.4982
   11MOL   H571 7791   6.726   4.641   4.610  1.0722  2.1521 -0.9634
   11MOL   H572 7792   6.679   4.665   4.784  0.5137  0.2072  1.2378
   11MOL   H573 7793   7.097   4.409   5.004  0.9089  0.0306 -0.0999
   11MOL   H574 7794   6.942   4.495   5.031 -2.2933 -2.1994 -0.1742
   11MOL   H575 7795   7.056   4.541   4.905 -0.7962 -0.2292 -0.3702
   11MOL   H576 7796   6.946   4.168   4.927 -0.5473  0.0847 -2.4382
   11MOL   H577 7797   6.788   4.201   4.864 -3.1095  1.9359  2.0405
   11MOL   C578 7798   6.196   5.086   4.793  0.2012  0.0725 -1.2002
   11MOL   C579 7799   6.145   4.946   4.816 -0.0645 -0.4233 -0.1716
   11MOL   C580 7800   6.249   4.842   4.795 -0.1682 -0.1436 -0.2191
   11MOL   C581 7801   6.210   4.704   4.858  0.5360 -0.6009 -0.1852
   11MOL   C582 7802   6.327   4.612   4.882 -0.3525 -0.4942  1.0367
   11MOL   C583 7803   6.279   4.484   4.948  0.2407  0.0106  0.5031
   11MOL   C584 7804   6.383   4.378   4.963 -0.0505  0.0534  0.0924
   11MOL   C585 7805   6.495   4.416   5.067  0.7021  0.1792  0.3992
   11MOL   O586 7806   6.590   4.311   5.064 -0.6120  0.2442 -0.4313
   11MOL   C587 7807   6.708   4.328   5.116 -0.3855 -0.0013  0.2927
   11MOL   O588 7808   6.741   4.434   5.169  0.5532  0.4365 -0.2973
   11MOL   C589 7809   6.813   4.222   5.079 -1.1841 -0.8138  0.8957
   11MOL   C590 7810   6.931   4.216   5.179  0.2106 -0.1620  0.1485
   11MOL   C591 7811   6.750   4.076   5.075 -0.0599 -0.7121  0.9465
   11MOL   H592 7812   6.275   5.122   4.858 -0.3138 -0.1973 -0.4288
   11MOL   H593 7813   6.125   5.165   4.813 -0.1032  0.0691 -2.2186
   11MOL   H594 7814   6.242   5.089   4.694 -0.9342 -1.6261 -1.8111
   11MOL   H595 7815   6.057   4.934   4.753 -0.0161 -0.1196 -0.2965
   11MOL   H596 7816   6.112   4.944   4.920 -0.3693  1.0620 -0.2265
   11MOL   H597 7817   6.347   4.871   4.833 -0.0035  0.8805 -1.3971
   11MOL   H598 7818   6.274   4.842   4.689  0.3376  0.5410 -0.1085
   11MOL   H599 7819   6.144   4.652   4.789 -1.1114 -2.8025  2.9417
   11MOL   H600 7820   6.152   4.721   4.949  1.4385  0.0106  0.2886
   11MOL   H601 7821   6.405   4.660   4.941  0.6655 -0.2870 -0.4561
   11MOL   H602 7822   6.383   4.590   4.791  1.0009  1.0309  1.4893
   11MOL   H603 7823   6.184   4.443   4.914  0.9672 -3.1106  2.1320
   11MOL   H604 7824   6.247   4.511   5.048 -0.8643 -0.8677  0.3962
   11MOL   H605 7825   6.433   4.351   4.871  1.0823  1.9074  0.1503
   11MOL   H606 7826   6.327   4.286   4.981 -0.2708  0.3164  0.7725
   11MOL   H607 7827   6.544   4.504   5.026  0.9046  0.1209  0.5153
   11MOL   H608 7828   6.449   4.444   5.161  0.5317  1.5928 -0.0876
   11MOL   H609 7829   6.991   4.307   5.165 -0.2811 -0.1215 -1.9898
   11MOL   H610 7830   6.906   4.223   5.284 -3.7004 -0.2736 -0.7021
   11MOL   H611 7831   6.995   4.132   5.153 -1.4809 -0.7483 -2.3190
   11MOL   H612 7832   6.820   4.014   5.019 -1.4059 -1.1586 -0.2811
   11MOL   H613 7833   6.680   4.069   4.992  0.4360  0.4808  0.4286
   11MOL   C614 7834   6.808   3.166   4.853  0.4363  0.0683 -0.4214
   11MOL   C615 7835   6.943   3.139   4.923  0.3889  0.6601 -0.0160
   11MOL   C616 7836   7.023   3.265   4.954  0.0791  0.3344  0.1376
   11MOL   C617 7837   6.973   3.362   5.065  0.1042 -0.6703 -0.2553
   11MOL   C618 7838   7.063   3.485   5.086  0.0082  0.2102  0.0815
   11MOL   C619 7839   6.990   3.592   5.162 -0.2005  0.3425 -0.3047
   11MOL   C620 7840   7.072   3.710   5.201  0.6281 -0.5330 -0.2888
   11MOL   C621 7841   6.997   3.794   5.311  0.2112  0.2861  0.7552
   11MOL   O622 7842   6.900   3.864   5.238  0.2976  0.0490  0.0104
   11MOL   C623 7843   6.814   3.941   5.292 -0.1707 -0.1481 -0.3157
   11MOL   O624 7844   6.812   3.979   5.408 -0.4390  0.4482  0.0423
   11MOL   C625 7845   6.701   3.994   5.202  0.0167 -0.1507  0.2264
   11MOL   C626 7846   6.603   4.083   5.288 -0.1327 -0.0910 -0.0423
   11MOL   C627 7847   6.614   3.875   5.143 -0.2335  0.1334 -0.0267
   11MOL   H628 7848   6.777   3.081   4.793 -0.3798 -0.0037  0.0859
   11MOL   H629 7849   6.804   3.250   4.784  0.3301  2.5238  2.4166
   11MOL   H630 7850   6.726   3.193   4.921  1.6568  2.5193  0.1560
   11MOL   H631 7851   6.913   3.094   5.018 -0.4731 -0.8426 -0.9679
   11MOL   H632 7852   7.011   3.081   4.861  0.8436  1.1905 -0.0119
   11MOL   H633 7853   7.053   3.309   4.859 -1.9789 -1.1578 -1.2536
   11MOL   H634 7854   7.123   3.240   4.992 -0.1196  2.8406  2.4695
   11MOL   H635 7855   6.965   3.319   5.165 -0.5382 -2.3385 -1.0100
   11MOL   H636 7856   6.881   3.407   5.028  1.2742  1.4079 -0.7310
   11MOL   H637 7857   7.157   3.463   5.138 -0.2661 -1.0821  0.0581
   11MOL   H638 7858   7.091   3.524   4.989  0.7725 -0.9037 -0.1652
   11MOL   H639 7859   6.900   3.627   5.111  0.5058 -1.6062 -2.9742
   11MOL   H640 7860   6.952   3.543   5.252  0.3607  1.5329  0.5945
   11MOL   H641 7861   7.094   3.763   5.108 -0.1918 -2.1113 -1.4061
   11MOL   H642 7862   7.163   3.674   5.250  0.3739 -0.1952  0.4373
   11MOL   H643 7863   6.956   3.742   5.398 -2.3214  0.8087 -0.0911
   11MOL   H644 7864   7.064   3.874   5.344  0.6416 -0.5317  1.8915
   11MOL   H645 7865   6.574   4.027   5.377  0.1890  2.0473  1.4301
   11MOL   H646 7866   6.512   4.113   5.235  0.2335 -0.4925 -0.9148
   11MOL   H647 7867   6.650   4.173   5.326 -0.0063 -0.5704  0.9632
   11MOL   H648 7868   6.672   3.831   5.062 -0.3782  0.7289 -0.4641
   11MOL   H649 7869   6.532   3.924   5.091 -0.5401  0.1905  0.5151
   11MOL   C650 7870   7.196   3.732   4.769  0.0336 -0.6470 -0.0825
   11MOL   C651 7871   7.049   3.769   4.782 -0.5362 -0.3492  0.5319
   11MOL   C652 7872   6.956   3.704   4.665 -0.1311  0.1611  0.6229
   11MOL   C653 7873   6.809   3.762   4.659  0.0984  0.3983  1.0178
   11MOL   C654 7874   6.702   3.658   4.658 -0.3523  0.7149  0.6290
   11MOL   C655 7875   6.715   3.557   4.773  0.3502  0.0010 -0.2156
   11MOL   C656 7876   6.594   3.486   4.821  0.3865  0.2927 -0.4289
   11MOL   C657 7877   6.481   3.570   4.887 -0.3809 -0.1078 -0.3315
   11MOL   O658 7878   6.534   3.627   5.012 -0.4544  0.2097  0.6944
   11MOL   C659 7879   6.456   3.688   5.099  0.5715 -0.3352  0.1333
   11MOL   O660 7880   6.337   3.706   5.084  0.1411 -0.2569  0.2571
   11MOL   C661 7881   6.533   3.758   5.212 -0.3527  0.5281 -0.1719
   11MOL   C662 7882   6.429   3.811   5.314  0.4217 -0.5578  0.2603
   11MOL   C663 7883   6.632   3.654   5.294 -0.3064 -0.1334 -0.2040
   11MOL   H664 7884   7.242   3.779   4.683  0.9267  0.4849  0.9993
   11MOL   H665 7885   7.193   3.627   4.738 -1.9132 -0.2262 -1.4467
   11MOL   H666 7886   7.258   3.736   4.858  1.1317  0.9598 -0.8996
   11MOL   H667 7887   7.055   3.878   4.781  0.4727 -0.4041 -0.5391
   11MOL   H668 7888   7.009   3.743   4.880  0.7455  0.6749  1.3354
   11MOL   H669 7889   6.957   3.596   4.673  0.4959 -0.0653 -1.9694
   11MOL   H670 7890   7.006   3.715   4.568  0.7186  1.4103  1.1823
   11MOL   H671 7891   6.801   3.812   4.562  0.3985 -2.9518 -0.8067
   11MOL   H672 7892   6.801   3.826   4.747  1.4447  0.5624  1.0253
   11MOL   H673 7893   6.700   3.592   4.571  3.2375 -0.6986  1.5523
   11MOL   H674 7894   6.605   3.707   4.661 -0.1233  1.2617 -0.5088
   11MOL   H675 7895   6.778   3.473   4.743 -1.2527 -0.5757 -2.0895
   11MOL   H676 7896   6.762   3.602   4.860  0.1806  0.3436 -0.3002
   11MOL   H677 7897   6.619   3.398   4.879  1.6578  1.4249  0.7704
   11MOL   H678 7898   6.540   3.443   4.736  0.8359 -1.5197  0.1845
   11MOL   H679 7899   6.391   3.513   4.911 -1.0080 -1.5186 -5.3920
   11MOL   H680 7900   6.462   3.652   4.817  1.5971  0.2135 -0.5251
   11MOL   H681 7901   6.357   3.732   5.337 -0.8496  0.5448  0.1543
   11MOL   H682 7902   6.377   3.896   5.270  3.0620  0.4211 -1.0924
   11MOL   H683 7903   6.461   3.853   5.409 -1.7289 -0.5878  1.0379
   11MOL   H684 7904   6.704   3.610   5.225  0.2209  1.0238 -0.3957
   11MOL   H685 7905   6.698   3.710   5.359 -0.2335 -0.4902  0.0283
   11MOL   C686 7906   7.519   3.779   5.835  0.1739 -0.4182 -0.0388
   11MOL   C687 7907   7.405   3.745   5.741 -0.2536  0.2583  0.6748
   11MOL   C688 7908   7.279   3.711   5.820 -0.5629 -0.1238  0.2299
   11MOL   C689 7909   7.158   3.744   5.735 -0.5246  0.4999 -0.4826
   11MOL   C690 7910   7.028   3.698   5.797 -0.0118 -0.1021  0.1813
   11MOL   C691 7911   6.897   3.712   5.714  0.5073 -0.2838 -0.1888
   11MOL   C692 7912   6.786   3.635   5.786  0.4845 -0.4860  0.9273
   11MOL   C693 7913   6.645   3.655   5.722 -0.5798 -0.1386  0.1969
   11MOL   O694 7914   6.646   3.607   5.593  0.0168  0.1207  0.8282
   11MOL   C695 7915   6.534   3.580   5.526  0.0919  0.0278  0.6103
   11MOL   O696 7916   6.414   3.588   5.572 -0.2483 -0.1018  0.1490
   11MOL   C697 7917   6.576   3.532   5.381  0.2774  0.6959 -1.2379
   11MOL   C698 7918   6.684   3.417   5.393 -0.2243 -0.2949 -0.5723
   11MOL   C699 7919   6.465   3.462   5.313 -0.2995  0.3635 -0.2538
   11MOL   H700 7920   7.536   3.694   5.902 -0.8133  0.5000  1.4125
   11MOL   H701 7921   7.488   3.865   5.896 -0.9411  2.2324 -4.1728
   11MOL   H702 7922   7.612   3.806   5.784 -0.6245  0.7282 -0.9142
   11MOL   H703 7923   7.437   3.663   5.677 -0.1988  0.8902 -0.1128
   11MOL   H704 7924   7.378   3.829   5.677  0.8181 -0.4418 -0.7306
   11MOL   H705 7925   7.281   3.766   5.914  3.8514 -0.8042  0.6354
   11MOL   H706 7926   7.275   3.604   5.842 -0.0217 -0.7111 -2.4046
   11MOL   H707 7927   7.175   3.708   5.633 -1.1281  0.5104 -0.5904
   11MOL   H708 7928   7.151   3.852   5.727 -0.0035  0.4584 -1.6450
   11MOL   H709 7929   7.014   3.761   5.884  0.8855  1.1625 -0.5599
   11MOL   H710 7930   7.029   3.592   5.820  0.9035 -0.0722  0.2882
   11MOL   H711 7931   6.888   3.820   5.698 -1.2573 -0.0355  2.1354
   11MOL   H712 7932   6.899   3.675   5.612 -3.9666 -1.0117 -0.0920
   11MOL   H713 7933   6.799   3.529   5.804 -1.3170 -0.9132 -0.2547
   11MOL   H714 7934   6.781   3.683   5.884  1.4118  0.7199  0.4022
   11MOL   H715 7935   6.629   3.763   5.727 -0.4763 -0.1103 -0.0948
   11MOL   H716 7936   6.575   3.604   5.788 -1.8456  2.0925  0.6274
   11MOL   H717 7937   6.774   3.449   5.445  0.0519 -2.2060  0.1509
   11MOL   H718 7938   6.665   3.335   5.461  1.3724 -0.4944 -0.3395
   11MOL   H719 7939   6.714   3.396   5.290  1.7197  1.8263 -0.4982
   11MOL   H720 7940   6.494   3.427   5.214 -0.8993 -0.6202 -0.0896
   11MOL   H721 7941   6.373   3.521   5.316 -0.1457  0.5418  1.2813
   11MOL   H722 7942   6.436   3.365   5.353  0.6178  0.6140  1.0430
   12MOL     C1 7943   1.762   6.918   0.604  0.0038  0.1333  0.3955
   12MOL     C2 7944   1.720   6.827   0.491 -0.1454 -0.1071 -0.3558
   12MOL     C3 7945   1.784   6.683   0.510  1.2828  0.4642  0.0287
   12MOL     C4 7946   1.761   6.580   0.397 -0.2965 -0.0071 -0.2116
   12MOL     C5 7947   1.863   6.603   0.284 -0.0407  0.3070  0.3398
   12MOL     C6 7948   1.835   6.524   0.149 -0.2270 -0.2101 -0.1222
   12MOL     C7 7949   1.965   6.504   0.071 -0.1253 -0.1322  0.1645
   12MOL     C8 7950   1.929   6.448   7.715  0.3645  0.6902 -0.2742
   12MOL     O9 7951   1.879   6.555   7.629 -0.6758  0.2612 -0.1890
   12MOL    C10 7952   1.949   6.608   7.528  0.2149  0.2056 -0.1012
   12MOL    O11 7953   2.039   6.550   7.472 -0.1988  0.6927 -0.4115
   12MOL    C12 7954   1.897   6.751   7.488 -0.6438  0.1972  0.4163
   12MOL    C13 7955   1.743   6.765   7.504 -0.0105  0.4329 -0.5401
   12MOL    C14 7956   1.987   6.863   7.546  0.3698 -0.6794 -0.0659
   12MOL    H15 7957   1.744   7.020   0.570  1.8953  0.4648  0.3497
   12MOL    H16 7958   1.868   6.917   0.628  0.0835  1.1814  0.0751
   12MOL    H17 7959   1.715   6.894   0.700 -2.1786  1.0300 -0.4178
   12MOL    H18 7960   1.745   6.868   0.394  0.1365 -3.0106 -1.5491
   12MOL    H19 7961   1.611   6.822   0.501  0.0020  0.0992  1.6894
   12MOL    H20 7962   1.891   6.686   0.527  0.9168 -2.8085  3.7216
   12MOL    H21 7963   1.744   6.633   0.598 -0.0607  2.8404  0.8264
   12MOL    H22 7964   1.767   6.480   0.440  3.6788 -1.1467 -3.0940
   12MOL    H23 7965   1.657   6.574   0.364  0.2898  0.7846 -2.2766
   12MOL    H24 7966   1.959   6.565   0.318  0.6574  1.6535 -0.0615
   12MOL    H25 7967   1.882   6.711   0.277  1.6583 -0.1337 -2.3851
   12MOL    H26 7968   1.768   6.589   0.092  1.9291  0.3621 -2.1006
   12MOL    H27 7969   1.788   6.427   0.166  0.7489 -0.4928  1.0166
   12MOL    H28 7970   2.035   6.436   0.120  1.1346 -0.8827 -2.5784
   12MOL    H29 7971   2.021   6.597   0.074 -0.0226 -0.1361 -1.5659
   12MOL    H30 7972   1.853   6.371   7.729 -0.6302  1.5296 -0.9748
   12MOL    H31 7973   2.015   6.400   7.668  1.2383  0.5101  1.4665
   12MOL    H32 7974   1.700   6.864   7.488  2.0702  1.1492 -1.9672
   12MOL    H33 7975   1.701   6.703   7.424 -1.4895  2.0698 -1.0611
   12MOL    H34 7976   1.721   6.725   7.602  2.7586 -0.0634 -0.0766
   12MOL    H35 7977   2.079   6.809   7.569  1.3465  0.3008 -1.6067
   12MOL    H36 7978   1.940   6.888   7.641 -2.0702 -2.1486 -0.8256
   12MOL    H37 7979   1.903   6.739   7.380  1.0928 -1.3453  0.6600
   12MOL    C38 7980   1.498   6.525   7.282  0.2212 -0.0675 -0.6136
   12MOL    C39 7981   1.570   6.591   7.164 -0.0109 -0.1509 -0.3098
   12MOL    C40 7982   1.704   6.532   7.123  0.2280 -0.4052  0.1836
   12MOL    C41 7983   1.772   6.613   7.010  0.3889 -0.4877 -0.2422
   12MOL    C42 7984   1.915   6.557   6.982  0.3108  0.4775  0.5862
   12MOL    C43 7985   2.007   6.641   7.077 -0.3520  0.1604  0.4661
   12MOL    C44 7986   2.032   6.787   7.027 -0.2344 -0.1960  0.5614
   12MOL    C45 7987   2.115   6.871   7.123 -0.0336  0.0269  0.4663
   12MOL    O46 7988   2.041   6.911   7.243  0.0576 -0.5421 -0.6570
   12MOL    C47 7989   2.110   6.967   7.339  0.0588 -0.3074 -0.2070
   12MOL    O48 7990   2.234   6.981   7.346  0.2498 -0.3287  0.8426
   12MOL    C49 7991   2.019   7.000   7.469 -0.0647 -0.4236  0.0429
   12MOL    C50 7992   2.095   7.076   7.576 -0.4823 -0.4148  0.3000
   12MOL    C51 7993   1.885   7.079   7.439  0.0892  0.0701  0.0938
   12MOL    H52 7994   1.569   6.531   7.365 -1.4359  2.2533  0.7142
   12MOL    H53 7995   1.474   6.420   7.272 -0.4599  0.0675 -0.4062
   12MOL    H54 7996   1.410   6.579   7.317 -0.3707 -0.9901 -0.6890
   12MOL    H55 7997   1.587   6.694   7.195 -2.6132 -0.1515  1.2421
   12MOL    H56 7998   1.498   6.597   7.082  1.3489  1.1213 -1.4440
   12MOL    H57 7999   1.764   6.534   7.214 -1.6402  2.3561  1.4189
   12MOL    H58 8000   1.684   6.427   7.099 -1.2753  0.4788 -2.6551
   12MOL    H59 8001   1.761   6.720   7.030  0.3401 -0.8397  1.6132
   12MOL    H60 8002   1.714   6.594   6.919  1.4814  1.6347 -1.4421
   12MOL    H61 8003   1.926   6.450   6.996  1.7122  0.7964  2.0898
   12MOL    H62 8004   1.932   6.579   6.876  2.2710  2.1141  1.1946
   12MOL    H63 8005   1.969   6.633   7.178 -0.9386 -1.1305  0.1554
   12MOL    H64 8006   2.096   6.580   7.084 -0.3256  0.1313 -0.0502
   12MOL    H65 8007   1.941   6.841   7.001 -0.9610 -1.3848  0.5934
   12MOL    H66 8008   2.086   6.780   6.933 -0.1152 -0.8640  0.6820
   12MOL    H67 8009   2.140   6.955   7.059 -2.4187  1.9361  1.9341
   12MOL    H68 8010   2.205   6.816   7.148  0.5525  0.7094 -0.1337
   12MOL    H69 8011   2.180   7.021   7.616 -1.6295 -1.2214  1.6674
   12MOL    H70 8012   2.139   7.166   7.533  2.0460 -1.9128 -0.3729
   12MOL    H71 8013   2.027   7.093   7.659  2.1415  1.0547  2.1821
   12MOL    H72 8014   1.816   7.056   7.520  0.2104  2.7250  0.9909
   12MOL    H73 8015   1.834   7.033   7.354  1.3459 -0.6523 -0.2876
   12MOL    C74 8016   1.161   6.954   0.037 -0.4621  0.0621  0.1961
   12MOL    C75 8017   1.281   6.997   7.733 -0.6184  0.1001 -0.2915
   12MOL    C76 8018   1.422   7.004   0.020  0.1958 -0.1187 -0.5990
   12MOL    C77 8019   1.533   7.060   7.711  0.5203  0.1130 -0.0286
   12MOL    C78 8020   1.669   7.059   0.014 -0.0648 -0.2219 -0.3257
   12MOL    C79 8021   1.672   7.176   0.116 -0.7541  0.5921 -0.6221
   12MOL    C80 8022   1.689   7.321   0.061  0.4025 -0.2191 -0.6895
   12MOL    C81 8023   1.827   7.345   7.768 -0.3397  0.3962  0.4316
   12MOL    O82 8024   1.822   7.280   7.640  0.3102 -0.2296  0.0031
   12MOL    C83 8025   1.895   7.324   7.540 -0.1024  0.4086  0.1749
   12MOL    O84 8026   1.966   7.422   7.537  0.4553  0.1078 -0.0223
   12MOL    C85 8027   1.877   7.239   7.414 -0.5481 -0.0722 -0.0206
   12MOL    C86 8028   1.976   7.273   7.298 -0.2665  0.0282  0.4873
   12MOL    C87 8029   1.728   7.262   7.367 -0.8460 -0.1708 -0.0171
   12MOL    H88 8030   1.145   7.013   0.128 -1.9596 -2.5016  1.6892
   12MOL    H89 8031   1.178   6.847   0.046  0.4337  0.1654 -0.2036
   12MOL    H90 8032   1.069   6.957   7.759  0.2094  3.3282 -0.7849
   12MOL    H91 8033   1.254   7.074   7.661 -2.5528 -0.5351 -0.2762
   12MOL    H92 8034   1.280   6.918   7.658  0.4324  0.0502 -0.2627
   12MOL    H93 8035   1.420   7.058   0.114  1.2666 -1.5037  0.2453
   12MOL    H94 8036   1.448   6.906   0.061  0.7265  0.0164 -0.6033
   12MOL    H95 8037   1.501   7.160   7.680  0.3334 -1.0254 -3.7119
   12MOL    H96 8038   1.538   7.009   7.615  1.1264 -0.9223  0.5461
   12MOL    H97 8039   1.682   6.967   0.071  0.5876 -0.0784 -0.2394
   12MOL    H98 8040   1.757   7.068   7.730  0.3283 -2.6136 -0.1820
   12MOL    H99 8041   1.594   7.182   0.192  0.5447  2.9493  0.6070
   12MOL   H100 8042   1.765   7.142   0.163 -0.8365 -0.2531 -1.0717
   12MOL   H101 8043   1.603   7.353   0.002  1.1804  1.5997 -0.8841
   12MOL   H102 8044   1.686   7.394   0.142  3.2993  0.2631 -0.9482
   12MOL   H103 8045   1.916   7.328   0.050  0.3046 -0.4955 -0.7281
   12MOL   H104 8046   1.829   7.452   7.747 -2.5145  0.1722 -1.0578
   12MOL   H105 8047   1.961   7.374   7.260 -1.7253 -0.7179 -1.0101
   12MOL   H106 8048   1.982   7.211   7.209 -1.6599  1.0492 -0.3488
   12MOL   H107 8049   2.077   7.282   7.338  0.3013  0.0476 -0.9271
   12MOL   H108 8050   1.732   7.219   7.267  0.7426  0.4037 -0.2224
   12MOL   H109 8051   1.660   7.196   7.420 -0.1117  0.0341  1.1858
   12MOL   C110 8052   1.755   0.484   7.298  0.0496 -0.2689  0.0023
   12MOL   C111 8053   1.679   0.409   7.183 -0.9395  0.0481  0.4866
   12MOL   C112 8054   1.765   0.293   7.124  0.1355  0.5775 -0.1266
   12MOL   C113 8055   1.694   0.222   7.001 -0.4266  0.1780 -0.4343
   12MOL   C114 8056   1.769   0.134   6.907 -0.2471  0.2415 -0.6421
   12MOL   C115 8057   1.866   0.038   6.984  0.0592  0.5653  1.5686
   12MOL   C116 8058   1.780   7.725   7.074  0.3481  0.3468  0.5307
   12MOL   C117 8059   1.858   7.594   7.105  0.2318 -0.4045  0.2257
   12MOL   O118 8060   1.770   7.499   7.162 -0.0524  0.3353  0.1822
   12MOL   C119 8061   1.740   7.513   7.297 -0.1994 -0.0216  0.1077
   12MOL   O120 8062   1.776   7.621   7.354 -0.2983  0.5847  0.0871
   12MOL   C121 8063   1.653   7.395   7.354  0.0142  0.1280 -0.0864
   12MOL   C122 8064   1.608   7.440   7.492 -0.2275 -0.7994 -0.3391
   12MOL   C123 8065   1.531   7.373   7.257 -0.7491  0.7953  0.0640
   12MOL   H124 8066   1.764   0.421   7.386  0.5696  1.4002  1.1576
   12MOL   H125 8067   1.849   0.528   7.265 -1.0714  0.8542 -1.7839
   12MOL   H126 8068   1.701   0.572   7.333  0.6848 -0.4579  1.4812
   12MOL   H127 8069   1.664   0.477   7.099  0.4654 -2.0592 -1.5286
   12MOL   H128 8070   1.576   0.380   7.204 -1.3849 -0.9349 -2.7405
   12MOL   H129 8071   1.778   0.212   7.196  1.5835  1.1906  0.3211
   12MOL   H130 8072   1.861   0.337   7.097  1.5867 -1.0997  2.0568
   12MOL   H131 8073   1.605   0.168   7.035 -0.2311  0.4754  0.5769
   12MOL   H132 8074   1.663   0.303   6.935 -0.4338 -1.1078 -2.0505
   12MOL   H133 8075   1.828   0.192   6.835  0.3073  1.4926  0.7748
   12MOL   H134 8076   1.702   0.085   6.838 -0.4747 -0.4355  0.0494
   12MOL   H135 8077   1.914   7.766   6.900 -2.1754  0.9314  0.0074
   12MOL   H136 8078   1.955   0.071   7.037 -0.0344 -0.0223  2.0966
   12MOL   H137 8079   1.687   7.705   7.021 -0.7970  1.0072  2.2514
   12MOL   H138 8080   1.742   7.776   7.163  0.7713  3.5730 -1.0704
   12MOL   H139 8081   1.900   7.546   7.017 -0.9017 -0.8203 -0.1047
   12MOL   H140 8082   1.941   7.620   7.170 -2.0558  0.6937  2.7943
   12MOL   H141 8083   1.691   7.497   7.534 -0.0754 -1.3997  0.1815
   12MOL   H142 8084   1.520   7.503   7.489 -1.1075 -1.9860  0.0740
   12MOL   H143 8085   1.560   7.363   7.553 -2.0081  1.6840  1.4644
   12MOL   H144 8086   1.571   7.374   7.155 -0.6794 -0.5817  0.0766
   12MOL   H145 8087   1.474   7.465   7.273 -1.1002  0.6531 -0.3797
   12MOL   C146 8088   2.251   7.474   6.669  0.3710 -1.0088 -0.3107
   12MOL   C147 8089   2.165   7.433   6.790 -0.0025 -0.2481 -0.2374
   12MOL   C148 8090   2.060   7.328   6.751 -0.4744  0.4303 -0.1869
   12MOL   C149 8091   1.967   7.306   6.867  0.3404  0.7655  0.5669
   12MOL   C150 8092   1.889   7.173   6.854 -0.7341 -0.1420 -0.1288
   12MOL   C151 8093   1.804   7.136   6.980 -0.1703  0.0727 -0.1198
   12MOL   C152 8094   1.698   7.029   6.939 -0.4297 -0.7899  0.4582
   12MOL   C153 8095   1.614   6.994   7.064 -0.4765 -0.0761 -0.0926
   12MOL   O154 8096   1.532   7.100   7.100 -0.2296  0.3308 -0.0573
   12MOL   C155 8097   1.484   7.117   7.222 -0.6131  0.2238 -0.1688
   12MOL   O156 8098   1.509   7.040   7.318 -0.3082 -0.4310  0.0402
   12MOL   C157 8099   1.422   7.258   7.255  0.1067  0.8682 -0.0571
   12MOL   C158 8100   1.355   7.245   7.393 -0.2251  0.1299 -0.2525
   12MOL   C159 8101   1.317   7.288   7.147 -0.2516 -0.3148  0.0626
   12MOL   H160 8102   2.276   7.579   6.687 -1.5188 -0.6510  0.3160
   12MOL   H161 8103   2.202   7.463   6.573  1.8660 -2.9520 -0.8886
   12MOL   H162 8104   2.349   7.426   6.674  1.3644  0.9724 -0.0473
   12MOL   H163 8105   2.224   7.387   6.870 -1.0605  1.0005  1.2828
   12MOL   H164 8106   2.102   7.512   6.829  0.1246 -0.8194  1.1469
   12MOL   H165 8107   2.105   7.231   6.730  1.0234  0.6024  2.1199
   12MOL   H166 8108   2.003   7.356   6.662  1.1999 -0.8971 -1.7097
   12MOL   H167 8109   2.036   7.292   6.951 -2.4927 -4.0968  2.2684
   12MOL   H168 8110   1.899   7.389   6.884  0.2329  1.3117 -2.3057
   12MOL   H169 8111   1.959   7.093   6.831 -0.0500  0.9406 -1.9312
   12MOL   H170 8112   1.824   7.185   6.767 -1.4142 -1.8294  0.1204
   12MOL   H171 8113   1.754   7.232   6.994 -0.5642 -0.2123  0.4783
   12MOL   H172 8114   1.875   7.107   7.057  0.0066  0.4582 -0.1348
   12MOL   H173 8115   1.647   7.072   6.853 -0.5976 -0.2300  0.8423
   12MOL   H174 8116   1.760   6.941   6.917 -1.3923 -1.3989  0.1309
   12MOL   H175 8117   1.560   6.900   7.047 -1.4663  0.1863  1.4721
   12MOL   H176 8118   1.680   6.973   7.148  2.2514  0.3001 -2.0789
   12MOL   H177 8119   1.410   7.218   7.484  0.1780 -0.7237 -0.7513
   12MOL   H178 8120   1.275   7.172   7.387  1.7574 -2.2438  1.0622
   12MOL   H179 8121   1.301   7.337   7.417  1.7536  1.1741  0.3594
   12MOL   H180 8122   1.372   7.272   7.055  0.1102 -0.9799  0.3904
   12MOL   H181 8123   1.311   7.397   7.148  2.2803 -0.1245 -1.2563
   12MOL   C182 8124   0.226   6.763   7.455  0.8541  0.0298  0.8918
   12MOL   C183 8125   0.302   6.893   7.406  0.0956  0.4799 -0.2015
   12MOL   C184 8126   0.387   6.959   7.518 -0.3108  0.3884  0.3274
   12MOL   C185 8127   0.487   7.062   7.462 -0.4343  0.0612  0.2987
   12MOL   C186 8128   0.603   7.089   7.561 -0.1945  0.0920 -0.7165
   12MOL   C187 8129   0.686   7.217   7.527  0.1998  0.0352  0.7699
   12MOL   C188 8130   0.784   7.197   7.409  0.1892  0.0026  0.1108
   12MOL   C189 8131   0.897   7.290   7.400 -0.1915  0.0853  0.0126
   12MOL   O190 8132   0.988   7.235   7.304 -0.2790 -0.3579 -0.2091
   12MOL   C191 8133   1.076   7.312   7.246  0.3606  0.4364 -0.0644
   12MOL   O192 8134   1.080   7.434   7.269  0.3300 -0.3832  0.0487
   12MOL   C193 8135   1.169   7.238   7.137 -0.0475 -0.4484  0.2672
   12MOL   C194 8136   1.163   7.085   7.147 -0.5647 -0.3578 -0.3678
   12MOL   C195 8137   1.132   7.290   6.991 -0.3410 -0.0582  0.3364
   12MOL   H196 8138   0.166   6.716   7.377 -0.6359  0.4605  1.7610
   12MOL   H197 8139   0.286   6.681   7.492 -1.6970 -2.7892 -0.9496
   12MOL   H198 8140   0.170   6.797   7.542 -0.7052 -1.1177  0.3758
   12MOL   H199 8141   0.228   6.962   7.366 -1.9320 -0.8706  1.0829
   12MOL   H200 8142   0.371   6.866   7.326  1.1078  0.9206  0.5168
   12MOL   H201 8143   0.318   7.014   7.581 -0.6229 -0.4425  0.7186
   12MOL   H202 8144   0.438   6.878   7.570 -0.9353 -1.2584 -1.5533
   12MOL   H203 8145   0.543   7.029   7.374  0.4137 -2.3019  1.6781
   12MOL   H204 8146   0.455   7.159   7.426 -1.0770  0.8782  2.9554
   12MOL   H205 8147   0.664   7.000   7.577 -0.3274  0.4445  2.0313
   12MOL   H206 8148   0.544   7.115   7.649  1.9705 -3.4974  1.9399
   12MOL   H207 8149   0.744   7.245   7.615  2.4720 -2.1923  0.0251
   12MOL   H208 8150   0.624   7.305   7.513  1.0804  0.3535 -1.2903
   12MOL   H209 8151   0.818   7.094   7.421 -0.2258 -0.2964 -1.2144
   12MOL   H210 8152   0.733   7.202   7.313  1.9104 -0.8665 -0.8713
   12MOL   H211 8153   0.952   7.292   7.494 -1.5566  0.1865  0.8225
   12MOL   H212 8154   0.858   7.387   7.369 -0.8895  0.0546  0.7619
   12MOL   H213 8155   1.201   7.046   7.052  0.3314  1.9437 -0.9879
   12MOL   H214 8156   1.235   7.048   7.220 -0.8236  1.2539  0.7142
   12MOL   H215 8157   1.069   7.045   7.183  0.0995 -1.3237  0.3239
   12MOL   H216 8158   1.160   7.394   6.977 -1.5537  0.3015  0.5154
   12MOL   H217 8159   1.197   7.223   6.934  0.1662  0.6096  0.1090
   12MOL   C218 8160   0.834   0.626   7.043 -1.0593  0.2576  0.0578
   12MOL   C219 8161   0.851   0.490   7.102 -0.8112  0.8933 -0.5420
   12MOL   C220 8162   0.871   0.374   7.007  0.2696  0.0632  0.0954
   12MOL   C221 8163   0.866   0.239   7.089  0.2817  0.4473  0.4582
   12MOL   C222 8164   0.953   0.132   7.028  0.0282  0.0004  0.0612
   12MOL   C223 8165   0.943   7.774   7.090 -0.2819 -0.0685 -0.1661
   12MOL   C224 8166   0.814   7.690   7.060  0.0468 -0.5812  0.2184
   12MOL   C225 8167   0.813   7.546   7.118  0.1237 -0.3077  0.7689
   12MOL   O226 8168   0.898   7.468   7.041 -0.2292 -0.7196  0.0316
   12MOL   C227 8169   0.876   7.336   7.014 -0.0431 -0.1516  0.4369
   12MOL   O228 8170   0.774   7.280   7.052 -0.3916  0.3018 -0.1142
   12MOL   C229 8171   0.985   7.266   6.927 -0.5640 -0.0916  0.5474
   12MOL   C230 8172   0.958   7.111   6.920  0.9144  0.6812  0.8223
   12MOL   C231 8173   0.985   7.345   6.784  0.0929 -0.0553 -0.4096
   12MOL   H232 8174   0.897   0.627   6.954  0.3290  1.1245  1.0276
   12MOL   H233 8175   0.880   0.704   7.105 -1.1374  1.7288 -1.6949
   12MOL   H234 8176   0.728   0.651   7.046 -0.8042  2.1902 -3.7508
   12MOL   H235 8177   0.760   0.473   7.160 -0.1109  1.8864  0.8899
   12MOL   H236 8178   0.930   0.497   7.177 -2.2852  1.9448  0.9547
   12MOL   H237 8179   0.793   0.371   6.930 -1.3251  2.5018  1.5646
   12MOL   H238 8180   0.968   0.395   6.962  0.1146 -0.9923 -0.7762
   12MOL   H239 8181   0.905   0.248   7.190 -0.9933  0.1318  0.9932
   12MOL   H240 8182   0.763   0.207   7.103  0.5519 -0.1577  1.0745
   12MOL   H241 8183   0.937   0.122   6.921  0.0333 -0.1012  0.0708
   12MOL   H242 8184   1.058   0.158   7.035  0.7959 -2.2194 -2.4829
   12MOL   H243 8185   1.021   7.712   7.047 -0.5682  0.4341 -1.4075
   12MOL   H244 8186   0.975   7.763   7.194  2.8839 -0.9884 -1.1614
   12MOL   H245 8187   0.800   7.674   6.953 -0.4623 -2.9918  0.6193
   12MOL   H246 8188   0.725   7.746   7.087 -0.0185  1.3801 -3.7510
   12MOL   H247 8189   0.714   7.503   7.125 -0.1552  0.3120  0.6460
   12MOL   H248 8190   0.846   7.553   7.221 -0.1784 -0.2347  0.8591
   12MOL   H249 8191   0.929   7.073   7.018  0.8646  0.2697  0.6481
   12MOL   H250 8192   1.041   7.053   6.880  1.0679 -0.0577  2.1888
   12MOL   H251 8193   0.870   7.084   6.862  0.6546  3.2990 -0.0562
   12MOL   H252 8194   0.983   7.451   6.809 -0.6499 -0.1237 -0.1719
   12MOL   H253 8195   1.082   7.332   6.736  1.2044  1.5475  1.3286
   12MOL   C254 8196   1.586   0.255   6.418 -0.0200  0.1640  0.4618
   12MOL   C255 8197   1.474   0.157   6.441 -0.0503  0.7359 -0.1628
   12MOL   C256 8198   1.339   0.221   6.488 -0.0820 -0.5990  0.1337
   12MOL   C257 8199   1.218   0.127   6.500 -0.4487  0.7452 -0.1248
   12MOL   C258 8200   1.089   0.200   6.536 -0.6360 -0.3538 -0.2164
   12MOL   C259 8201   0.969   0.110   6.509  0.1346  0.8308 -0.5066
   12MOL   C260 8202   0.951   7.764   6.600 -0.9918 -0.3963 -0.3801
   12MOL   C261 8203   0.835   7.679   6.550  0.6652 -0.1855 -0.2649
   12MOL   O262 8204   0.831   7.560   6.621 -0.0840  0.0157 -0.0521
   12MOL   C263 8205   0.889   7.455   6.572  0.0600 -0.2218 -0.1483
   12MOL   O264 8206   0.958   7.461   6.471  0.0164  0.4531  0.6443
   12MOL   C265 8207   0.883   7.329   6.663 -0.3456 -0.1728 -0.0292
   12MOL   C266 8208   0.743   7.312   6.712 -0.7994  0.4795  0.1478
   12MOL   C267 8209   0.925   7.196   6.588  0.4164 -0.2125 -0.2257
   12MOL   H268 8210   1.674   0.203   6.378 -0.3522  0.7762 -1.0928
   12MOL   H269 8211   1.556   0.331   6.346  0.5803 -0.6662 -0.6857
   12MOL   H270 8212   1.616   0.296   6.514 -0.8134  3.1306 -0.5243
   12MOL   H271 8213   1.462   0.097   6.351  2.2689  1.6567 -1.1361
   12MOL   H272 8214   1.516   0.083   6.510 -3.3081 -0.8774  0.1503
   12MOL   H273 8215   1.320   0.301   6.416  0.8545  0.6795  1.2675
   12MOL   H274 8216   1.342   0.281   6.579  0.8094 -0.2152 -0.1390
   12MOL   H275 8217   1.243   0.052   6.576 -0.6661  0.6313 -0.1637
   12MOL   H276 8218   1.204   0.066   6.411  0.7382 -0.7883  0.7213
   12MOL   H277 8219   1.092   0.223   6.642  0.5489 -2.4521  0.2305
   12MOL   H278 8220   1.070   0.288   6.474  0.1636  0.9799  1.4085
   12MOL   H279 8221   0.967   0.073   6.407 -3.1130  0.9123 -0.5221
   12MOL   H280 8222   0.883   0.175   6.517  1.0970  2.2342 -1.3755
   12MOL   H281 8223   1.045   7.710   6.605 -0.5765  0.3545 -0.1388
   12MOL   H282 8224   0.935   0.019   6.702 -0.3589 -2.1902  0.3548
   12MOL   H283 8225   0.741   7.732   6.561  1.2472  1.0477 -1.2268
   12MOL   H284 8226   0.831   7.671   6.442  1.3833 -0.6514 -0.2691
   12MOL   H285 8227   0.734   7.225   6.779  2.5888 -0.7561 -0.8991
   12MOL   H286 8228   0.704   7.401   6.762 -2.9396 -0.1730 -0.2942
   12MOL   H287 8229   0.675   7.320   6.627 -2.3387  1.7284  1.4679
   12MOL   H288 8230   0.963   7.127   6.663 -0.1790  0.1860  0.4463
   12MOL   H289 8231   1.012   7.229   6.532  1.5947 -1.8983  0.5852
   12MOL   C290 8232   1.123   6.696   7.401 -1.1151  0.4021 -1.0059
   12MOL   C291 8233   1.056   6.793   7.306  0.1883 -0.0651 -0.0599
   12MOL   C292 8234   0.924   6.737   7.254  0.7535  0.5603  0.6070
   12MOL   C293 8235   0.847   6.817   7.149 -0.1153 -0.0035 -0.4412
   12MOL   C294 8236   0.728   6.746   7.090 -0.5276 -0.0065 -0.4679
   12MOL   C295 8237   0.661   6.815   6.977 -0.4629 -0.0636  0.0016
   12MOL   C296 8238   0.738   6.809   6.837 -0.1141  0.7207 -0.0022
   12MOL   C297 8239   0.672   6.901   6.727 -0.1837  0.1823  0.2477
   12MOL   O298 8240   0.765   6.960   6.641 -0.7340  0.1893  0.0151
   12MOL   C299 8241   0.724   7.053   6.549  0.7947 -0.3416 -0.2669
   12MOL   O300 8242   0.606   7.078   6.528 -0.0620  0.1078  0.2402
   12MOL   C301 8243   0.836   7.125   6.479  0.1679  0.0056 -0.0649
   12MOL   C302 8244   0.779   7.223   6.374 -0.0786  0.6346 -0.6465
   12MOL   C303 8245   0.941   7.028   6.414 -0.9702 -0.2806 -0.1561
   12MOL   H304 8246   1.214   6.743   7.439 -0.1272 -0.5541 -2.1993
   12MOL   H305 8247   1.157   6.602   7.360 -0.8793  0.5418 -1.1287
   12MOL   H306 8248   1.062   6.663   7.485 -1.4008 -0.4027 -1.5237
   12MOL   H307 8249   1.122   6.809   7.220  1.7688  0.6904  1.2729
   12MOL   H308 8250   1.038   6.885   7.361  0.5813 -0.4415  0.7092
   12MOL   H309 8251   0.856   6.712   7.335  3.9748  0.2108  3.3386
   12MOL   H310 8252   0.938   6.641   7.204  0.1704  1.0147 -0.4526
   12MOL   H311 8253   0.820   6.914   7.192  0.9189 -0.6859  1.7740
   12MOL   H312 8254   0.912   6.840   7.065  3.0630 -0.6951  1.7724
   12MOL   H313 8255   0.766   6.648   7.060 -2.2375 -0.7417 -0.3226
   12MOL   H314 8256   0.661   6.737   7.175 -0.2321 -1.6242 -0.3752
   12MOL   H315 8257   0.651   6.922   6.997  1.2357 -0.2264  1.9353
   12MOL   H316 8258   0.558   6.782   6.968 -0.4012  0.4261 -2.7462
   12MOL   H317 8259   0.744   6.709   6.794  0.8761  0.9636 -0.4239
   12MOL   H318 8260   0.843   6.835   6.839 -0.3629  1.7955 -0.3114
   12MOL   H319 8261   0.617   6.976   6.784 -2.4741  0.0112 -1.6676
   12MOL   H320 8262   0.603   6.844   6.665 -0.7405  0.9158  0.1824
   12MOL   H321 8263   0.855   7.273   6.313  0.3414  1.7355  0.7569
   12MOL   H322 8264   0.713   7.296   6.420 -0.3207  0.1840 -0.2741
   12MOL   H323 8265   0.713   7.175   6.302 -0.5877  2.7191 -1.6034
   12MOL   H324 8266   0.985   7.090   6.336 -1.9314  0.1366 -0.3765
   12MOL   H325 8267   1.027   7.009   6.478 -1.2355 -0.2275  0.2209
   12MOL   C326 8268   1.489   6.216   7.022 -0.0266  0.7482 -0.4925
   12MOL   C327 8269   1.429   6.327   6.935 -0.1075  0.2558 -0.1479
   12MOL   C328 8270   1.281   6.360   6.967  0.5691 -0.8050  0.5906
   12MOL   C329 8271   1.197   6.415   6.848 -0.5807 -0.3105  0.2645
   12MOL   C330 8272   1.058   6.455   6.889  0.8292 -0.1670  0.2147
   12MOL   C331 8273   0.958   6.484   6.765 -0.3512  0.4764  0.0900
   12MOL   C332 8274   0.996   6.608   6.683 -0.1331 -0.4826  0.4035
   12MOL   C333 8275   0.913   6.615   6.549  0.2015 -0.4251 -0.2865
   12MOL   O334 8276   0.951   6.738   6.484  0.2619  0.3269 -0.3524
   12MOL   C335 8277   0.859   6.789   6.396 -0.4076  0.4629 -0.7134
   12MOL   O336 8278   0.747   6.742   6.381  0.1721 -0.7679  0.2642
   12MOL   C337 8279   0.916   6.910   6.312 -0.6312  0.2818 -0.0043
   12MOL   C338 8280   0.806   6.935   6.208  0.5449 -0.3400  0.2689
   12MOL   C339 8281   1.061   6.865   6.255  0.4014  0.1246  0.6620
   12MOL   H340 8282   1.493   6.239   7.128  0.3879  0.0217 -0.3466
   12MOL   H341 8283   1.595   6.214   6.997 -0.0271  0.0606 -0.4571
   12MOL   H342 8284   1.446   6.119   6.997  1.9679 -0.0857 -0.7637
   12MOL   H343 8285   1.426   6.303   6.829 -2.8541 -0.8035  0.1323
   12MOL   H344 8286   1.502   6.408   6.943  1.9925 -1.3531 -2.0696
   12MOL   H345 8287   1.285   6.439   7.043 -2.0406  0.2924 -0.3690
   12MOL   H346 8288   1.232   6.274   7.012  1.7077 -0.4810  2.5316
   12MOL   H347 8289   1.199   6.351   6.760 -0.1773 -0.0251  0.0678
   12MOL   H348 8290   1.247   6.507   6.818  1.7508 -1.8171 -0.5573
   12MOL   H349 8291   1.013   6.389   6.963 -0.4887  1.0680  0.5376
   12MOL   H350 8292   1.063   6.548   6.945  0.3456  0.6457 -1.0987
   12MOL   H351 8293   0.960   6.395   6.702  1.7344  1.4105 -1.2302
   12MOL   H352 8294   0.858   6.495   6.807 -0.4261  2.1984 -0.5000
   12MOL   H353 8295   1.105   6.602   6.673 -0.2907 -0.7609 -1.3393
   12MOL   H354 8296   0.975   6.700   6.738 -1.6722 -1.4522  1.4613
   12MOL   H355 8297   0.947   6.527   6.493 -0.5295 -0.9359  0.0585
   12MOL   H356 8298   0.806   6.611   6.569  0.5072 -2.2148  1.2074
   12MOL   H357 8299   0.709   6.951   6.255 -0.3708  2.1196 -2.2474
   12MOL   H358 8300   0.816   7.025   6.147  0.3725 -0.8240 -0.4936
   12MOL   H359 8301   0.798   6.850   6.140 -2.8676  0.3421 -0.2669
   12MOL   H360 8302   1.138   6.869   6.331  0.0183 -0.4122  1.0858
   12MOL   H361 8303   1.049   6.758   6.235  0.7099  0.3077 -0.5661
   12MOL   C362 8304   1.287   6.754   6.928 -0.0894 -0.5196  0.7145
   12MOL   C363 8305   1.403   6.750   6.830 -0.6428  0.1533 -0.2573
   12MOL   C364 8306   1.409   6.860   6.718 -0.8141  0.0321 -0.3935
   12MOL   C365 8307   1.365   7.003   6.765  0.2114  0.1650 -0.1562
   12MOL   C366 8308   1.416   7.103   6.667 -0.3708  0.1417 -0.2662
   12MOL   C367 8309   1.319   7.122   6.553  0.1714 -0.0522 -0.0538
   12MOL   C368 8310   1.373   7.204   6.440  0.5035  0.2365  0.3264
   12MOL   C369 8311   1.269   7.219   6.326  0.0902  0.4902  0.3790
   12MOL   O370 8312   1.226   7.091   6.279 -0.2211  0.0728 -0.1975
   12MOL   C371 8313   1.163   7.079   6.157 -0.0172 -0.1533  0.3344
   12MOL   O372 8314   1.144   7.174   6.079  0.1471 -0.6926 -0.0254
   12MOL   C373 8315   1.123   6.930   6.124  0.0975  0.4237 -0.1785
   12MOL   C374 8316   1.026   6.929   6.007  0.3901 -0.0742  0.1889
   12MOL   C375 8317   1.237   6.843   6.060  0.3161  0.2451 -0.1384
   12MOL   H376 8318   1.277   6.843   6.991 -0.1397  0.5291 -0.7603
   12MOL   H377 8319   1.198   6.739   6.868  1.5056 -2.3372 -1.2856
   12MOL   H378 8320   1.286   6.668   6.995 -2.5966  0.9984  2.7149
   12MOL   H379 8321   1.407   6.652   6.782  0.5627 -0.3833  0.9159
   12MOL   H380 8322   1.501   6.760   6.878 -1.2683 -0.6207  1.2077
   12MOL   H381 8323   1.344   6.829   6.635  1.3415 -2.6125 -1.1650
   12MOL   H382 8324   1.508   6.857   6.672 -0.6763 -2.6128 -0.0422
   12MOL   H383 8325   1.398   7.032   6.864  0.2709 -1.0570  0.1935
   12MOL   H384 8326   1.257   7.010   6.777 -0.2621 -3.2629 -1.7431
   12MOL   H385 8327   1.438   7.200   6.711  1.3222  0.6218 -2.0762
   12MOL   H386 8328   1.510   7.066   6.626  1.1241  0.8813  2.4230
   12MOL   H387 8329   1.234   7.181   6.588  1.1220  0.3667  1.5757
   12MOL   H388 8330   1.286   7.031   6.502  0.1010  0.3903 -0.8100
   12MOL   H389 8331   1.463   7.150   6.410  0.5475 -0.2657  1.3502
   12MOL   H390 8332   1.397   7.307   6.467 -1.2808  0.4589  1.1287
   12MOL   H391 8333   1.187   7.278   6.365 -0.8429  0.4049 -1.4056
   12MOL   H392 8334   1.316   7.282   6.250  1.4884  0.2218  1.0006
   12MOL   H393 8335   1.072   6.941   5.910 -2.5790  1.8967 -1.0598
   12MOL   H394 8336   0.966   6.838   6.007  0.2353  0.0200  0.8728
   12MOL   H395 8337   0.955   7.012   6.015 -1.1902 -1.3656 -0.0902
   12MOL   H396 8338   1.194   6.744   6.043 -0.5586  0.4755  0.6295
   12MOL   H397 8339   1.268   6.877   5.962 -0.5476 -0.5672 -0.6959
   12MOL   C398 8340   1.897   6.125   6.832  0.3106  0.6753 -0.3982
   12MOL   C399 8341   1.847   6.247   6.761 -0.0399  0.0047 -0.0641
   12MOL   C400 8342   1.726   6.227   6.672 -0.0517 -0.3632  0.7325
   12MOL   C401 8343   1.675   6.362   6.605 -0.4851  0.1418  0.4334
   12MOL   C402 8344   1.528   6.345   6.546 -0.4616 -0.0777 -0.2116
   12MOL   C403 8345   1.463   6.476   6.494 -0.5233  0.3657 -0.6348
   12MOL   C404 8346   1.320   6.451   6.434  0.0445 -0.2585 -0.4757
   12MOL   C405 8347   1.247   6.588   6.408 -0.4417 -0.1754 -0.4155
   12MOL   O406 8348   1.285   6.647   6.281 -0.4036 -0.1545 -0.4469
   12MOL   C407 8349   1.360   6.755   6.275  0.0976 -0.0005 -0.5610
   12MOL   O408 8350   1.392   6.814   6.376 -0.2630 -0.3793 -0.5056
   12MOL   C409 8351   1.376   6.821   6.133 -1.0610 -0.3242 -0.4163
   12MOL   C410 8352   1.441   6.708   6.057  0.1255  0.1465 -0.6077
   12MOL   C411 8353   1.467   6.952   6.117  0.5930  0.1539 -0.1370
   12MOL   H412 8354   1.967   6.144   6.914  1.5916 -1.0858 -1.0566
   12MOL   H413 8355   1.937   6.061   6.754  2.1004  1.4175 -0.1141
   12MOL   H414 8356   1.813   6.063   6.864 -0.9754  1.9918 -1.1911
   12MOL   H415 8357   1.926   6.299   6.706 -1.6175  0.3266 -2.0497
   12MOL   H416 8358   1.810   6.317   6.835 -0.3575  0.9403 -1.1078
   12MOL   H417 8359   1.753   6.159   6.591 -0.3970  1.1135 -0.6470
   12MOL   H418 8360   1.645   6.175   6.723 -2.4366  1.1075 -1.4636
   12MOL   H419 8361   1.753   6.401   6.540 -1.2092 -0.2566 -0.6924
   12MOL   H420 8362   1.665   6.439   6.681  0.7094 -0.7919  1.5553
   12MOL   H421 8363   1.537   6.268   6.469 -1.8449  0.1033 -0.5721
   12MOL   H422 8364   1.460   6.295   6.615  0.8670 -1.6413  0.0135
   12MOL   H423 8365   1.524   6.528   6.420 -0.2076  1.4406  0.3587
   12MOL   H424 8366   1.467   6.547   6.577  0.1848 -0.3756 -0.0253
   12MOL   H425 8367   1.322   6.386   6.347 -0.4836  0.3989 -0.9829
   12MOL   H426 8368   1.258   6.409   6.513  0.7293 -0.6371 -0.1379
   12MOL   H427 8369   1.140   6.570   6.423 -0.3516 -0.4357 -0.0945
   12MOL   H428 8370   1.266   6.643   6.500 -2.0115 -0.8447  0.3243
   12MOL   H429 8371   1.444   6.735   5.952 -0.7275  1.1783 -0.3763
   12MOL   H430 8372   1.396   6.608   6.060 -0.1066  0.1764 -2.4095
   12MOL   H431 8373   1.540   6.700   6.101  0.5682  0.8866 -1.4746
   12MOL   H432 8374   1.452   7.001   6.213  0.1253  0.1669 -0.2144
   12MOL   H433 8375   1.417   7.009   6.038  0.8001  0.8612  0.2389
   12MOL   C434 8376   1.764   6.484   5.129  0.4108  0.6309  0.0907
   12MOL   C435 8377   1.623   6.539   5.148 -0.2183 -0.4620 -0.3073
   12MOL   C436 8378   1.595   6.621   5.277 -0.0825 -0.4725  0.5161
   12MOL   C437 8379   1.673   6.758   5.262  0.0741 -0.4703 -0.0368
   12MOL   C438 8380   1.656   6.867   5.373  0.4564  0.5313 -0.0733
   12MOL   C439 8381   1.691   6.816   5.517 -0.0937 -0.0045  0.5144
   12MOL   C440 8382   1.654   6.914   5.635 -0.5215  0.2765  0.6250
   12MOL   C441 8383   1.711   6.858   5.768  0.5983  0.2834 -0.0139
   12MOL   O442 8384   1.677   6.935   5.884  0.5684 -0.4881 -0.6196
   12MOL   C443 8385   1.693   6.876   5.999 -0.2102  0.4495 -0.1920
   12MOL   O444 8386   1.758   6.775   6.015 -0.5503  0.0644 -0.0408
   12MOL   C445 8387   1.625   6.952   6.119 -0.1684 -0.7215 -0.0998
   12MOL   C446 8388   1.682   6.900   6.253  0.4335  0.2700  0.6270
   12MOL   C447 8389   1.655   7.104   6.115  0.2254  0.1436 -0.5068
   12MOL   H448 8390   1.800   6.434   5.218  0.4297  0.2449 -0.1338
   12MOL   H449 8391   1.829   6.569   5.109 -0.8410  1.2629 -1.4653
   12MOL   H450 8392   1.777   6.413   5.047  1.7008  1.3787 -0.3639
   12MOL   H451 8393   1.554   6.455   5.140 -0.7768  0.0819 -1.2988
   12MOL   H452 8394   1.595   6.594   5.059  1.0749  0.1799 -0.3314
   12MOL   H453 8395   1.630   6.567   5.364  0.8315 -1.9790 -0.7532
   12MOL   H454 8396   1.489   6.635   5.295 -0.8492 -3.7563 -1.0845
   12MOL   H455 8397   1.674   6.798   5.160 -4.1927 -0.9757 -0.3517
   12MOL   H456 8398   1.779   6.734   5.266  0.1062 -0.0771  2.4135
   12MOL   H457 8399   1.716   6.956   5.357  0.4082  0.3244 -1.5121
   12MOL   H458 8400   1.552   6.901   5.371  0.5627  0.8565 -2.8948
   12MOL   H459 8401   1.799   6.803   5.507 -0.0041  2.8066 -3.8223
   12MOL   H460 8402   1.658   6.713   5.528  2.1589 -0.9498 -1.1018
   12MOL   H461 8403   1.705   7.009   5.622  0.3176 -0.4375 -1.5159
   12MOL   H462 8404   1.547   6.926   5.652 -0.5088 -0.4632  1.2745
   12MOL   H463 8405   1.817   6.883   5.765  0.4601  0.8553 -0.1702
   12MOL   H464 8406   1.683   6.753   5.779 -0.2516  0.4404 -0.6808
   12MOL   H465 8407   1.671   6.793   6.270  0.3224  0.1212 -0.3602
   12MOL   H466 8408   1.790   6.908   6.271  0.6557  0.4079 -0.7306
   12MOL   H467 8409   1.639   6.955   6.337 -0.6781  1.2410 -0.5619
   12MOL   H468 8410   1.614   7.138   6.020 -0.9534 -0.3865 -0.1952
   12MOL   H469 8411   1.593   7.153   6.190  0.3390  0.7660 -0.8140
   12MOL   C470 8412   2.657   7.015   6.868 -0.1408 -0.7131  0.3235
   12MOL   C471 8413   2.519   7.054   6.919  0.4153  0.5797  0.7185
   12MOL   C472 8414   2.395   7.006   6.837 -0.6503  0.0524  0.4204
   12MOL   C473 8415   2.376   7.076   6.693 -0.1184 -0.3553 -0.2572
   12MOL   C474 8416   2.268   7.020   6.594 -0.1021  0.0631 -0.2346
   12MOL   C475 8417   2.285   7.097   6.463  0.5721 -0.1874 -0.7658
   12MOL   C476 8418   2.179   7.085   6.355  0.2862  0.6357  0.3348
   12MOL   C477 8419   2.044   7.147   6.391 -0.0782  0.3549 -0.8628
   12MOL   O478 8420   1.981   7.145   6.271 -0.4329  0.1765 -0.2387
   12MOL   C479 8421   1.848   7.172   6.263  0.1248  0.3910  0.3329
   12MOL   O480 8422   1.777   7.190   6.361  0.4554 -0.2552 -0.1387
   12MOL   C481 8423   1.794   7.180   6.122  0.1425 -0.0964 -0.2225
   12MOL   C482 8424   1.906   7.114   6.022  0.2980 -0.1592  0.0843
   12MOL   C483 8425   1.764   7.328   6.081 -0.3733 -0.0404 -0.4054
   12MOL   H484 8426   2.657   6.908   6.853 -0.1609 -0.5831 -0.6108
   12MOL   H485 8427   2.724   7.042   6.949  1.2447 -2.3046 -0.2872
   12MOL   H486 8428   2.677   7.064   6.773 -1.3042 -1.3009 -0.2396
   12MOL   H487 8429   2.497   7.012   7.017 -3.4092 -1.2077 -0.7899
   12MOL   H488 8430   2.526   7.163   6.923  0.7699  0.5212  1.7466
   12MOL   H489 8431   2.391   6.900   6.810 -3.4270  0.4869 -1.0967
   12MOL   H490 8432   2.301   7.021   6.891 -1.1409 -1.5088  0.0296
   12MOL   H491 8433   2.358   7.182   6.707 -2.4389 -0.9605  1.4888
   12MOL   H492 8434   2.475   7.064   6.649  0.3597  0.3160  0.6183
   12MOL   H493 8435   2.284   6.915   6.568  0.0250 -0.0599  0.3257
   12MOL   H494 8436   2.167   7.017   6.633  0.5842 -0.0038  1.5900
   12MOL   H495 8437   2.278   7.200   6.498 -0.1036 -0.9006  1.2264
   12MOL   H496 8438   2.386   7.074   6.431  0.6024 -2.0843  0.6096
   12MOL   H497 8439   2.212   7.124   6.259 -1.2106  0.6593 -0.1854
   12MOL   H498 8440   2.168   6.982   6.319 -0.6740  0.6130  0.6702
   12MOL   H499 8441   2.055   7.244   6.438  0.9553 -0.2596  0.1846
   12MOL   H500 8442   2.003   7.078   6.465  1.7899 -2.0824 -2.0043
   12MOL   H501 8443   2.001   7.168   6.022  0.8285 -0.9585 -3.0049
   12MOL   H502 8444   1.866   7.115   5.921 -0.7471 -0.5105  0.4933
   12MOL   H503 8445   1.944   7.015   6.044  0.7514 -0.1113 -0.4718
   12MOL   H504 8446   1.747   7.321   5.973 -1.8845 -0.3972 -0.1628
   12MOL   H505 8447   1.667   7.350   6.126  0.5249  2.5311  0.3341
   12MOL   C506 8448   1.326   7.778   6.805  0.5868 -0.1117  0.5376
   12MOL   C507 8449   1.262   7.637   6.805  0.4139  0.4199  0.2456
   12MOL   C508 8450   1.357   7.527   6.755 -0.4777  0.1928  0.3626
   12MOL   C509 8451   1.482   7.497   6.836 -0.3427  0.0461 -0.0672
   12MOL   C510 8452   1.586   7.426   6.745 -0.2673 -0.2284 -0.3507
   12MOL   C511 8453   1.680   7.516   6.655  0.4474 -0.1819  0.8761
   12MOL   C512 8454   1.738   7.434   6.536 -0.2362  0.0866 -0.5057
   12MOL   C513 8455   1.832   7.529   6.464 -0.1452 -0.0693 -0.3771
   12MOL   O514 8456   1.823   7.498   6.321  0.0820 -0.1755 -0.4058
   12MOL   C515 8457   1.914   7.462   6.235 -0.5447  0.1387  0.0674
   12MOL   O516 8458   2.035   7.454   6.266  0.0361 -0.3826 -0.3444
   12MOL   C517 8459   1.866   7.449   6.087  0.0113  0.4920 -0.0552
   12MOL   C518 8460   1.983   7.421   5.986 -0.2183 -0.3461 -0.5207
   12MOL   C519 8461   1.784   7.571   6.032 -0.5360 -0.2697 -0.3635
   12MOL   H520 8462   1.395   0.016   6.723 -1.8269 -1.9537 -2.0161
   12MOL   H521 8463   1.387   0.006   6.895  0.8953  0.2977  0.2881
   12MOL   H522 8464   1.257   0.076   6.839  1.3256  0.3111  1.0942
   12MOL   H523 8465   1.183   7.652   6.731 -0.2728 -0.2411  0.8259
   12MOL   H524 8466   1.204   7.622   6.896 -1.8715  0.1261 -1.2046
   12MOL   H525 8467   1.297   7.438   6.740 -1.7440  0.8470  1.4283
   12MOL   H526 8468   1.380   7.549   6.651 -0.0631 -0.0183  0.4110
   12MOL   H527 8469   1.523   7.591   6.872 -2.7375  0.7194  0.9556
   12MOL   H528 8470   1.441   7.442   6.921 -0.8228 -0.9397 -0.9275
   12MOL   H529 8471   1.647   7.375   6.820  2.6472  1.2461 -1.6024
   12MOL   H530 8472   1.550   7.347   6.681  2.3120  0.1528 -2.3411
   12MOL   H531 8473   1.760   7.564   6.713  1.4029  1.3685 -1.6433
   12MOL   H532 8474   1.614   7.596   6.622  0.4190  0.2777  2.0331
   12MOL   H533 8475   1.659   7.401   6.469 -0.1898 -1.4867  0.1948
   12MOL   H534 8476   1.785   7.343   6.574 -0.6207  0.4665  0.9191
   12MOL   H535 8477   1.931   7.521   6.508  0.7196  0.8422 -2.1245
   12MOL   H536 8478   1.801   7.633   6.479 -0.6088 -0.3000  0.2952
   12MOL   H537 8479   2.073   7.381   6.031  0.8506 -0.6231 -2.8475
   12MOL   H538 8480   2.008   7.511   5.929  1.3039 -0.1473  0.4352
   12MOL   H539 8481   1.955   7.355   5.903 -0.6207 -0.7144 -0.0918
   12MOL   H540 8482   1.739   7.534   5.940  1.7857 -1.0383 -1.2357
   12MOL   H541 8483   1.701   7.572   6.102 -0.3278 -0.7915 -0.1075
   12MOL   C542 8484   2.621   0.605   5.983 -0.0443  0.1113  0.2408
   12MOL   C543 8485   2.478   0.625   6.030 -0.1651 -0.4969 -0.4907
   12MOL   C544 8486   2.388   0.629   5.905  0.2391 -0.0029  0.2439
   12MOL   C545 8487   2.365   0.491   5.844 -0.0638 -0.8143 -0.2526
   12MOL   C546 8488   2.235   0.473   5.761  0.0015 -0.1040 -0.0521
   12MOL   C547 8489   2.207   0.327   5.714 -0.8998 -0.3027  0.5326
   12MOL   C548 8490   2.164   0.240   5.837 -0.4483  0.2763 -0.4040
   12MOL   C549 8491   2.094   0.105   5.797  0.1341 -0.0481 -1.0758
   12MOL   O550 8492   2.018   0.056   5.911 -0.7420 -0.4301  0.3257
   12MOL   C551 8493   1.921   7.746   5.889  0.1009 -0.6088 -0.3127
   12MOL   O552 8494   1.910   7.690   5.778 -0.4506 -0.5971  0.5417
   12MOL   C553 8495   1.823   7.721   6.011 -0.5927 -0.0233  0.1076
   12MOL   C554 8496   1.886   7.771   6.141 -0.1398  0.3290  0.5126
   12MOL   C555 8497   1.681   0.017   5.994  0.2541 -0.1299 -0.3248
   12MOL   H556 8498   2.665   0.676   5.913  1.1177 -2.2461 -1.5013
   12MOL   H557 8499   2.613   0.517   5.918 -0.1184 -0.3876  0.9176
   12MOL   H558 8500   2.691   0.587   6.064 -1.1868  0.9267  1.4307
   12MOL   H559 8501   2.448   0.550   6.103 -3.0268  1.0124 -0.0585
   12MOL   H560 8502   2.465   0.726   6.068  0.3062 -0.6410  0.0546
   12MOL   H561 8503   2.428   0.702   5.835 -0.2393 -0.6900 -0.7574
   12MOL   H562 8504   2.291   0.663   5.941  0.1426 -0.9674  0.9409
   12MOL   H563 8505   2.453   0.450   5.793  0.3324 -2.1824  1.4679
   12MOL   H564 8506   2.354   0.428   5.932 -2.2023 -0.3830 -0.1804
   12MOL   H565 8507   2.249   0.533   5.671  3.0349  0.2799  0.6176
   12MOL   H566 8508   2.148   0.519   5.809  0.0759 -0.3916  0.3606
   12MOL   H567 8509   2.140   0.318   5.628 -1.3604 -0.7884  0.9368
   12MOL   H568 8510   2.299   0.282   5.676 -1.3099 -0.8386  0.1657
   12MOL   H569 8511   2.253   0.215   5.894 -1.8679  0.3039  1.9087
   12MOL   H570 8512   2.100   0.300   5.902  1.0703 -0.3184  1.6731
   12MOL   H571 8513   2.163   0.029   5.762 -2.3655 -2.7107 -0.3699
   12MOL   H572 8514   2.023   0.124   5.716 -0.4030  0.8463 -0.4116
   12MOL   H573 8515   1.984   7.732   6.164 -0.3766 -0.0937  0.7935
   12MOL   H574 8516   1.819   7.751   6.224 -0.5174 -1.0166 -0.1008
   12MOL   H575 8517   1.898   0.100   6.141 -0.4290  0.3742 -0.7594
   12MOL   H576 8518   1.653   0.025   6.099 -0.8520  0.2073 -0.6335
   12MOL   H577 8519   1.606   7.738   5.942 -2.8015  1.6079  1.9679
   12MOL   C578 8520   1.656   1.117   5.415 -0.2954  0.6981  0.1675
   12MOL   C579 8521   1.659   0.964   5.411  0.0577 -0.0463 -0.0248
   12MOL   C580 8522   1.630   0.893   5.544 -0.7992  0.7763 -0.7319
   12MOL   C581 8523   1.639   0.737   5.542  0.1125 -0.6085  0.1106
   12MOL   C582 8524   1.786   0.689   5.537 -1.3700  0.8585 -0.0204
   12MOL   C583 8525   1.795   0.554   5.610 -0.5288  0.4286 -0.5991
   12MOL   C584 8526   1.717   0.440   5.546  0.2898  0.5260 -0.0103
   12MOL   C585 8527   1.752   0.305   5.604 -0.0036 -0.0202  0.4521
   12MOL   O586 8528   1.721   0.286   5.742  0.3405 -0.3076 -0.5484
   12MOL   C587 8529   1.678   0.168   5.784  0.0083 -0.4493 -0.2793
   12MOL   O588 8530   1.644   0.073   5.711 -0.1256 -0.1888 -0.0745
   12MOL   C589 8531   1.652   0.165   5.937  0.0213  0.0183  0.0634
   12MOL   C590 8532   1.748   0.271   6.005  0.5974  0.0411 -0.5886
   12MOL   C591 8533   1.499   0.189   5.970  0.3396  0.4545  0.4612
   12MOL   H592 8534   1.559   1.153   5.382 -1.4923 -3.0304 -0.5354
   12MOL   H593 8535   1.746   1.166   5.376 -0.5532  1.2851  0.3097
   12MOL   H594 8536   1.661   1.137   5.522  1.5460 -2.6733  0.7732
   12MOL   H595 8537   1.758   0.932   5.379 -0.1613 -0.7825  0.0350
   12MOL   H596 8538   1.590   0.926   5.335  0.7278 -1.2964 -0.0146
   12MOL   H597 8539   1.526   0.910   5.569 -1.3509 -2.3182 -0.6745
   12MOL   H598 8540   1.697   0.934   5.619  0.1117  2.2316 -2.3048
   12MOL   H599 8541   1.570   0.697   5.467 -2.0375  0.2058  1.6122
   12MOL   H600 8542   1.587   0.701   5.630 -0.5287 -0.2687 -0.1233
   12MOL   H601 8543   1.856   0.760   5.580  1.0030 -0.9830 -0.7297
   12MOL   H602 8544   1.818   0.672   5.434  1.6563  0.9646  0.8711
   12MOL   H603 8545   1.787   0.566   5.718 -0.2965 -0.2768 -0.4970
   12MOL   H604 8546   1.902   0.534   5.600  0.0572  3.4134 -0.5857
   12MOL   H605 8547   1.737   0.435   5.439 -0.5863  3.3713 -0.3316
   12MOL   H606 8548   1.609   0.453   5.546  0.2190 -0.0335  1.2715
   12MOL   H607 8549   1.709   0.227   5.541  3.4856 -1.5018 -0.2462
   12MOL   H608 8550   1.861   0.297   5.599 -0.0530 -1.5096  1.4392
   12MOL   H609 8551   1.746   0.269   6.114  0.9492 -0.6689 -0.5912
   12MOL   H610 8552   1.852   0.267   5.971  0.4980  0.8300 -0.9900
   12MOL   H611 8553   1.714   0.372   5.985 -0.5199  0.2270  2.0314
   12MOL   H612 8554   1.488   0.196   6.078  2.1593  0.0820  0.6852
   12MOL   H613 8555   1.449   0.100   5.933 -1.2597  1.5759 -0.0953
   12MOL   C614 8556   0.876   0.649   6.616  0.7087  0.1721  0.0992
   12MOL   C615 8557   1.015   0.597   6.598 -0.5468  0.2197  0.6207
   12MOL   C616 8558   1.089   0.678   6.496 -0.2422 -0.0444 -0.8486
   12MOL   C617 8559   1.225   0.632   6.460 -0.1676  0.5179  0.0865
   12MOL   C618 8560   1.283   0.707   6.341  0.5122  0.8643  0.0765
   12MOL   C619 8561   1.418   0.644   6.310 -0.2998  0.3957 -0.1368
   12MOL   C620 8562   1.478   0.677   6.173  0.3520  0.1383 -0.3489
   12MOL   C621 8563   1.566   0.582   6.101  0.1390  0.6529  0.8634
   12MOL   O622 8564   1.498   0.462   6.060 -0.0179  0.1382  0.3380
   12MOL   C623 8565   1.458   0.439   5.930 -1.1051  0.2086 -0.2856
   12MOL   O624 8566   1.491   0.515   5.842  0.4782 -0.1234 -0.0474
   12MOL   C625 8567   1.403   0.297   5.906  0.2835  0.6499 -0.6730
   12MOL   C626 8568   1.375   0.281   5.754 -0.2048  0.1942  0.4693
   12MOL   C627 8569   1.270   0.275   5.980  0.0478  0.5144  0.2189
   12MOL   H628 8570   0.815   0.653   6.526  1.0984  1.8363 -0.1131
   12MOL   H629 8571   0.877   0.738   6.680 -2.4044 -1.4185  2.5438
   12MOL   H630 8572   0.832   0.572   6.679 -0.7688 -0.5659 -1.7931
   12MOL   H631 8573   1.074   0.600   6.689  1.0162 -0.0112 -0.3804
   12MOL   H632 8574   1.023   0.492   6.569 -2.3785  0.4753 -0.9136
   12MOL   H633 8575   1.099   0.781   6.530 -0.3355 -0.1083 -0.6257
   12MOL   H634 8576   1.025   0.674   6.407  2.6120  0.6996 -2.9846
   12MOL   H635 8577   1.226   0.526   6.435  0.2505  0.6935 -0.6743
   12MOL   H636 8578   1.295   0.645   6.542 -1.2614 -2.5074  1.5816
   12MOL   H637 8579   1.218   0.700   6.253  0.1031 -0.1021  0.4457
   12MOL   H638 8580   1.293   0.815   6.352  0.2604  0.8410  0.5028
   12MOL   H639 8581   1.491   0.663   6.388 -0.1231  3.3430 -0.9363
   12MOL   H640 8582   1.410   0.536   6.303 -2.3930  0.5360 -0.3862
   12MOL   H641 8583   1.521   0.776   6.187  1.8092 -0.4255 -0.7393
   12MOL   H642 8584   1.397   0.696   6.103  2.1038  2.5363 -1.8194
   12MOL   H643 8585   1.608   0.632   6.014 -1.5116 -1.3850 -1.1532
   12MOL   H644 8586   1.651   0.552   6.163  0.5245 -0.4089 -0.1759
   12MOL   H645 8587   1.307   0.196   5.741 -1.8774  1.6217 -0.1746
   12MOL   H646 8588   1.468   0.273   5.699  0.1696 -0.2878  1.1613
   12MOL   H647 8589   1.330   0.369   5.708  0.5406 -1.0745 -2.8614
   12MOL   H648 8590   1.291   0.299   6.084  0.9459 -0.8617  0.3667
   12MOL   H649 8591   1.253   0.167   5.982 -1.0368  0.6973  2.1413
   12MOL   C650 8592   1.722   7.358   5.665 -0.5283  0.6075 -0.0008
   12MOL   C651 8593   1.580   7.378   5.717  0.5821 -0.9289  0.6132
   12MOL   C652 8594   1.525   7.504   5.654 -0.3567 -0.0435  0.1855
   12MOL   C653 8595   1.392   7.533   5.727 -0.1531 -0.4401  0.0823
   12MOL   C654 8596   1.331   7.651   5.658  0.0577 -0.3519 -0.0134
   12MOL   C655 8597   1.187   7.699   5.694  0.2812  0.4945  0.2298
   12MOL   C656 8598   1.128   0.034   5.612  0.1043  0.0160 -0.8918
   12MOL   C657 8599   1.015   0.092   5.696 -0.0848  0.2264 -0.0896
   12MOL   O658 8600   1.065   0.159   5.810 -0.0470  0.3527 -0.6129
   12MOL   C659 8601   1.077   0.291   5.811 -0.3182  0.6861  0.0910
   12MOL   O660 8602   1.060   0.360   5.708 -0.3712 -0.3998  0.2006
   12MOL   C661 8603   1.135   0.343   5.941 -0.0013  0.1205  0.3834
   12MOL   C662 8604   1.158   0.501   5.921  0.5894 -0.5480 -0.1725
   12MOL   C663 8605   1.043   0.321   6.072 -0.5231 -0.3653  0.0637
   12MOL   H664 8606   1.726   7.369   5.557 -1.9491 -1.6512 -0.3251
   12MOL   H665 8607   1.742   7.251   5.659 -0.3843  0.6877 -0.9345
   12MOL   H666 8608   1.803   7.417   5.709  1.6506 -2.7282  0.7591
   12MOL   H667 8609   1.584   7.382   5.826 -1.6826  2.5268  0.6335
   12MOL   H668 8610   1.512   7.298   5.690  0.0008 -0.2965  0.1848
   12MOL   H669 8611   1.503   7.492   5.548 -0.8582 -0.0687  0.2873
   12MOL   H670 8612   1.605   7.576   5.668  0.1087 -0.4841 -0.2020
   12MOL   H671 8613   1.415   7.549   5.832  0.8158 -2.7091  0.2453
   12MOL   H672 8614   1.327   7.446   5.742 -0.5945  0.1618  1.8200
   12MOL   H673 8615   1.319   7.637   5.550  2.0644  1.1670 -0.4664
   12MOL   H674 8616   1.383   7.747   5.665  0.6503 -0.5605 -1.2445
   12MOL   H675 8617   1.111   7.621   5.702  0.2210  0.6299  0.9730
   12MOL   H676 8618   1.201   7.729   5.798 -2.2169  1.9382  0.1942
   12MOL   H677 8619   1.097   7.778   5.514 -2.2968 -0.0872 -0.1271
   12MOL   H678 8620   1.193   0.118   5.586 -0.4310  0.4645 -0.7865
   12MOL   H679 8621   0.951   0.008   5.721 -1.2036  1.2584  0.5196
   12MOL   H680 8622   0.955   0.149   5.626  0.4724  1.2472  0.2504
   12MOL   H681 8623   1.064   0.555   5.917  1.2352  0.7164  1.2445
   12MOL   H682 8624   1.207   0.532   5.828 -1.2709  1.2651 -0.5617
   12MOL   H683 8625   1.214   0.557   5.996  2.6055 -1.2684 -1.0749
   12MOL   H684 8626   1.078   0.233   6.127  1.0116  0.0128 -0.2759
   12MOL   H685 8627   1.077   0.402   6.137 -0.0317  2.5417 -3.6579
   12MOL   C686 8628   1.483   7.587   6.316 -0.3064  0.0555 -0.3984
   12MOL   C687 8629   1.389   7.603   6.200 -0.1824  0.2666  0.4083
   12MOL   C688 8630   1.240   7.583   6.230 -0.6403 -0.4145  0.2381
   12MOL   C689 8631   1.167   7.509   6.118  0.0477 -0.2855  0.3698
   12MOL   C690 8632   1.026   7.478   6.148  0.3334  0.4948 -0.3093
   12MOL   C691 8633   0.933   7.594   6.128 -0.1325 -0.1814 -0.4827
   12MOL   C692 8634   0.900   7.633   5.986 -0.0051 -0.3361 -0.4813
   12MOL   C693 8635   0.807   7.751   5.988 -0.6805  0.3220  0.2966
   12MOL   O694 8636   0.858   0.090   6.050 -0.4885 -0.0690  0.7576
   12MOL   C695 8637   0.815   0.213   5.997  0.1384  0.5166  0.7772
   12MOL   O696 8638   0.736   0.227   5.904  0.0301 -0.8209  0.2469
   12MOL   C697 8639   0.879   0.329   6.069  0.4168  0.4897  0.4592
   12MOL   C698 8640   0.829   0.460   5.988  0.0970 -0.4222  0.4340
   12MOL   C699 8641   0.826   0.329   6.213 -0.0079 -0.7630  0.2994
   12MOL   H700 8642   1.581   7.628   6.292 -0.7293  1.4174  0.1439
   12MOL   H701 8643   1.495   7.484   6.351 -1.7498 -1.1100 -3.1541
   12MOL   H702 8644   1.454   7.649   6.401  2.2803 -0.7563  1.1120
   12MOL   H703 8645   1.411   7.523   6.130 -2.7010  0.4131 -0.5886
   12MOL   H704 8646   1.409   7.691   6.140  3.4691 -0.2652  0.7315
   12MOL   H705 8647   1.192   7.680   6.247 -1.2493 -0.6081 -0.3317
   12MOL   H706 8648   1.231   7.529   6.324  1.6468 -2.8658 -0.8978
   12MOL   H707 8649   1.219   7.415   6.098 -3.3604 -1.8885 -1.4258
   12MOL   H708 8650   1.172   7.563   6.023  0.6757  1.5657  1.4394
   12MOL   H709 8651   1.019   7.433   6.247  3.2152  3.0490  1.1657
   12MOL   H710 8652   1.004   7.399   6.076 -2.6838  0.6054  0.4304
   12MOL   H711 8653   0.840   7.570   6.179 -0.2067 -2.5390 -1.6514
   12MOL   H712 8654   0.975   7.684   6.173  1.3637  0.4082 -2.9701
   12MOL   H713 8655   0.992   7.652   5.930  0.5747 -0.9705  0.2457
   12MOL   H714 8656   0.846   7.544   5.953  0.5731 -1.0066  0.3635
   12MOL   H715 8657   0.726   7.726   6.056 -0.5607 -1.2014 -0.1044
   12MOL   H716 8658   0.762   7.769   5.891 -0.1534  0.3312  0.0538
   12MOL   H717 8659   0.861   0.552   6.035  0.3814 -1.0650  1.5153
   12MOL   H718 8660   0.854   0.459   5.882 -3.5603 -0.1151 -0.5098
   12MOL   H719 8661   0.720   0.464   5.992  0.0881 -0.2964  0.1313
   12MOL   H720 8662   0.717   0.319   6.211 -0.0195 -0.5899  0.0675
   12MOL   H721 8663   0.863   0.415   6.269  0.2811 -0.4594 -0.3519
   12MOL   H722 8664   0.860   0.235   6.257  1.7660  0.9632  2.7678
   13MOL     C1 8665   5.890   2.921   6.011 -0.3751 -0.3564 -0.0928
   13MOL     C2 8666   6.013   2.952   6.099  0.1790  0.0308 -0.0644
   13MOL     C3 8667   6.018   3.108   6.117  0.1449 -0.4079  0.2288
   13MOL     C4 8668   5.898   3.172   6.199  0.2012 -0.4658 -0.5542
   13MOL     C5 8669   5.896   3.326   6.205  0.5238  0.0152  1.1453
   13MOL     C6 8670   5.789   3.406   6.282  0.5700  0.2053  0.2310
   13MOL     C7 8671   5.786   3.552   6.247  0.3195  0.1077  0.1342
   13MOL     C8 8672   5.665   3.630   6.313  0.6775 -0.0949 -0.3443
   13MOL     O9 8673   5.555   3.595   6.236  0.3735  0.1097 -0.0601
   13MOL    C10 8674   5.460   3.688   6.202  0.4539 -0.1775 -0.2348
   13MOL    O11 8675   5.457   3.800   6.237 -0.1357  0.7248 -0.1247
   13MOL    C12 8676   5.346   3.632   6.117 -0.6736  0.2122 -0.1679
   13MOL    C13 8677   5.411   3.571   5.988  0.1395 -0.3201  0.1084
   13MOL    C14 8678   5.266   3.516   6.195 -0.7581  0.3204  0.2337
   13MOL    H15 8679   5.904   2.962   5.911 -0.0418  1.1399  0.5501
   13MOL    H16 8680   5.796   2.957   6.053 -1.1482 -1.3983 -0.9175
   13MOL    H17 8681   5.884   2.814   5.993  0.0127 -0.6864  1.5899
   13MOL    H18 8682   6.101   2.911   6.049  0.6484  1.0639 -0.0880
   13MOL    H19 8683   6.011   2.906   6.198 -0.8895 -0.2969 -0.2319
   13MOL    H20 8684   6.113   3.131   6.166  0.7974  0.0489 -1.2492
   13MOL    H21 8685   6.017   3.163   6.023  0.2103 -1.8661 -0.6274
   13MOL    H22 8686   5.803   3.132   6.163  1.0793 -1.3847 -1.9117
   13MOL    H23 8687   5.902   3.137   6.302  4.4236  0.0480 -0.4249
   13MOL    H24 8688   5.878   3.353   6.100  0.5143 -1.4440  0.7674
   13MOL    H25 8689   6.000   3.355   6.216  0.0982  0.7159  3.7389
   13MOL    H26 8690   5.813   3.397   6.388  3.2585  2.1932 -0.1571
   13MOL    H27 8691   5.693   3.359   6.261  0.1945  0.6508  0.9215
   13MOL    H28 8692   5.776   3.567   6.140 -0.7354 -2.3871 -0.1663
   13MOL    H29 8693   5.882   3.587   6.283 -0.4090  0.2515  2.0419
   13MOL    H30 8694   5.689   3.735   6.296  1.7479 -0.3114 -0.1752
   13MOL    H31 8695   5.673   3.603   6.418 -0.1800 -1.8057 -0.6959
   13MOL    H32 8696   5.457   3.649   5.927 -0.9340  1.7289  1.8384
   13MOL    H33 8697   5.464   3.478   6.006 -1.0786 -1.4897 -2.1338
   13MOL    H34 8698   5.328   3.547   5.922 -0.4227  0.0641  0.6709
   13MOL    H35 8699   5.342   3.449   6.235  1.4654  1.9985 -1.0190
   13MOL    H36 8700   5.222   3.455   6.117  2.5016  2.0313 -3.1316
   13MOL    H37 8701   5.269   3.706   6.096  1.0509  2.5088  1.4211
   13MOL    C38 8702   4.703   3.005   5.770 -0.5751  0.1275  0.2170
   13MOL    C39 8703   4.778   3.085   5.662 -0.1183  0.3789  1.1046
   13MOL    C40 8704   4.755   3.232   5.664  0.1693 -0.2124 -0.4804
   13MOL    C41 8705   4.800   3.318   5.785  0.3476  0.6788 -0.3467
   13MOL    C42 8706   4.793   3.463   5.749  0.7005  0.4517  0.1682
   13MOL    C43 8707   4.872   3.563   5.840 -0.7358  0.7389  0.3019
   13MOL    C44 8708   4.815   3.578   5.969 -0.5958  0.8635  0.4555
   13MOL    C45 8709   4.890   3.669   6.065 -0.3150  0.5740 -0.7590
   13MOL    O46 8710   4.985   3.596   6.137 -0.3487  0.0133  0.5943
   13MOL    C47 8711   5.051   3.651   6.237  0.0051 -0.0559  1.0990
   13MOL    O48 8712   5.041   3.765   6.285  0.0907 -0.4640  0.2388
   13MOL    C49 8713   5.151   3.548   6.297  0.4390 -0.2509 -0.0808
   13MOL    C50 8714   5.207   3.607   6.433  0.2555 -0.4867 -0.1011
   13MOL    C51 8715   5.080   3.412   6.317  0.2898  0.1692  0.5783
   13MOL    H52 8716   4.734   3.026   5.873 -2.0114 -0.4208  0.7733
   13MOL    H53 8717   4.715   2.900   5.744 -0.8843  0.4126 -1.1142
   13MOL    H54 8718   4.597   3.029   5.768 -0.6808 -0.4160 -3.0015
   13MOL    H55 8719   4.762   3.049   5.560 -1.7052  3.3604  0.2221
   13MOL    H56 8720   4.885   3.071   5.676  0.1093  0.8078 -0.0572
   13MOL    H57 8721   4.809   3.275   5.580  2.7197 -0.5740  0.8812
   13MOL    H58 8722   4.649   3.241   5.642 -0.0249 -2.8009 -0.7948
   13MOL    H59 8723   4.904   3.290   5.803  0.2277 -0.4611 -1.3841
   13MOL    H60 8724   4.752   3.292   5.880 -0.6711  0.0558 -1.0274
   13MOL    H61 8725   4.831   3.486   5.649  0.2875  2.5754  0.4764
   13MOL    H62 8726   4.687   3.489   5.756  0.8594  0.4808  3.0262
   13MOL    H63 8727   4.972   3.520   5.847 -1.0226 -0.0802 -0.5315
   13MOL    H64 8728   4.887   3.658   5.788  2.2213 -0.0912 -0.4462
   13MOL    H65 8729   4.786   3.489   6.023  3.6545 -0.6614  0.4045
   13MOL    H66 8730   4.717   3.621   5.946 -0.3171  1.0977 -0.3279
   13MOL    H67 8731   4.813   3.710   6.130 -0.9553 -0.7621 -0.6571
   13MOL    H68 8732   4.942   3.750   6.013 -1.2132  1.7555  0.1342
   13MOL    H69 8733   5.244   3.709   6.423  0.1944 -0.4860 -0.3200
   13MOL    H70 8734   5.135   3.611   6.515 -0.2635  1.7705 -0.6331
   13MOL    H71 8735   5.297   3.550   6.456  0.8444 -0.9464 -3.3244
   13MOL    H72 8736   5.143   3.323   6.315 -1.3996 -1.0281 -2.7036
   13MOL    H73 8737   5.036   3.386   6.221  1.0658 -0.2657  0.3343
   13MOL    C74 8738   4.260   3.109   5.982 -0.7281 -0.5030 -0.4137
   13MOL    C75 8739   4.359   3.184   5.884  0.5656 -0.2035  0.2491
   13MOL    C76 8740   4.435   3.303   5.934  0.7917 -0.0019  0.3532
   13MOL    C77 8741   4.349   3.414   5.993  0.1853  0.0189  0.0707
   13MOL    C78 8742   4.440   3.523   6.057 -0.0022  0.4502 -0.4709
   13MOL    C79 8743   4.520   3.475   6.176 -0.1704  0.0981  0.2245
   13MOL    C80 8744   4.570   3.595   6.260  0.0493 -0.1738  0.2226
   13MOL    C81 8745   4.650   3.553   6.385  0.9210 -0.6996  0.0998
   13MOL    O82 8746   4.780   3.504   6.346 -0.1468  0.7000 -0.5123
   13MOL    C83 8747   4.869   3.495   6.437 -0.5270 -0.4782 -0.2313
   13MOL    O84 8748   4.885   3.570   6.532 -0.1779  0.3449  0.0368
   13MOL    C85 8749   4.966   3.376   6.423 -0.2225 -0.2139  0.4378
   13MOL    C86 8750   4.894   3.254   6.362  0.4776  0.5167  0.8324
   13MOL    C87 8751   5.034   3.337   6.562  0.1953 -0.0083 -0.3952
   13MOL    H88 8752   4.179   3.049   5.941  0.6506 -2.5746 -0.1236
   13MOL    H89 8753   4.211   3.166   6.061  1.4971 -0.0952  0.7150
   13MOL    H90 8754   4.321   3.040   6.039  2.3050  2.6301  0.3147
   13MOL    H91 8755   4.295   3.224   5.805  0.5605  1.4505  1.0781
   13MOL    H92 8756   4.425   3.115   5.832 -0.8663  1.5624 -4.1696
   13MOL    H93 8757   4.512   3.262   5.999  1.3895  0.9171  0.2304
   13MOL    H94 8758   4.490   3.345   5.849  0.4825  2.0379  1.1358
   13MOL    H95 8759   4.271   3.378   6.060 -1.0146  3.4479  0.6018
   13MOL    H96 8760   4.299   3.465   5.911 -0.4076  0.4062  0.6720
   13MOL    H97 8761   4.508   3.571   5.986  0.4531  0.0898 -0.2830
   13MOL    H98 8762   4.377   3.606   6.089  1.2190  1.5390 -0.8366
   13MOL    H99 8763   4.468   3.404   6.240 -0.0274  1.7602  2.2258
   13MOL   H100 8764   4.601   3.418   6.131  1.0127  1.8155  0.1150
   13MOL   H101 8765   4.615   3.678   6.205  1.1963 -1.0340 -0.1668
   13MOL   H102 8766   4.487   3.655   6.298 -0.0223 -0.5420  0.6408
   13MOL   H103 8767   4.594   3.494   6.457 -0.1762 -2.2162 -1.9149
   13MOL   H104 8768   4.661   3.653   6.427 -0.7325  0.7199 -2.6984
   13MOL   H105 8769   4.844   3.279   6.269  1.4829  0.7789  0.3551
   13MOL   H106 8770   4.820   3.208   6.429 -0.1508  1.1124  0.5472
   13MOL   H107 8771   4.967   3.173   6.352 -1.7994 -1.5883  0.7490
   13MOL   H108 8772   5.135   3.299   6.543  0.3214  1.1220 -2.2033
   13MOL   H109 8773   5.063   3.435   6.601 -0.4871 -0.4126  1.1164
   13MOL   C110 8774   5.360   3.188   5.826 -0.5505  0.4626  0.7065
   13MOL   C111 8775   5.478   3.166   5.920  0.2251  0.1547  0.5411
   13MOL   C112 8776   5.467   3.070   6.033  0.3422 -0.2456  0.8133
   13MOL   C113 8777   5.387   3.118   6.155  0.4861 -0.2951 -0.4164
   13MOL   C114 8778   5.370   3.002   6.256 -0.1601 -0.9830  0.3201
   13MOL   C115 8779   5.244   3.020   6.348  0.2282 -0.3669  0.2884
   13MOL   C116 8780   5.231   2.914   6.453  0.4250  0.6467 -0.2542
   13MOL   C117 8781   5.098   2.931   6.516  0.1294 -0.4025  0.0739
   13MOL   O118 8782   5.078   3.056   6.580  0.4866  0.5286  0.4703
   13MOL   C119 8783   4.965   3.095   6.624 -0.0487  0.1232  0.4611
   13MOL   O120 8784   4.870   3.022   6.632 -0.2485  0.3579  0.4890
   13MOL   C121 8785   4.969   3.238   6.671  0.0443 -0.1268  0.0368
   13MOL   C122 8786   4.825   3.291   6.701  0.7041  0.3583  0.0908
   13MOL   C123 8787   5.064   3.237   6.799 -0.7881 -0.6406  0.3537
   13MOL   H124 8788   5.394   3.246   5.740  0.0864 -0.0382  0.6186
   13MOL   H125 8789   5.311   3.095   5.796  1.1812 -0.6667  1.3330
   13MOL   H126 8790   5.276   3.230   5.881 -3.1032  0.1765 -2.8002
   13MOL   H127 8791   5.507   3.267   5.948 -1.1059  0.7178 -0.1136
   13MOL   H128 8792   5.560   3.132   5.855 -1.7599  0.0717 -1.9884
   13MOL   H129 8793   5.565   3.041   6.071  0.0511 -1.8615  0.3628
   13MOL   H130 8794   5.422   2.977   5.997 -1.2342  0.9716 -0.4622
   13MOL   H131 8795   5.437   3.202   6.205 -0.5531 -0.4335  0.9019
   13MOL   H132 8796   5.289   3.161   6.137  1.0385  1.0285 -0.3338
   13MOL   H133 8797   5.458   2.995   6.319  0.8598 -0.3364 -0.9995
   13MOL   H134 8798   5.350   2.916   6.192 -0.1314 -1.7574  1.3415
   13MOL   H135 8799   5.243   3.120   6.393  1.0661 -0.5841  0.8055
   13MOL   H136 8800   5.159   3.015   6.280 -1.8301 -0.3651  2.8164
   13MOL   H137 8801   5.314   2.914   6.524 -0.8690 -1.2082  1.3073
   13MOL   H138 8802   5.237   2.817   6.403  0.4870  0.8478 -0.6381
   13MOL   H139 8803   5.025   2.899   6.442  1.1986  1.3187 -1.7653
   13MOL   H140 8804   5.088   2.855   6.594 -0.4636 -0.7348 -0.3226
   13MOL   H141 8805   4.772   3.316   6.609 -0.1194 -1.1332  0.1477
   13MOL   H142 8806   4.750   3.225   6.744  0.3253  1.3658  1.0089
   13MOL   H143 8807   4.820   3.384   6.757 -0.7282  1.0455 -1.1396
   13MOL   H144 8808   5.051   3.338   6.839 -0.4921 -0.4124 -0.1221
   13MOL   H145 8809   5.165   3.223   6.761 -1.7255  0.3145 -2.5803
   13MOL   C146 8810   4.338   2.455   7.480  0.0428 -0.4224  0.2915
   13MOL   C147 8811   4.386   2.577   7.398 -0.0230  0.3717  0.4831
   13MOL   C148 8812   4.316   2.600   7.266  0.3811  0.5660 -0.0440
   13MOL   C149 8813   4.339   2.735   7.198 -0.3101  0.0385  0.2591
   13MOL   C150 8814   4.487   2.769   7.174 -0.2680  0.2424 -0.3885
   13MOL   C151 8815   4.512   2.881   7.074  0.4715  0.2187 -0.6943
   13MOL   C152 8816   4.657   2.904   7.062  0.6742  0.2026 -0.7093
   13MOL   C153 8817   4.691   3.008   6.959  0.5325 -0.2503  0.2877
   13MOL   O154 8818   4.836   3.016   6.951  0.1022 -0.1866  0.1150
   13MOL   C155 8819   4.894   3.138   6.963 -0.0667  0.3624 -0.2669
   13MOL   O156 8820   4.837   3.241   7.001 -0.1490 -0.2178  0.3791
   13MOL   C157 8821   5.048   3.142   6.925 -0.0076 -0.2409 -0.3049
   13MOL   C158 8822   5.104   3.001   6.903  0.5547  0.0211 -0.6795
   13MOL   C159 8823   5.129   3.224   7.037 -0.5538 -0.7501  0.1504
   13MOL   H160 8824   4.264   2.494   7.550 -0.1609  0.8192 -0.5880
   13MOL   H161 8825   4.418   2.415   7.541  0.5213  1.0721  0.6533
   13MOL   H162 8826   4.298   2.370   7.424  0.6842  0.4138 -1.4787
   13MOL   H163 8827   4.380   2.668   7.458  2.3844  0.2289  0.9905
   13MOL   H164 8828   4.487   2.541   7.382 -1.3980 -3.2320 -0.6910
   13MOL   H165 8829   4.209   2.600   7.290  0.1319  0.6542 -1.1051
   13MOL   H166 8830   4.339   2.523   7.192  1.6092  0.3227  0.5766
   13MOL   H167 8831   4.301   2.723   7.097 -2.0415  0.4400  0.8460
   13MOL   H168 8832   4.295   2.823   7.245  3.1287  1.5856  0.7410
   13MOL   H169 8833   4.540   2.677   7.146 -1.0870 -0.7409  1.1792
   13MOL   H170 8834   4.538   2.794   7.267 -0.7154  3.1946 -0.9125
   13MOL   H171 8835   4.470   2.974   7.112  0.6478 -0.8525  2.3124
   13MOL   H172 8836   4.456   2.861   6.983  2.0924  2.3411 -2.2221
   13MOL   H173 8837   4.706   2.921   7.158  1.8741 -1.4407 -1.0018
   13MOL   H174 8838   4.701   2.812   7.022  0.3679 -0.2178 -0.1035
   13MOL   H175 8839   4.657   2.964   6.866 -2.4410  1.2488  0.5903
   13MOL   H176 8840   4.644   3.106   6.972 -0.1903 -0.4484 -0.8354
   13MOL   H177 8841   5.124   2.944   6.993 -0.5778  1.0152  0.2027
   13MOL   H178 8842   5.203   3.003   6.857  1.5406 -2.6517  1.1900
   13MOL   H179 8843   5.050   2.937   6.833  0.0415 -0.6384  0.3149
   13MOL   H180 8844   5.065   3.312   7.044  0.2318  0.1156 -2.5576
   13MOL   H181 8845   5.219   3.262   6.988 -0.8015  0.8595  0.8948
   13MOL   C182 8846   5.474   3.399   0.366  0.0403  0.1325 -0.6191
   13MOL   C183 8847   5.519   3.403   0.224  0.2965 -0.1437 -0.3140
   13MOL   C184 8848   5.465   3.282   0.153 -0.1575 -0.7133  0.1787
   13MOL   C185 8849   5.519   3.277   0.010 -0.3207  0.0590 -0.3080
   13MOL   C186 8850   5.504   3.135   7.736  0.1875  0.2284 -0.2997
   13MOL   C187 8851   5.470   3.130   7.586 -0.4178 -0.5328 -0.5358
   13MOL   C188 8852   5.453   2.995   7.528 -0.9914  0.0138  0.1546
   13MOL   C189 8853   5.444   2.993   7.374  0.6240  0.1586 -0.2547
   13MOL   O190 8854   5.329   3.067   7.318  0.1900 -0.7220 -0.8873
   13MOL   C191 8855   5.297   3.090   7.194 -0.2646 -0.0967  0.2212
   13MOL   O192 8856   5.363   3.054   7.091 -0.2098  0.0616  0.5114
   13MOL   C193 8857   5.169   3.180   7.181  0.4975  0.0417 -0.3237
   13MOL   C194 8858   5.046   3.099   7.233  0.3567  0.0275  0.0197
   13MOL   C195 8859   5.179   3.307   7.278 -0.0628 -0.0146  0.0007
   13MOL   H196 8860   5.515   3.490   0.411 -1.9022  1.1947 -0.9446
   13MOL   H197 8861   5.369   3.385   0.391 -0.2894 -0.5879 -2.3320
   13MOL   H198 8862   5.525   3.318   0.419 -0.0139  0.4783 -0.0332
   13MOL   H199 8863   5.628   3.404   0.228  0.2622 -0.7597  1.7887
   13MOL   H200 8864   5.491   3.495   0.174 -1.6178 -0.4846  0.0655
   13MOL   H201 8865   5.482   3.193   0.213  0.9747 -1.6329 -1.4729
   13MOL   H202 8866   5.358   3.303   0.154 -0.1951 -0.8821 -0.1180
   13MOL   H203 8867   5.464   3.356   7.737 -1.3497 -0.9520 -0.7665
   13MOL   H204 8868   5.625   3.301   0.009 -0.3241  0.0679 -0.7284
   13MOL   H205 8869   5.412   3.099   0.003 -1.4887  1.6803 -2.3610
   13MOL   H206 8870   5.585   3.064   7.748  0.0756 -0.0511 -1.1334
   13MOL   H207 8871   5.537   3.194   7.528 -0.8307 -0.7984 -1.3103
   13MOL   H208 8872   5.382   3.191   7.565 -0.0609  0.7888  1.6729
   13MOL   H209 8873   5.530   2.929   7.568 -0.6833  0.2027 -0.1311
   13MOL   H210 8874   5.367   2.938   7.564 -2.2321  1.2820 -0.7599
   13MOL   H211 8875   5.415   2.890   7.352 -2.1209  0.7988  0.0691
   13MOL   H212 8876   5.536   3.028   7.327  3.3716 -1.1081  3.9076
   13MOL   H213 8877   4.944   3.139   7.232 -0.5570 -2.1604 -4.0845
   13MOL   H214 8878   5.037   3.001   7.186 -2.3662  0.2754 -0.0667
   13MOL   H215 8879   5.061   3.063   7.335  1.6082 -1.0535 -0.5332
   13MOL   H216 8880   5.078   3.340   7.304  0.2976  1.3545 -0.3162
   13MOL   H217 8881   5.220   3.275   7.374 -0.0978  1.2700  0.4588
   13MOL   C218 8882   4.389   3.706   6.724 -0.4536 -0.4900 -0.2625
   13MOL   C219 8883   4.524   3.768   6.701 -0.3411  0.3228  0.5808
   13MOL   C220 8884   4.633   3.668   6.726 -0.8908  0.9090 -0.2460
   13MOL   C221 8885   4.655   3.611   6.872  0.4130  0.2801  0.3625
   13MOL   C222 8886   4.655   3.709   6.988 -0.2164  0.1348  0.5840
   13MOL   C223 8887   4.782   3.786   7.014 -0.6897  0.2664  0.1046
   13MOL   C224 8888   4.881   3.723   7.104  0.0122 -0.2320 -0.0909
   13MOL   C225 8889   4.988   3.625   7.039  0.3325  0.3693 -0.0645
   13MOL   O226 8890   5.065   3.553   7.138 -1.0494 -0.1743  0.1618
   13MOL   C227 8891   5.198   3.522   7.116  0.1197 -0.5681  0.1119
   13MOL   O228 8892   5.260   3.548   7.007  0.4176 -0.1658 -0.5153
   13MOL   C229 8893   5.260   3.441   7.232 -0.2561 -0.1232 -0.2642
   13MOL   C230 8894   5.406   3.405   7.197  0.1946  0.2038 -0.4859
   13MOL   C231 8895   5.265   3.526   7.366 -0.2370 -0.5262  0.0173
   13MOL   H232 8896   4.362   3.640   6.641 -0.8668  0.7413 -1.1135
   13MOL   H233 8897   4.309   3.779   6.718  0.6032  0.8990  1.7507
   13MOL   H234 8898   4.383   3.646   6.815 -0.5652  0.4676  0.3745
   13MOL   H235 8899   4.529   3.855   6.767 -0.7585  1.9147 -1.4314
   13MOL   H236 8900   4.527   3.799   6.596 -1.4307 -0.5660  0.2816
   13MOL   H237 8901   4.633   3.589   6.651  0.3073  0.5964  0.0683
   13MOL   H238 8902   4.728   3.713   6.697 -0.1514  0.0675  0.8242
   13MOL   H239 8903   4.571   3.545   6.889 -0.6586  1.8595  1.3388
   13MOL   H240 8904   4.743   3.547   6.877  0.6041  0.1057 -3.3654
   13MOL   H241 8905   4.579   3.787   6.982 -1.4686 -0.9958  1.3659
   13MOL   H242 8906   4.622   3.654   7.077  1.2414 -1.9871 -0.1755
   13MOL   H243 8907   4.829   3.800   6.917 -2.6523  2.2507 -0.6254
   13MOL   H244 8908   4.763   3.889   7.046  0.0683 -0.6960  3.8647
   13MOL   H245 8909   4.838   3.668   7.187  1.0296 -0.6595  0.1584
   13MOL   H246 8910   4.938   3.809   7.139 -0.8879  1.0019 -1.5638
   13MOL   H247 8911   5.063   3.669   6.974  0.4484  0.1808 -0.0587
   13MOL   H248 8912   4.937   3.552   6.977 -0.5099  0.4125  0.5730
   13MOL   H249 8913   5.411   3.335   7.114  1.6670  1.1648 -1.2276
   13MOL   H250 8914   5.466   3.359   7.276 -1.8957  2.2848  2.4382
   13MOL   H251 8915   5.465   3.491   7.165 -1.2051  2.0047  1.5654
   13MOL   H252 8916   5.168   3.521   7.416 -0.6171  0.6434 -0.5873
   13MOL   H253 8917   5.321   3.458   7.429 -0.6313 -0.1205  0.8118
   13MOL   C254 8918   5.861   3.758   0.370  0.0483  0.1533 -0.0920
   13MOL   C255 8919   5.814   3.630   0.299 -0.4122 -0.4721 -0.2330
   13MOL   C256 8920   5.860   3.618   0.146 -0.2314  0.6013 -0.3878
   13MOL   C257 8921   5.794   3.714   0.051  0.6655  0.2683  0.1095
   13MOL   C258 8922   5.813   3.671   7.688  0.3064  0.0919  1.0482
   13MOL   C259 8923   5.742   3.771   7.596 -0.3584  1.0902 -0.2950
   13MOL   C260 8924   5.766   3.737   7.446 -0.3014  0.2148 -0.4442
   13MOL   C261 8925   5.699   3.618   7.391  0.5291 -0.0543  0.8208
   13MOL   O262 8926   5.559   3.621   7.425 -0.0772  0.7631 -0.6169
   13MOL   C263 8927   5.472   3.684   7.343  0.2316 -0.7036 -0.0270
   13MOL   O264 8928   5.508   3.743   7.243  0.1436  0.5970 -0.4431
   13MOL   C265 8929   5.322   3.673   7.379  0.8852  0.0336 -0.3031
   13MOL   C266 8930   5.320   3.689   7.533  0.3857  0.5029 -0.2065
   13MOL   C267 8931   5.239   3.786   7.304 -0.1569  0.5201  0.4540
   13MOL   H268 8932   5.841   3.855   0.326  2.6666  1.8766  2.3611
   13MOL   H269 8933   5.835   3.752   0.476 -1.5406 -2.1698 -0.5600
   13MOL   H270 8934   5.970   3.755   0.365  0.0489 -3.6700  0.3915
   13MOL   H271 8935   5.837   3.541   0.356 -0.1519  0.2656  0.8281
   13MOL   H272 8936   5.707   3.650   0.296 -0.1066  1.5751  1.6105
   13MOL   H273 8937   5.840   3.518   0.107  1.9025  0.1769 -0.4539
   13MOL   H274 8938   5.967   3.630   0.165  0.0133 -1.2168 -0.5188
   13MOL   H275 8939   5.827   3.818   0.055  3.7097 -0.7061  1.1859
   13MOL   H276 8940   5.686   3.714   0.065  0.8836 -1.7204  2.0340
   13MOL   H277 8941   5.916   3.645   7.662 -0.7419 -1.0871 -2.3013
   13MOL   H278 8942   5.768   3.573   7.668  1.1636 -0.2483  0.7581
   13MOL   H279 8943   5.786   3.870   7.607  1.3236  0.4115 -0.8087
   13MOL   H280 8944   5.634   3.774   7.610 -0.6088 -1.5396 -1.4328
   13MOL   H281 8945   5.739   3.818   7.378  0.6877  0.5051 -0.4911
   13MOL   H282 8946   5.873   3.727   7.429 -0.8113 -1.2333 -3.1259
   13MOL   H283 8947   5.700   3.607   7.283 -0.1155 -2.0566  0.9906
   13MOL   H284 8948   5.747   3.529   7.434  1.1841  0.4225  1.0763
   13MOL   H285 8949   5.369   3.782   7.560  1.8790 -0.2794 -0.1524
   13MOL   H286 8950   5.223   3.697   7.581  0.4299 -2.0526  0.4202
   13MOL   H287 8951   5.371   3.609   7.587  1.1468  2.2414  1.6841
   13MOL   H288 8952   5.134   3.757   7.301  0.0944 -0.2659 -0.9233
   13MOL   H289 8953   5.270   3.775   7.201  0.0143  3.6787  0.1206
   13MOL   C290 8954   5.575   4.130   6.309 -0.0891  0.3795  0.4313
   13MOL   C291 8955   5.479   4.176   6.422 -0.3993  0.2733 -0.1620
   13MOL   C292 8956   5.374   4.065   6.470 -0.1331 -0.5481  0.2144
   13MOL   C293 8957   5.296   4.112   6.590  0.4787 -0.0618 -0.3746
   13MOL   C294 8958   5.186   4.010   6.617 -0.4077  0.3055 -0.2481
   13MOL   C295 8959   5.114   4.017   6.749 -0.3849  0.2983  0.5142
   13MOL   C296 8960   5.199   3.992   6.871 -0.2081  0.2460 -0.5904
   13MOL   C297 8961   5.116   4.022   6.993  0.0226 -0.0404 -0.3845
   13MOL   O298 8962   5.183   3.977   7.116  0.0002  0.1119  0.3029
   13MOL   C299 8963   5.154   4.010   7.234 -0.4832 -0.9264  0.2590
   13MOL   O300 8964   5.056   4.078   7.273 -0.7442  0.8674  0.0325
   13MOL   C301 8965   5.249   3.944   7.334 -0.3123 -0.4052 -0.3132
   13MOL   C302 8966   5.200   3.964   7.477 -0.3260 -0.0071 -0.3124
   13MOL   C303 8967   5.391   4.007   7.310 -0.1534 -0.4506 -0.3872
   13MOL   H304 8968   5.522   4.110   6.216  0.3459  2.0508 -0.1956
   13MOL   H305 8969   5.618   4.035   6.342  0.9785  0.6829 -0.0530
   13MOL   H306 8970   5.649   4.208   6.290 -0.6840  0.5970 -1.0112
   13MOL   H307 8971   5.429   4.266   6.389 -1.4096  0.2386  1.2353
   13MOL   H308 8972   5.533   4.196   6.515  0.5278 -2.1907 -0.1245
   13MOL   H309 8973   5.435   3.977   6.489 -0.8167 -1.1616 -0.4283
   13MOL   H310 8974   5.307   4.019   6.398  1.4570  0.2561 -1.8475
   13MOL   H311 8975   5.365   4.123   6.673  2.5019 -2.5906 -1.6536
   13MOL   H312 8976   5.248   4.210   6.585 -0.3768 -0.4069  0.9375
   13MOL   H313 8977   5.112   4.033   6.541 -0.6289 -1.4082 -0.5574
   13MOL   H314 8978   5.236   3.914   6.602 -0.8073  0.1678 -0.6810
   13MOL   H315 8979   5.043   3.935   6.741 -2.1398  1.7793  0.7107
   13MOL   H316 8980   5.080   4.120   6.763  0.5022  0.8339 -1.0635
   13MOL   H317 8981   5.291   4.049   6.882  1.4966 -2.7785  1.5355
   13MOL   H318 8982   5.225   3.886   6.881 -1.6709 -0.1536 -0.8063
   13MOL   H319 8983   5.021   3.969   7.000 -1.6818  3.0340  1.1564
   13MOL   H320 8984   5.098   4.129   7.006 -0.5157 -0.4874  3.1896
   13MOL   H321 8985   5.145   4.057   7.496 -1.6192 -0.8956  0.3712
   13MOL   H322 8986   5.284   3.962   7.546 -0.8421 -2.1143  0.2787
   13MOL   H323 8987   5.131   3.884   7.503  1.3683 -1.2937  0.2421
   13MOL   H324 8988   5.459   3.956   7.378 -2.3250 -1.8316  0.8192
   13MOL   H325 8989   5.427   3.986   7.209  1.5554  0.7740 -0.0423
   13MOL   C326 8990   5.844   4.409   0.598 -0.0041  0.2336  0.4840
   13MOL   C327 8991   5.784   4.394   0.457  0.3426 -0.3547  0.4026
   13MOL   C328 8992   5.763   4.248   0.409  0.5240  0.0548 -0.0648
   13MOL   C329 8993   5.658   4.240   0.304  0.4875 -0.0181 -0.5320
   13MOL   C330 8994   5.630   4.097   0.261 -0.0476  0.6299  0.2844
   13MOL   C331 8995   5.527   4.093   0.151 -0.0385 -0.6292 -0.1650
   13MOL   C332 8996   5.580   4.130   0.012 -0.0277 -0.7574  0.3154
   13MOL   C333 8997   5.458   4.129   7.699  0.1865 -0.6053 -0.0061
   13MOL   O334 8998   5.480   4.131   7.558  0.2365  0.5591  0.0156
   13MOL   C335 8999   5.405   4.205   7.478 -0.0383  0.2042 -0.2300
   13MOL   O336 9000   5.332   4.300   7.520  0.3809 -0.6614  0.5934
   13MOL   C337 9001   5.422   4.168   7.328 -0.9895 -0.0229 -0.1416
   13MOL   C338 9002   5.567   4.186   7.292  0.2954  0.0487 -0.2246
   13MOL   C339 9003   5.337   4.253   7.226  0.0677  0.4408  0.1074
   13MOL   H340 9004   5.769   4.390   0.674  0.8309 -0.2246  1.2170
   13MOL   H341 9005   5.894   4.504   0.613 -2.1646  1.3896  0.4503
   13MOL   H342 9006   5.927   4.339   0.611  1.5483  2.0490  0.5568
   13MOL   H343 9007   5.852   4.437   0.384  0.4612 -2.0144 -0.5043
   13MOL   H344 9008   5.694   4.456   0.457  0.5786  0.0010 -0.4330
   13MOL   H345 9009   5.747   4.180   0.492  0.1509  0.8254  0.5081
   13MOL   H346 9010   5.854   4.215   0.358 -0.2527 -0.6764 -1.0028
   13MOL   H347 9011   5.688   4.306   0.223  0.9686 -0.0022 -0.3427
   13MOL   H348 9012   5.568   4.291   0.337 -0.5944 -1.9711 -0.3964
   13MOL   H349 9013   5.714   4.043   0.218 -0.6851  0.2924 -0.5550
   13MOL   H350 9014   5.591   4.052   0.352  0.8785 -3.3876 -1.2347
   13MOL   H351 9015   5.485   3.993   0.154 -0.4186 -0.5204 -1.5313
   13MOL   H352 9016   5.451   4.165   0.180 -0.7890 -1.4777 -0.0170
   13MOL   H353 9017   5.650   4.055   7.756  0.6330  0.5829 -1.2995
   13MOL   H354 9018   5.624   4.230   0.015 -1.7381  0.0377 -0.2129
   13MOL   H355 9019   5.401   4.039   7.721  0.2889 -0.5206  0.6286
   13MOL   H356 9020   5.398   4.212   7.735 -1.1638 -1.1506 -0.9679
   13MOL   H357 9021   5.610   4.284   7.316 -1.3463  0.9669 -0.9704
   13MOL   H358 9022   5.637   4.121   7.345  1.7691  0.0527 -2.0965
   13MOL   H359 9023   5.585   4.178   7.185  1.8929 -1.8581  0.1563
   13MOL   H360 9024   5.341   4.196   7.133  0.1373 -0.1788  0.4871
   13MOL   H361 9025   5.243   4.257   7.281  0.4851 -2.2936  1.0827
   13MOL   C362 9026   4.535   5.153   7.279  0.8577 -0.4753  0.2890
   13MOL   C363 9027   4.593   5.020   7.229  0.4664  0.0347  0.0813
   13MOL   C364 9028   4.725   4.988   7.277 -0.5846 -0.3905 -0.7246
   13MOL   C365 9029   4.769   4.847   7.241  0.6325  0.1329  0.3108
   13MOL   C366 9030   4.914   4.817   7.280  0.1770 -0.8263  0.0623
   13MOL   C367 9031   4.957   4.668   7.263  0.0471 -0.4033  0.2866
   13MOL   C368 9032   4.965   4.624   7.109 -0.0537  0.1152  0.3147
   13MOL   C369 9033   5.011   4.482   7.096  0.0751 -0.1830 -0.3799
   13MOL   O370 9034   5.132   4.452   7.158 -0.0536  0.1988 -0.0641
   13MOL   C371 9035   5.245   4.450   7.088 -0.1980  0.4621 -0.3743
   13MOL   O372 9036   5.251   4.481   6.966 -0.3729 -0.1332 -0.1046
   13MOL   C373 9037   5.369   4.403   7.176 -0.5195  0.6944 -0.1262
   13MOL   C374 9038   5.489   4.421   7.089  0.2098 -0.5808 -0.0733
   13MOL   C375 9039   5.386   4.505   7.299  0.0407  0.2978  0.2798
   13MOL   H376 9040   4.428   5.140   7.297  0.8300 -1.3995 -0.4876
   13MOL   H377 9041   4.586   5.186   7.369  1.8801  0.4848 -0.6349
   13MOL   H378 9042   4.563   5.225   7.202 -0.5767 -0.9605 -0.7243
   13MOL   H379 9043   4.580   5.011   7.122 -1.0548  0.4460  0.2196
   13MOL   H380 9044   4.523   4.940   7.256 -0.1005  0.0797 -1.2300
   13MOL   H381 9045   4.725   4.988   7.386  2.2056  2.8428 -0.6355
   13MOL   H382 9046   4.793   5.068   7.246  0.2316 -1.4667 -1.7783
   13MOL   H383 9047   4.745   4.814   7.140 -0.2754  1.1103  0.1979
   13MOL   H384 9048   4.711   4.778   7.303 -0.3164  1.0905  0.4954
   13MOL   H385 9049   4.978   4.866   7.207  0.0141 -0.2658  0.2958
   13MOL   H386 9050   4.943   4.843   7.381  1.4944 -3.7366  0.4903
   13MOL   H387 9051   4.886   4.602   7.312  1.0931 -2.6769 -1.1763
   13MOL   H388 9052   5.050   4.658   7.319  1.6111  0.5778 -2.0701
   13MOL   H389 9053   5.043   4.695   7.079 -0.4297 -0.1013 -1.1683
   13MOL   H390 9054   4.875   4.644   7.051 -0.7880  0.3315  1.5027
   13MOL   H391 9055   4.931   4.425   7.146 -0.8620  2.0403  0.7145
   13MOL   H392 9056   5.005   4.453   6.991  3.0573 -1.1617 -0.3229
   13MOL   H393 9057   5.486   4.345   7.010  1.6614  0.6260 -1.3051
   13MOL   H394 9058   5.490   4.515   7.034  2.3304 -1.7356 -2.1371
   13MOL   H395 9059   5.582   4.412   7.143 -0.1418  1.2894  0.8751
   13MOL   H396 9060   5.289   4.500   7.349 -0.6851 -0.5534 -1.1610
   13MOL   H397 9061   5.446   4.455   7.374 -1.1113 -0.4767  0.6952
   13MOL   C398 9062   6.250   4.497   6.363  0.2370  0.1475 -0.2494
   13MOL   C399 9063   6.215   4.580   6.487  0.8886 -0.0736 -0.7024
   13MOL   C400 9064   6.083   4.539   6.547  0.0449  0.4851 -0.1954
   13MOL   C401 9065   6.042   4.629   6.670 -0.3718  0.4429  0.0780
   13MOL   C402 9066   5.913   4.586   6.738 -0.0718 -0.2028  0.1493
   13MOL   C403 9067   5.896   4.651   6.879 -0.1834  0.1230  0.5112
   13MOL   C404 9068   5.759   4.645   6.954  0.2808  0.3815  0.5167
   13MOL   C405 9069   5.745   4.744   7.072 -0.1876 -0.1650  0.2702
   13MOL   O406 9070   5.610   4.742   7.125 -0.0353  0.3676  0.1155
   13MOL   C407 9071   5.585   4.670   7.238 -0.2212 -0.1303 -0.2202
   13MOL   O408 9072   5.673   4.612   7.298  0.2025  0.5165  0.3295
   13MOL   C409 9073   5.437   4.661   7.281  0.0391 -0.4437 -0.1814
   13MOL   C410 9074   5.345   4.740   7.191  0.2817  0.9967 -0.4720
   13MOL   C411 9075   5.436   4.731   7.428 -0.7543  0.5827 -0.6585
   13MOL   H412 9076   6.338   4.518   6.303 -0.9153  0.3505 -1.8915
   13MOL   H413 9077   6.163   4.499   6.298 -0.2456  0.6361  0.3963
   13MOL   H414 9078   6.253   4.394   6.398 -2.4519 -0.1332 -0.7194
   13MOL   H415 9079   6.216   4.687   6.468 -1.7687 -0.0344 -0.7564
   13MOL   H416 9080   6.280   4.564   6.573 -3.6936 -2.4358  2.5168
   13MOL   H417 9081   5.995   4.539   6.482 -0.3775  0.5278  0.3712
   13MOL   H418 9082   6.098   4.438   6.585 -1.0050  1.1304  2.0600
   13MOL   H419 9083   6.031   4.736   6.655  2.2617  0.5536 -1.3549
   13MOL   H420 9084   6.119   4.616   6.747 -0.7633 -1.1920  0.2226
   13MOL   H421 9085   5.823   4.593   6.676  0.1136 -3.0792 -0.5328
   13MOL   H422 9086   5.906   4.479   6.760 -3.4433  0.0498  0.6406
   13MOL   H423 9087   5.921   4.757   6.871 -2.5503  0.8971  2.6458
   13MOL   H424 9088   5.971   4.621   6.952  0.1678  2.5557  1.2064
   13MOL   H425 9089   5.678   4.658   6.882 -1.0532 -1.2799  1.6514
   13MOL   H426 9090   5.755   4.542   6.991 -2.0194  0.8540  1.6812
   13MOL   H427 9091   5.824   4.722   7.144 -0.6573 -0.6096  0.6574
   13MOL   H428 9092   5.777   4.846   7.049 -0.1022  0.1946  1.9068
   13MOL   H429 9093   5.244   4.745   7.233  1.3632  0.8978  2.2698
   13MOL   H430 9094   5.334   4.689   7.096 -1.6009  0.2286  0.1311
   13MOL   H431 9095   5.385   4.840   7.176  0.7843  1.1793  1.8373
   13MOL   H432 9096   5.507   4.674   7.488 -1.4940  0.9257  0.5654
   13MOL   H433 9097   5.342   4.700   7.473 -0.7275  0.1710 -0.8823
   13MOL   C434 9098   4.523   5.575   7.547 -0.7896 -0.7224  0.0221
   13MOL   C435 9099   4.602   5.541   7.418 -0.7922  0.9382 -0.1055
   13MOL   C436 9100   4.752   5.492   7.435 -0.2356 -0.1406 -0.5561
   13MOL   C437 9101   4.837   5.446   7.323 -0.6500  0.0100 -0.4039
   13MOL   C438 9102   4.972   5.395   7.377  0.4242  0.7878  0.2713
   13MOL   C439 9103   5.028   5.272   7.297 -0.5238  0.4831 -0.2328
   13MOL   C440 9104   5.164   5.228   7.342 -0.5776  0.1380 -0.5751
   13MOL   C441 9105   5.228   5.127   7.252 -0.0842 -0.1504  0.4420
   13MOL   O442 9106   5.339   5.054   7.320 -0.2643  0.1961  0.1993
   13MOL   C443 9107   5.310   4.947   7.400  0.4620 -1.3078  0.2113
   13MOL   O444 9108   5.192   4.905   7.432  0.0976  0.3928  0.4137
   13MOL   C445 9109   5.437   4.883   7.460 -0.0250  0.1543 -0.0334
   13MOL   C446 9110   5.565   4.944   7.394 -0.5295  0.5570 -0.0872
   13MOL   C447 9111   5.420   4.888   7.622 -0.0364  0.2002  0.3009
   13MOL   H448 9112   4.550   5.673   7.588 -1.2890 -1.7485  2.9386
   13MOL   H449 9113   4.556   5.502   7.621  3.0008  1.3690  0.5494
   13MOL   H450 9114   4.415   5.568   7.538 -0.7867  0.0811 -0.7296
   13MOL   H451 9115   4.615   5.634   7.364  2.2675  0.7029  0.1126
   13MOL   H452 9116   4.536   5.479   7.357 -0.3170  1.1633 -0.8554
   13MOL   H453 9117   4.760   5.407   7.503  3.6595 -1.4665 -2.5535
   13MOL   H454 9118   4.808   5.572   7.483 -1.2974  1.7689 -2.4126
   13MOL   H455 9119   4.857   5.526   7.252  1.3846  0.4513  0.6502
   13MOL   H456 9120   4.801   5.356   7.272 -1.1192 -0.1104  0.1289
   13MOL   H457 9121   5.054   5.467   7.371  1.5525 -0.5990 -1.5775
   13MOL   H458 9122   4.964   5.359   7.479  3.0835 -0.1331  0.1833
   13MOL   H459 9123   5.026   5.301   7.192 -0.5593  0.7780 -0.1523
   13MOL   H460 9124   4.959   5.188   7.301  1.5782 -1.2268  0.8038
   13MOL   H461 9125   5.221   5.318   7.364  0.2231 -0.3292 -0.7160
   13MOL   H462 9126   5.141   5.177   7.436  0.3066 -0.5586 -0.7273
   13MOL   H463 9127   5.274   5.176   7.166  2.4811 -2.5353  0.3916
   13MOL   H464 9128   5.156   5.055   7.213 -2.1272  2.2693 -0.4596
   13MOL   H465 9129   5.573   4.933   7.286 -1.2814  0.8656 -0.1780
   13MOL   H466 9130   5.570   5.052   7.403  4.0292  0.4176  0.0851
   13MOL   H467 9131   5.663   4.907   7.425 -1.6388 -1.9444  0.5596
   13MOL   H468 9132   5.316   4.864   7.643 -0.6192  1.3928 -1.1860
   13MOL   H469 9133   5.474   4.803   7.664  1.6058  2.0540  2.0124
   13MOL   C470 9134   6.363   5.730   7.719 -0.4058 -0.0642 -0.3942
   13MOL   C471 9135   6.365   5.640   7.594 -0.7097  0.2978 -0.6171
   13MOL   C472 9136   6.231   5.588   7.547  0.2373  0.0981  0.5044
   13MOL   C473 9137   6.180   5.477   7.643  0.0498 -0.0680  0.2613
   13MOL   C474 9138   6.033   5.442   7.605 -0.7971  0.0733  0.2946
   13MOL   C475 9139   5.977   5.331   7.700 -0.2136  0.0405  0.1246
   13MOL   C476 9140   5.830   5.296   7.686 -1.1899 -0.6629 -0.9453
   13MOL   C477 9141   5.780   5.187   0.010  0.2628  0.2361 -0.3593
   13MOL   O478 9142   5.642   5.157   7.769 -0.0410 -0.1359 -0.2451
   13MOL   C479 9143   5.603   5.043   7.718 -0.0115 -0.4003  0.3969
   13MOL   O480 9144   5.676   4.949   7.694  0.4620  0.8400 -0.9003
   13MOL   C481 9145   5.448   5.019   7.706 -0.1589  0.5002  0.0373
   13MOL   C482 9146   5.379   5.148   7.645 -1.1627 -0.1207  0.0258
   13MOL   C483 9147   5.380   5.010   0.065  0.0118 -1.1322  0.1813
   13MOL   H484 9148   6.342   5.676   0.032  1.2622  0.3535  0.2541
   13MOL   H485 9149   6.281   5.801   7.720  0.2198  0.6714  1.4008
   13MOL   H486 9150   6.454   5.785   7.744 -0.8736  0.5289  0.0032
   13MOL   H487 9151   6.423   5.677   7.509 -2.9376  0.6445 -2.0170
   13MOL   H488 9152   6.426   5.551   7.612 -0.4246  0.8745  1.3781
   13MOL   H489 9153   6.153   5.665   7.544 -0.8444 -0.9734  0.7388
   13MOL   H490 9154   6.229   5.556   7.443 -0.4821 -0.7202  0.7658
   13MOL   H491 9155   6.250   5.395   7.650  1.6354  1.3828  1.9031
   13MOL   H492 9156   6.182   5.520   7.743 -2.2702 -1.6387  1.0350
   13MOL   H493 9157   5.980   5.538   7.602  1.4176  1.3108 -0.5490
   13MOL   H494 9158   6.020   5.400   7.506  0.1532 -0.2722  0.3143
   13MOL   H495 9159   6.047   5.249   7.688 -0.2607 -0.0763  0.6468
   13MOL   H496 9160   5.983   5.368   0.023 -0.4823  0.3405  0.0339
   13MOL   H497 9161   5.766   5.382   7.707  2.0718  0.8560  3.7127
   13MOL   H498 9162   5.804   5.263   7.585 -0.1199 -1.0963 -1.0888
   13MOL   H499 9163   5.800   5.229   0.109 -0.7357 -2.1194  0.8757
   13MOL   H500 9164   5.841   5.097   0.007 -1.2959 -0.8804  0.8125
   13MOL   H501 9165   5.406   5.242   7.696 -0.0667  0.3011 -1.3065
   13MOL   H502 9166   5.271   5.147   7.652 -1.3993  2.4412 -2.3282
   13MOL   H503 9167   5.394   5.170   7.540  2.1264  0.9570  0.6527
   13MOL   H504 9168   5.374   5.113   0.100 -1.2694 -1.2849  0.4434
   13MOL   H505 9169   5.279   4.982   0.033 -0.7210  2.8059 -1.2221
   13MOL   C506 9170   4.441   4.767   7.535  0.0811 -0.1036  0.1745
   13MOL   C507 9171   4.538   4.717   7.643 -0.7080  0.9346 -0.1706
   13MOL   C508 9172   4.680   4.702   7.592 -0.2841  0.6748  0.5497
   13MOL   C509 9173   4.783   4.666   7.698  0.4114 -0.0582  0.7636
   13MOL   C510 9174   4.926   4.640   7.643  0.3238  0.1335 -0.2724
   13MOL   C511 9175   5.022   4.631   7.758  0.7578  0.1157  0.0565
   13MOL   C512 9176   5.169   4.600   7.708  0.0910 -0.0714 -0.4308
   13MOL   C513 9177   5.273   4.604   0.037  0.1462 -0.5450  0.5104
   13MOL   O514 9178   5.301   4.731   0.090  0.2051 -0.0652  0.0750
   13MOL   C515 9179   5.414   4.762   0.157  0.3575 -0.3320  0.0679
   13MOL   O516 9180   5.505   4.682   0.187 -0.3233 -0.7809 -0.1032
   13MOL   C517 9181   5.421   4.917   0.191 -0.2526 -0.1713 -0.1969
   13MOL   C518 9182   5.565   4.953   0.247  0.1501 -0.3789  0.1794
   13MOL   C519 9183   5.318   4.926   0.310 -0.5547 -0.1444 -0.0714
   13MOL   H520 9184   4.463   4.723   7.438 -1.5226 -0.6323  0.0317
   13MOL   H521 9185   4.457   4.873   7.516 -0.1185  0.2378  1.8845
   13MOL   H522 9186   4.336   4.755   7.562  0.6056 -3.3100  0.9271
   13MOL   H523 9187   4.494   4.622   7.673 -0.7588  0.2136 -2.4427
   13MOL   H524 9188   4.537   4.785   7.728 -1.4499 -1.0118  1.4283
   13MOL   H525 9189   4.674   4.629   7.511 -2.7852  2.1746 -0.6995
   13MOL   H526 9190   4.714   4.789   7.536  2.0834 -0.7680 -0.3358
   13MOL   H527 9191   4.787   4.749   7.768 -0.4977  0.7910 -0.1790
   13MOL   H528 9192   4.751   4.580   7.758  1.1816 -0.8488  0.0580
   13MOL   H529 9193   4.940   4.551   7.583  0.2954  0.9496 -1.4978
   13MOL   H530 9194   4.952   4.721   7.575  1.5820  1.2571  1.5006
   13MOL   H531 9195   4.983   4.556   0.047  0.2639 -0.5539 -0.9431
   13MOL   H532 9196   5.011   4.721   0.039  1.0452 -1.0249  1.8516
   13MOL   H533 9197   5.194   4.675   7.634 -0.8363  0.5087 -0.1653
   13MOL   H534 9198   5.175   4.506   7.652 -0.6192 -0.7617  0.6287
   13MOL   H535 9199   5.360   4.576   7.757 -0.4506  0.4535 -0.8733
   13MOL   H536 9200   5.264   4.527   0.113  0.0366 -1.9479 -0.9045
   13MOL   H537 9201   5.578   5.062   0.241  0.5315 -0.4878 -1.1942
   13MOL   H538 9202   5.650   4.903   0.200  0.3188  0.1551 -0.0897
   13MOL   H539 9203   5.579   4.925   0.351  2.8845 -3.6556 -0.9914
   13MOL   H540 9204   5.229   4.869   0.284 -0.5562  0.5714 -1.7358
   13MOL   H541 9205   5.363   4.871   0.392  2.2871 -1.0451 -2.1505
   13MOL   C542 9206   4.316   5.259   7.576 -0.2125  0.2796 -0.0978
   13MOL   C543 9207   4.364   5.242   7.720  0.1274 -0.1527  0.2123
   13MOL   C544 9208   4.476   5.144   7.749  0.1543  0.5019  0.2094
   13MOL   C545 9209   4.611   5.179   7.689 -0.4522  0.7639  0.1824
   13MOL   C546 9210   4.725   5.099   7.747 -0.2871 -0.0871 -0.1764
   13MOL   C547 9211   4.857   5.114   7.669  0.0303 -0.1439 -0.9024
   13MOL   C548 9212   4.969   5.049   7.740 -0.1638  0.0983  0.0494
   13MOL   C549 9213   5.016   5.122   0.089  0.3388 -0.5413 -0.8155
   13MOL   O550 9214   5.105   5.068   0.183 -0.2427 -0.1035  0.2740
   13MOL   C551 9215   5.170   5.138   0.278 -0.0432 -0.7239  0.1862
   13MOL   O552 9216   5.163   5.262   0.294  0.2219  0.1276  0.2226
   13MOL   C553 9217   5.260   5.058   0.379  0.6121 -0.4125  0.5261
   13MOL   C554 9218   5.376   5.143   0.421 -0.0690  0.1893  0.1298
   13MOL   C555 9219   5.180   5.031   0.512 -0.0552 -0.0849  0.0307
   13MOL   H556 9220   4.389   5.308   7.512 -0.3931 -1.1187 -1.4196
   13MOL   H557 9221   4.217   5.306   7.578 -0.1234  0.5199 -1.2098
   13MOL   H558 9222   4.292   5.168   7.522 -1.3313  1.9922 -2.5993
   13MOL   H559 9223   4.396   5.340   7.757  4.4839 -1.1237 -0.6853
   13MOL   H560 9224   4.277   5.216   0.001  1.3216 -0.7756  1.7088
   13MOL   H561 9225   4.445   5.046   7.711  1.5725  0.6422 -1.3682
   13MOL   H562 9226   4.486   5.126   0.076 -0.6872  0.8440  0.3472
   13MOL   H563 9227   4.605   5.162   7.582  0.2132 -1.9246  0.5339
   13MOL   H564 9228   4.631   5.283   7.713 -1.8837  1.0874  0.0047
   13MOL   H565 9229   4.693   4.996   7.759  0.8096 -0.2578  1.5256
   13MOL   H566 9230   4.741   5.147   0.064  0.0060 -1.9179  0.7057
   13MOL   H567 9231   4.835   5.073   7.571 -1.4698  0.0720 -0.6739
   13MOL   H568 9232   4.881   5.220   7.657  1.9081 -0.5043 -0.4637
   13MOL   H569 9233   4.948   4.943   7.752 -1.0242  0.3635  0.8884
   13MOL   H570 9234   5.048   5.062   7.666 -0.8014  2.5561 -0.2451
   13MOL   H571 9235   4.933   5.151   0.153  0.0850  4.2158 -3.1151
   13MOL   H572 9236   5.067   5.211   0.054 -0.8900  1.2288  1.7574
   13MOL   H573 9237   5.432   5.191   0.341 -1.3172  1.4231 -0.0186
   13MOL   H574 9238   5.453   5.092   0.480  0.6683  1.7687  0.5535
   13MOL   H575 9239   5.352   5.230   0.481  1.5750  0.0358  1.0649
   13MOL   H576 9240   5.178   5.113   0.583 -0.4740  0.0445 -0.1292
   13MOL   H577 9241   5.252   4.976   0.573 -1.1023 -0.7150  0.7219
   13MOL   C578 9242   5.405   4.965   1.048  0.6681  0.3471 -0.4715
   13MOL   C579 9243   5.378   4.819   0.985 -0.2833 -0.7140 -1.0297
   13MOL   C580 9244   5.400   4.818   0.837 -0.0052  0.5628  0.3786
   13MOL   C581 9245   5.390   4.664   0.784  0.9479 -0.0235  0.6301
   13MOL   C582 9246   5.433   4.647   0.637 -0.3913  0.2486 -0.4537
   13MOL   C583 9247   5.386   4.502   0.578 -0.3377 -0.0548  0.3524
   13MOL   C584 9248   5.239   4.485   0.561 -0.1839 -0.0476 -0.3290
   13MOL   C585 9249   5.170   4.577   0.457  0.3632 -0.7571  0.0680
   13MOL   O586 9250   5.145   4.707   0.518  0.1517 -0.3063  0.1434
   13MOL   C587 9251   5.059   4.800   0.464 -0.7194  0.0959 -0.9106
   13MOL   O588 9252   4.998   4.763   0.367 -0.1236  0.1552  0.1635
   13MOL   C589 9253   5.051   4.940   0.528  0.4523 -0.2606 -0.6340
   13MOL   C590 9254   4.938   5.024   0.463  0.2986  0.2936  0.1223
   13MOL   C591 9255   5.038   4.931   0.690 -0.2668  0.3682 -0.1941
   13MOL   H592 9256   5.512   4.986   1.057  1.0567 -2.5773  2.7495
   13MOL   H593 9257   5.370   4.966   1.151 -1.1980  4.6233 -1.0665
   13MOL   H594 9258   5.351   5.044   0.996 -0.7447 -0.2201  0.1172
   13MOL   H595 9259   5.278   4.782   1.009 -0.5372 -0.3176 -1.4754
   13MOL   H596 9260   5.445   4.750   1.036  1.1041  0.6170 -1.0204
   13MOL   H597 9261   5.506   4.838   0.822  0.6767 -3.6674 -1.2673
   13MOL   H598 9262   5.337   4.887   0.782  1.8175  1.4479 -0.6215
   13MOL   H599 9263   5.286   4.636   0.803  0.9128  1.6751  3.1659
   13MOL   H600 9264   5.458   4.608   0.849 -0.3025 -0.1643  1.8348
   13MOL   H601 9265   5.541   4.660   0.629 -0.4981  1.7777  0.2999
   13MOL   H602 9266   5.403   4.723   0.565 -1.0735 -1.5042 -2.0373
   13MOL   H603 9267   5.424   4.429   0.650 -0.6194 -0.0143  0.5424
   13MOL   H604 9268   5.432   4.482   0.482 -1.3985  2.6341 -0.7536
   13MOL   H605 9269   5.188   4.490   0.658  1.2340 -0.6336  0.4550
   13MOL   H606 9270   5.216   4.384   0.527 -1.2818  0.1558 -0.2238
   13MOL   H607 9271   5.220   4.577   0.360 -0.0957 -2.0055 -0.1714
   13MOL   H608 9272   5.069   4.541   0.437  0.1301  1.0344 -2.1666
   13MOL   H609 9273   4.912   5.002   0.360 -1.1712  0.2154  0.4953
   13MOL   H610 9274   4.843   4.997   0.509  0.9393  0.8633  1.8080
   13MOL   H611 9275   4.941   5.133   0.467 -0.5994  0.3462 -0.4482
   13MOL   H612 9276   5.050   5.032   0.731  1.3447 -0.0122  0.2945
   13MOL   H613 9277   5.125   4.875   0.723 -1.0306 -1.1002 -0.6246
   13MOL   C614 9278   5.264   5.339   0.777  1.1264  0.0531 -0.1743
   13MOL   C615 9279   5.267   5.329   0.932 -0.1846 -0.1019 -0.2013
   13MOL   C616 9280   5.142   5.255   0.988  0.4536 -0.0761 -0.1187
   13MOL   C617 9281   5.010   5.321   0.946 -0.4811 -0.3011  0.2368
   13MOL   C618 9282   4.891   5.283   1.032 -0.6539 -0.5588 -0.1045
   13MOL   C619 9283   4.750   5.331   0.987 -0.2700 -0.1385 -0.1249
   13MOL   C620 9284   4.729   5.310   0.829 -0.1163  0.1563 -0.1112
   13MOL   C621 9285   4.691   5.175   0.772  0.4127  0.3648 -0.0734
   13MOL   O622 9286   4.808   5.091   0.778 -0.9121  0.1268  0.1074
   13MOL   C623 9287   4.787   4.964   0.751 -0.1588 -0.7194 -0.3161
   13MOL   O624 9288   4.683   4.915   0.710  0.0169  0.3325 -0.6892
   13MOL   C625 9289   4.918   4.875   0.771 -0.1823 -0.8493 -0.4690
   13MOL   C626 9290   4.886   4.733   0.713 -0.7928  0.0336 -0.1060
   13MOL   C627 9291   4.970   4.890   0.926 -0.3122  0.5749  0.9646
   13MOL   H628 9292   5.224   5.438   0.755  1.9302  0.9553  2.1715
   13MOL   H629 9293   5.205   5.259   0.733  1.9432  0.1069 -1.3865
   13MOL   H630 9294   5.367   5.343   0.740  0.4808 -3.5812 -2.6165
   13MOL   H631 9295   5.359   5.277   0.960  0.5208  0.6765 -1.0631
   13MOL   H632 9296   5.275   5.428   0.977 -0.8044  0.5969 -1.6046
   13MOL   H633 9297   5.150   5.232   1.094  1.6567 -1.1550 -0.4297
   13MOL   H634 9298   5.147   5.150   0.958 -2.1611 -0.1224 -0.5108
   13MOL   H635 9299   5.004   5.300   0.839  1.9832 -0.9840  0.2008
   13MOL   H636 9300   5.011   5.429   0.956  0.5231 -0.3358  0.5667
   13MOL   H637 9301   4.902   5.175   1.026  0.4233 -0.4456 -0.3898
   13MOL   H638 9302   4.920   5.296   1.136  3.1079  1.7231 -1.3175
   13MOL   H639 9303   4.671   5.289   1.049  0.9406  1.1072  2.3338
   13MOL   H640 9304   4.742   5.436   1.015 -0.4549 -0.2011  0.0558
   13MOL   H641 9305   4.810   5.357   0.775 -0.9416  0.1055 -1.4072
   13MOL   H642 9306   4.637   5.366   0.812 -0.5367  0.0863  1.8022
   13MOL   H643 9307   4.617   5.123   0.833 -1.5222  1.5220 -1.3843
   13MOL   H644 9308   4.653   5.185   0.671  0.4394  1.3660  0.0077
   13MOL   H645 9309   4.962   4.655   0.713  0.0085  0.8082  1.8750
   13MOL   H646 9310   4.846   4.740   0.611  0.4116 -2.4835 -0.8045
   13MOL   H647 9311   4.806   4.681   0.766  0.0830 -1.7487 -0.4785
   13MOL   H648 9312   4.988   4.997   0.939 -1.2225  0.7241  1.0659
   13MOL   H649 9313   5.070   4.848   0.924 -0.8539 -0.6873 -0.7237
   13MOL   C650 9314   5.115   3.719   0.867  0.3378 -0.4163 -0.1624
   13MOL   C651 9315   4.992   3.816   0.856 -0.6495  0.0814 -0.4583
   13MOL   C652 9316   5.045   3.961   0.863  0.6119  0.6659  0.1998
   13MOL   C653 9317   4.949   4.051   0.778 -1.3116 -0.3764 -0.2996
   13MOL   C654 9318   4.997   4.196   0.769  0.1151 -0.1748  0.6829
   13MOL   C655 9319   4.973   4.269   0.902  0.0833 -0.4092 -0.3371
   13MOL   C656 9320   5.016   4.417   0.903 -0.6811 -0.4075 -0.0843
   13MOL   C657 9321   5.000   4.472   1.048  0.1322  0.6973 -0.2829
   13MOL   O658 9322   5.005   4.611   1.044  0.3792  0.5877 -0.4388
   13MOL   C659 9323   4.891   4.677   1.058 -0.2300  0.7691  0.1911
   13MOL   O660 9324   4.779   4.617   1.071  0.0116  0.5860 -0.9390
   13MOL   C661 9325   4.899   4.833   1.055  0.0027  0.0834  0.1148
   13MOL   C662 9326   4.749   4.883   1.059  0.8655 -0.3046  0.0826
   13MOL   C663 9327   4.985   4.896   1.171  0.2427 -0.8678 -0.0092
   13MOL   H664 9328   5.157   3.696   0.769  0.1066 -0.8142 -0.1668
   13MOL   H665 9329   5.083   3.621   0.900  0.7197  0.4634  2.9591
   13MOL   H666 9330   5.202   3.745   0.928  1.2259 -0.4713 -1.3655
   13MOL   H667 9331   4.917   3.792   0.931  1.1014  0.2986  1.4094
   13MOL   H668 9332   4.938   3.795   0.764 -1.1519 -0.3996 -0.0565
   13MOL   H669 9333   5.149   3.969   0.831 -0.1916  2.0038 -2.1934
   13MOL   H670 9334   5.050   3.994   0.966  2.6636  1.4327 -0.1280
   13MOL   H671 9335   4.846   4.051   0.815 -1.5907 -0.6082 -1.0787
   13MOL   H672 9336   4.945   4.008   0.679  0.6218  0.8394 -0.9259
   13MOL   H673 9337   4.944   4.250   0.691  1.5636  1.3229  0.7117
   13MOL   H674 9338   5.104   4.194   0.751 -0.1947  0.7929 -1.4541
   13MOL   H675 9339   4.866   4.262   0.921 -0.0302  2.5749  0.3730
   13MOL   H676 9340   5.034   4.216   0.976  3.0251  1.2474 -1.4875
   13MOL   H677 9341   4.960   4.480   0.834  0.6419  0.4763 -0.3816
   13MOL   H678 9342   5.121   4.417   0.874 -0.5884 -0.6971  0.2579
   13MOL   H679 9343   5.088   4.435   1.100  0.7639  2.2368 -0.2138
   13MOL   H680 9344   4.913   4.429   1.097  0.9582 -1.0871 -0.3306
   13MOL   H681 9345   4.745   4.991   1.050 -1.7336 -0.2635  1.2240
   13MOL   H682 9346   4.689   4.853   1.145 -0.3340  2.5834  0.2947
   13MOL   H683 9347   4.690   4.842   0.976  1.3008 -1.1836  0.1990
   13MOL   H684 9348   5.089   4.873   1.148  0.0753 -1.3327 -0.3207
   13MOL   H685 9349   4.993   5.004   1.156 -1.7312 -0.5567  1.0991
   13MOL   C686 9350   5.188   5.708   1.853  0.0767 -0.2475  0.5689
   13MOL   C687 9351   5.182   5.614   1.734  0.1702 -0.2988  0.3055
   13MOL   C688 9352   5.038   5.572   1.700 -0.1888 -0.5454  0.2938
   13MOL   C689 9353   5.012   5.465   1.603 -0.2418 -0.1850 -0.4965
   13MOL   C690 9354   4.864   5.428   1.585 -0.0087  0.7498  0.7322
   13MOL   C691 9355   4.839   5.341   1.459  0.7167  0.1719 -0.0642
   13MOL   C692 9356   4.711   5.246   1.467  0.2061 -0.6912  1.1325
   13MOL   C693 9357   4.686   5.156   1.344  0.3825 -0.3240 -0.0587
   13MOL   O694 9358   4.803   5.082   1.323  0.4111  0.3273 -0.3072
   13MOL   C695 9359   4.819   4.952   1.366 -0.0481 -0.6057 -0.3005
   13MOL   O696 9360   4.748   4.895   1.449 -0.2564 -0.2554  0.2227
   13MOL   C697 9361   4.947   4.877   1.320 -0.4125  0.0881  0.5514
   13MOL   C698 9362   5.063   4.942   1.395  0.4077 -0.0907 -0.1778
   13MOL   C699 9363   4.941   4.731   1.363 -0.2723 -0.2747 -0.3052
   13MOL   H700 9364   5.290   5.740   1.876  0.0707  0.8149 -0.8079
   13MOL   H701 9365   5.146   5.660   1.941 -0.2681  1.4732  1.3586
   13MOL   H702 9366   5.138   5.802   1.833  1.0200  0.5458  1.9112
   13MOL   H703 9367   5.240   5.524   1.752  2.0095  0.7211 -0.3611
   13MOL   H704 9368   5.235   5.654   1.648  1.8963 -0.7127  1.1642
   13MOL   H705 9369   4.990   5.662   1.662  0.7271 -1.0935 -2.3178
   13MOL   H706 9370   4.983   5.544   1.790  0.3901 -0.0157  0.8104
   13MOL   H707 9371   5.060   5.373   1.638  2.1066  0.5330 -1.7193
   13MOL   H708 9372   5.058   5.489   1.507  0.8735  1.5346  0.4491
   13MOL   H709 9373   4.800   5.516   1.574 -0.5228  0.3503  0.5330
   13MOL   H710 9374   4.846   5.379   1.680  0.3265  0.2657  0.5482
   13MOL   H711 9375   4.815   5.399   1.370  0.0061 -1.0199 -0.6620
   13MOL   H712 9376   4.923   5.274   1.438 -0.1455 -0.3851 -1.8232
   13MOL   H713 9377   4.721   5.192   1.562  1.9441  1.6536  2.3514
   13MOL   H714 9378   4.631   5.319   1.474  1.1721  0.3729  1.2249
   13MOL   H715 9379   4.669   5.212   1.253  0.9713 -2.8783 -1.7826
   13MOL   H716 9380   4.600   5.092   1.366  0.6229  0.0557  2.1478
   13MOL   H717 9381   5.067   5.043   1.352  1.5047 -0.5016 -1.0575
   13MOL   H718 9382   5.056   4.942   1.504 -0.5098  0.8357 -0.2262
   13MOL   H719 9383   5.163   4.901   1.381  0.4673  0.3713 -1.1304
   13MOL   H720 9384   4.937   4.724   1.471  0.7903  0.2248 -0.2379
   13MOL   H721 9385   5.030   4.671   1.342 -0.1131 -0.4554  0.8557
   13MOL   H722 9386   4.855   4.687   1.312 -1.3511  0.0688  1.2112
   14MOL     C1 9387   1.113   1.550   6.484  0.1536 -0.2166  0.3447
   14MOL     C2 9388   1.131   1.402   6.487  0.0599  0.2299 -0.2110
   14MOL     C3 9389   1.177   1.361   6.624  0.4462  0.2650  0.0601
   14MOL     C4 9390   1.185   1.209   6.632  0.2688  0.2576  0.1366
   14MOL     C5 9391   1.325   1.146   6.590 -0.1910  0.3104 -0.2747
   14MOL     C6 9392   1.340   1.004   6.642 -0.8193  0.8186 -0.2998
   14MOL     C7 9393   1.470   0.951   6.586  0.5257 -1.2908  0.4408
   14MOL     C8 9394   1.510   0.823   6.661  0.2955 -0.3072 -0.4494
   14MOL     O9 9395   1.638   0.787   6.622 -0.2350  0.3766 -0.0304
   14MOL    C10 9396   1.681   0.663   6.644 -0.5312  0.5726  0.0514
   14MOL    O11 9397   1.620   0.578   6.713 -0.4265 -0.1898  0.7516
   14MOL    C12 9398   1.820   0.632   6.588 -0.4276 -0.1589  1.0230
   14MOL    C13 9399   1.820   0.652   6.435  0.0374 -0.0158 -0.6286
   14MOL    C14 9400   1.918   0.717   6.670 -0.3121  0.4771  0.5207
   14MOL    H15 9401   1.210   1.593   6.510  1.1140 -2.3707  0.4042
   14MOL    H16 9402   1.031   1.583   6.549 -1.2948 -1.0225 -1.0331
   14MOL    H17 9403   1.101   1.576   6.379  1.3149 -0.9497  0.0212
   14MOL    H18 9404   1.207   1.370   6.416 -2.2936  1.6449 -3.4797
   14MOL    H19 9405   1.035   1.359   6.459 -0.0568  0.7340 -0.5835
   14MOL    H20 9406   1.270   1.411   6.652  1.1938 -0.5397 -0.9168
   14MOL    H21 9407   1.114   1.398   6.705  1.1615 -2.7768  2.0757
   14MOL    H22 9408   1.179   1.198   6.740 -3.5080  2.2886  0.1820
   14MOL    H23 9409   1.096   1.161   6.591  0.0102  1.7634 -1.0903
   14MOL    H24 9410   1.405   1.215   6.618 -1.2116  1.5830 -0.4331
   14MOL    H25 9411   1.330   1.155   6.481  0.3427  0.7546 -0.2141
   14MOL    H26 9412   1.262   0.946   6.593 -2.4295  0.1922  2.8497
   14MOL    H27 9413   1.338   0.998   6.751  2.6799 -0.9455 -0.2421
   14MOL    H28 9414   1.550   1.024   6.600 -0.5020  0.2609 -1.5559
   14MOL    H29 9415   1.463   0.936   6.478  1.1258 -0.0767  0.2166
   14MOL    H30 9416   1.441   0.740   6.667  0.4453 -0.4268 -0.3918
   14MOL    H31 9417   1.524   0.847   6.766 -3.2861 -0.4457  0.0953
   14MOL    H32 9418   1.914   0.620   6.390  0.2383 -0.1341 -0.1306
   14MOL    H33 9419   1.739   0.600   6.384  0.5518 -1.5624  0.1069
   14MOL    H34 9420   1.800   0.757   6.413  1.0918  0.3195 -0.0270
   14MOL    H35 9421   1.865   0.803   6.712  0.0296 -0.4530  2.9534
   14MOL    H36 9422   1.982   0.761   6.594  1.2720  0.6896  1.9609
   14MOL    H37 9423   1.830   0.524   6.601  1.6870 -0.3786 -1.8940
   14MOL    C38 9424   2.351   7.363   7.160  0.2677  0.1036  0.3785
   14MOL    C39 9425   2.403   7.493   7.091  0.2720  0.3375  0.2140
   14MOL    C40 9426   2.308   7.606   7.077 -0.2079 -0.2627 -0.0805
   14MOL    C41 9427   2.358   7.724   6.991  0.8637 -0.2935  0.3607
   14MOL    C42 9428   2.244   0.050   6.969  0.0661 -0.0723 -0.2366
   14MOL    C43 9429   2.284   0.164   6.879 -0.1448 -0.0382 -0.0386
   14MOL    C44 9430   2.160   0.260   6.862 -0.5713  0.7590  0.3168
   14MOL    C45 9431   2.178   0.360   6.745  0.0627  0.3289 -1.0097
   14MOL    O46 9432   2.076   0.453   6.765 -0.2971  0.0721  0.2970
   14MOL    C47 9433   2.099   0.587   6.752 -0.4372 -0.1557  0.2769
   14MOL    O48 9434   2.192   0.645   6.695 -0.2245  0.2714 -0.5084
   14MOL    C49 9435   1.988   0.669   6.800  0.6488  0.1308  0.0176
   14MOL    C50 9436   1.884   0.592   6.899 -0.5490 -0.8611  0.3183
   14MOL    C51 9437   2.043   0.801   6.864  0.0805 -0.5385  0.1379
   14MOL    H52 9438   2.418   7.278   7.173  0.5665  0.1682 -0.6883
   14MOL    H53 9439   2.263   7.319   7.115 -0.1509  1.2885  0.0169
   14MOL    H54 9440   2.327   7.386   7.264  1.9562 -1.0423  1.0438
   14MOL    H55 9441   2.449   7.467   6.996  0.3256 -0.9080  0.5767
   14MOL    H56 9442   2.482   7.524   7.159  0.6699  1.0226 -0.5430
   14MOL    H57 9443   2.221   7.575   7.018  0.5411 -1.1237 -0.7537
   14MOL    H58 9444   2.270   7.641   7.173 -0.0885  0.1013 -0.1673
   14MOL    H59 9445   2.393   7.683   6.896  0.9715 -1.3421  0.8532
   14MOL    H60 9446   2.449   7.771   7.030  1.5244  0.5463 -2.0951
   14MOL    H61 9447   2.152   0.005   6.933  0.5949 -1.8061  0.5421
   14MOL    H62 9448   2.222   0.092   7.067 -1.1523  0.5729 -0.7814
   14MOL    H63 9449   2.373   0.214   6.916 -0.2394 -0.6901  1.0937
   14MOL    H64 9450   2.321   0.125   6.784  1.0307  0.7670  0.0871
   14MOL    H65 9451   2.133   0.313   6.954 -1.5320  0.5264  0.1686
   14MOL    H66 9452   2.077   0.190   6.855  0.6159 -0.6740  0.2005
   14MOL    H67 9453   2.172   0.313   6.646  0.7685 -0.6944 -0.5808
   14MOL    H68 9454   2.277   0.406   6.754 -0.0099 -0.1482  2.6473
   14MOL    H69 9455   1.834   0.503   6.862  1.8038 -1.8041 -0.6269
   14MOL    H70 9456   1.916   0.563   6.999  2.3342 -1.9517 -0.8727
   14MOL    H71 9457   1.797   0.657   6.911  0.2452  0.0205  1.5264
   14MOL    H72 9458   1.955   0.862   6.885 -1.0212 -1.8550 -0.5359
   14MOL    H73 9459   2.085   0.864   6.787  1.5209 -1.3171  0.2669
   14MOL    C74 9460   1.552   1.481   6.850  0.0408  0.5170 -0.2446
   14MOL    C75 9461   1.584   1.334   6.841 -0.0979 -0.3896  0.0495
   14MOL    C76 9462   1.570   1.254   6.969 -0.1151 -0.4270  0.7887
   14MOL    C77 9463   1.603   1.109   6.943 -0.2803 -0.0749 -0.5733
   14MOL    C78 9464   1.623   1.028   7.073  0.0238  0.0674 -0.4511
   14MOL    C79 9465   1.672   0.882   7.042 -0.8154  0.5266  0.0837
   14MOL    C80 9466   1.726   0.797   7.155 -0.2380 -0.3677 -0.1796
   14MOL    C81 9467   1.848   0.857   7.234  0.1648 -0.0115 -1.2751
   14MOL    O82 9468   1.955   0.879   7.140 -0.1666 -0.8872  0.2401
   14MOL    C83 9469   2.050   0.783   7.118  0.3365  0.3726 -0.0741
   14MOL    O84 9470   2.067   0.684   7.186 -0.1039  0.0645 -0.0825
   14MOL    C85 9471   2.137   0.806   6.990  0.4763  0.4008 -0.2163
   14MOL    C86 9472   2.255   0.709   6.977  0.1726  0.3894  0.4571
   14MOL    C87 9473   2.194   0.950   7.002 -0.3202 -0.0423 -0.0400
   14MOL    H88 9474   1.573   1.532   6.756  1.3700  1.8106  0.7331
   14MOL    H89 9475   1.604   1.537   6.928  0.8466 -0.6854  0.0984
   14MOL    H90 9476   1.446   1.484   6.876  0.8546  2.4220  3.1110
   14MOL    H91 9477   1.680   1.320   6.793 -0.5970  0.3221 -1.1982
   14MOL    H92 9478   1.507   1.294   6.775 -0.0473  1.9684 -1.5240
   14MOL    H93 9479   1.635   1.302   7.041 -1.3928  0.3380  1.4557
   14MOL    H94 9480   1.466   1.268   7.000  0.4357  3.5351  1.0005
   14MOL    H95 9481   1.697   1.098   6.889  0.0181 -1.1829  0.1423
   14MOL    H96 9482   1.522   1.071   6.882  1.7037 -1.8651 -2.1843
   14MOL    H97 9483   1.692   1.086   7.134 -0.5430  0.2623  0.0147
   14MOL    H98 9484   1.527   1.021   7.125  0.4619 -2.7147  0.0198
   14MOL    H99 9485   1.581   0.836   7.004 -1.8746  2.9554 -0.3934
   14MOL   H100 9486   1.745   0.892   6.961 -1.4828  2.9031 -0.2836
   14MOL   H101 9487   1.650   0.765   7.227  0.7660 -2.0739  0.1352
   14MOL   H102 9488   1.748   0.695   7.125  0.3599 -0.3366  0.1460
   14MOL   H103 9489   1.884   0.795   7.316  0.3378 -0.6874 -1.8537
   14MOL   H104 9490   1.829   0.952   7.284  2.0706 -1.0298  1.5189
   14MOL   H105 9491   2.314   0.725   6.887  0.8871  1.7699  1.1508
   14MOL   H106 9492   2.214   0.608   6.981  0.8112  0.0947 -0.2837
   14MOL   H107 9493   2.320   0.716   7.064 -2.6046  2.1998  2.5121
   14MOL   H108 9494   2.230   0.971   6.902 -0.8389  0.4308 -0.1316
   14MOL   H109 9495   2.117   1.024   7.026  0.7556  0.7661  0.9217
   14MOL   C110 9496   1.471   1.470   7.431  0.8817  0.0742  0.9434
   14MOL   C111 9497   1.559   1.481   7.313 -0.3627  0.8180  0.1767
   14MOL   C112 9498   1.669   1.585   7.344 -0.3649 -0.3216  0.4065
   14MOL   C113 9499   1.767   1.601   7.222 -0.4406 -0.2029  0.5759
   14MOL   C114 9500   1.846   1.468   7.188  0.1704  0.1027 -0.0249
   14MOL   C115 9501   1.948   1.472   7.067 -0.1454 -0.4343  0.4081
   14MOL   C116 9502   2.038   1.345   7.058 -0.4170 -0.8638  0.1465
   14MOL   C117 9503   2.161   1.337   7.158 -0.0128 -0.1437  0.0756
   14MOL   O118 9504   2.217   1.207   7.168  0.5882  0.4419  0.0678
   14MOL   C119 9505   2.315   1.155   7.092  0.1859  0.3869  0.8596
   14MOL   O120 9506   2.390   1.228   7.021  0.9319  0.3457 -0.1105
   14MOL   C121 9507   2.314   0.997   7.091 -0.2029  0.4331 -0.0636
   14MOL   C122 9508   2.448   0.956   7.021 -0.6268  0.4449  0.1674
   14MOL   C123 9509   2.303   0.955   7.239  0.2802 -0.1778 -0.6705
   14MOL   H124 9510   1.421   1.564   7.454  0.5449  0.5923 -1.7156
   14MOL   H125 9511   1.397   1.392   7.414 -0.4065  1.4574  0.0719
   14MOL   H126 9512   1.524   1.434   7.520  2.0768 -0.6941 -0.0610
   14MOL   H127 9513   1.508   1.497   7.218  0.0169 -0.9388 -0.3332
   14MOL   H128 9514   1.608   1.385   7.325  0.9156  1.1977 -1.7389
   14MOL   H129 9515   1.733   1.558   7.429  0.9504 -0.0116 -0.4696
   14MOL   H130 9516   1.617   1.678   7.364 -0.0376  0.2277 -1.2677
   14MOL   H131 9517   1.714   1.632   7.132  0.3126 -2.8370 -0.8320
   14MOL   H132 9518   1.836   1.680   7.250 -0.1585 -0.7668  1.4899
   14MOL   H133 9519   1.775   1.386   7.174 -1.9345  1.6627  1.2306
   14MOL   H134 9520   1.904   1.436   7.274  1.2330 -2.2832 -1.5740
   14MOL   H135 9521   1.892   1.472   6.974 -0.4043  1.3114  0.5398
   14MOL   H136 9522   2.005   1.565   7.077 -2.8017  1.0871  1.8004
   14MOL   H137 9523   2.071   1.336   6.955  0.4500 -1.9801  0.5135
   14MOL   H138 9524   1.984   1.251   7.061  1.0359 -1.6978  1.6220
   14MOL   H139 9525   2.236   1.402   7.114 -0.4257 -0.1376 -0.6245
   14MOL   H140 9526   2.134   1.370   7.259 -0.2907 -0.0661 -0.0237
   14MOL   H141 9527   2.449   0.977   6.914  2.0737  1.7374  0.4025
   14MOL   H142 9528   2.527   1.019   7.062  0.0559 -1.6599  2.1532
   14MOL   H143 9529   2.472   0.850   7.030 -1.4425  0.1162 -1.4609
   14MOL   H144 9530   2.306   0.846   7.231  0.2006 -0.3761  1.6491
   14MOL   H145 9531   2.201   0.982   7.267  0.6369  0.4083  0.0534
   14MOL   C146 9532   2.036   0.062   7.372  0.0516 -0.2724  0.5111
   14MOL   C147 9533   2.107   0.152   7.469  0.4564  0.2699 -0.0335
   14MOL   C148 9534   2.237   0.207   7.398 -0.0256 -0.3736 -0.7373
   14MOL   C149 9535   2.205   0.310   7.288 -0.0602  0.0471 -0.6676
   14MOL   C150 9536   2.334   0.373   7.230 -0.5048 -0.3134 -0.0201
   14MOL   C151 9537   2.377   0.510   7.289  0.0720 -0.3065 -0.3448
   14MOL   C152 9538   2.520   0.546   7.263 -0.1277 -0.0377  0.0217
   14MOL   C153 9539   2.574   0.646   7.370 -0.0354 -0.7664 -0.0207
   14MOL   O154 9540   2.485   0.754   7.368 -0.1905  0.3902 -0.1193
   14MOL   C155 9541   2.527   0.874   7.331  0.1721  0.4469 -0.2205
   14MOL   O156 9542   2.636   0.901   7.283  0.2071 -0.4434  0.4573
   14MOL   C157 9543   2.421   0.982   7.350 -0.0041  0.2623  0.1510
   14MOL   C158 9544   2.487   1.122   7.339 -0.8781 -0.5729 -0.3317
   14MOL   C159 9545   2.353   0.970   7.497  1.2110 -0.4173  0.7495
   14MOL   H160 9546   1.941   0.036   7.419 -0.1977  2.4126  1.5729
   14MOL   H161 9547   2.100   7.754   7.359 -1.2718 -1.5433  2.3275
   14MOL   H162 9548   2.004   0.114   7.282 -1.4003  1.5214  2.0403
   14MOL   H163 9549   2.040   0.231   7.505 -1.5609 -1.1065 -0.7060
   14MOL   H164 9550   2.135   0.089   7.554 -0.5107 -0.3167 -0.1457
   14MOL   H165 9551   2.306   0.128   7.367 -0.8327 -0.9947 -0.9736
   14MOL   H166 9552   2.289   0.264   7.475 -4.1346  0.8001  1.3451
   14MOL   H167 9553   2.147   0.262   7.210 -0.2140 -0.3287 -0.3216
   14MOL   H168 9554   2.152   0.388   7.343 -1.7918 -0.6737 -1.3031
   14MOL   H169 9555   2.331   0.390   7.122  1.9411  0.4976 -0.0012
   14MOL   H170 9556   2.422   0.308   7.228  1.6878  2.4960  0.8966
   14MOL   H171 9557   2.333   0.510   7.388  0.4677 -0.6189 -0.1665
   14MOL   H172 9558   2.318   0.590   7.244  1.6031  1.9004  1.4748
   14MOL   H173 9559   2.586   0.461   7.277  0.8122  0.4400 -1.4262
   14MOL   H174 9560   2.539   0.572   7.160  1.2001 -0.0286  0.2667
   14MOL   H175 9561   2.594   0.599   7.466 -0.2380  0.2530  0.5294
   14MOL   H176 9562   2.677   0.666   7.342 -0.3408 -0.0775 -0.6980
   14MOL   H177 9563   2.413   1.200   7.355 -0.7325 -0.5230  0.1160
   14MOL   H178 9564   2.535   1.143   7.243 -0.7257  3.6094  0.5389
   14MOL   H179 9565   2.566   1.123   7.415  1.3362  3.8027 -2.4529
   14MOL   H180 9566   2.316   0.868   7.496  0.8667 -0.3021 -2.0364
   14MOL   H181 9567   2.264   1.032   7.498  0.5795 -1.2961 -0.1446
   14MOL   C182 9568   2.005   2.030   7.483 -0.5553 -0.3548  0.6235
   14MOL   C183 9569   2.092   1.998   7.349  0.1171  0.6234 -0.1380
   14MOL   C184 9570   2.098   1.851   7.321  0.4308  0.1341  0.4607
   14MOL   C185 9571   2.209   1.784   7.406  0.0931  0.1189 -0.5970
   14MOL   C186 9572   2.207   1.631   7.410  0.0807 -0.3604 -0.0924
   14MOL   C187 9573   2.310   1.582   7.507  0.9042 -0.9420  0.2425
   14MOL   C188 9574   2.319   1.429   7.492  0.3679 -0.0573 -0.1608
   14MOL   C189 9575   2.417   1.375   7.596 -0.2405 -0.0593 -0.4780
   14MOL   O190 9576   2.393   1.242   7.597 -0.0757 -0.3667 -0.0144
   14MOL   C191 9577   2.475   1.155   7.660  1.0067  0.1605  0.2015
   14MOL   O192 9578   2.577   1.191   7.724 -0.0877 -0.6308  0.8237
   14MOL   C193 9579   2.428   1.000   7.634 -0.2187 -0.3887 -0.0492
   14MOL   C194 9580   2.561   0.922   7.639  0.7428  0.6353 -0.3995
   14MOL   C195 9581   2.348   0.944   7.770 -0.2089 -0.7183  0.0866
   14MOL   H196 9582   2.044   1.978   7.570 -1.0250  0.3988  1.2884
   14MOL   H197 9583   1.990   2.135   7.505 -0.5335 -0.6497  2.1338
   14MOL   H198 9584   1.905   1.992   7.464 -0.6329  0.2642 -0.2238
   14MOL   H199 9585   2.194   2.036   7.358  0.5786 -0.9659  1.6528
   14MOL   H200 9586   2.042   2.042   7.263 -1.1727 -0.8331 -0.1595
   14MOL   H201 9587   2.000   1.808   7.339  1.0065 -0.6604  1.7324
   14MOL   H202 9588   2.124   1.837   7.216  0.3942 -4.3865  0.9766
   14MOL   H203 9589   2.301   1.821   7.362 -0.1942 -0.4439 -1.6857
   14MOL   H204 9590   2.193   1.819   7.508  0.1008 -0.9762 -0.2125
   14MOL   H205 9591   2.216   1.599   7.306  1.9778  1.6997 -0.6151
   14MOL   H206 9592   2.105   1.603   7.435  0.1533 -2.4805 -2.0597
   14MOL   H207 9593   2.282   1.618   7.606  0.3411 -1.7877  0.3993
   14MOL   H208 9594   2.406   1.628   7.485  0.0083  0.2336 -1.3159
   14MOL   H209 9595   2.224   1.381   7.519 -0.2494  1.4326  0.3351
   14MOL   H210 9596   2.348   1.401   7.390 -0.9536 -0.6012 -0.4015
   14MOL   H211 9597   2.399   1.419   7.694 -0.6003  0.7756 -0.9125
   14MOL   H212 9598   2.509   1.402   7.545  0.2214 -0.4754  0.1389
   14MOL   H213 9599   2.598   0.922   7.742  0.5551  3.1578 -0.3130
   14MOL   H214 9600   2.552   0.817   7.609  1.9235 -0.1360  1.8072
   14MOL   H215 9601   2.635   0.971   7.576  1.8113 -0.9455 -0.4069
   14MOL   H216 9602   2.372   0.838   0.001  3.3524 -0.0993 -1.0916
   14MOL   H217 9603   2.407   0.996   0.067 -1.8485  0.4730  0.5756
   14MOL   C218 9604   2.649   0.111   0.372  0.3826 -0.1825  0.6843
   14MOL   C219 9605   2.617   0.199   0.249 -0.0656 -0.9316  0.0474
   14MOL   C220 9606   2.469   0.215   0.208 -0.0368 -0.2526  1.1421
   14MOL   C221 9607   2.451   0.310   0.093 -0.1437 -0.1208  0.6779
   14MOL   C222 9608   2.304   0.351   0.053  0.0960 -0.4746  0.6514
   14MOL   C223 9609   2.280   0.475   7.743  0.0293  0.6534  0.0566
   14MOL   C224 9610   2.132   0.505   7.725  0.1013 -0.5826  0.1448
   14MOL   C225 9611   2.103   0.638   7.664 -0.2457 -0.1695  0.7159
   14MOL   O226 9612   2.159   0.746   7.739  0.3059  0.3033  0.0597
   14MOL   C227 9613   2.110   0.873   7.717 -0.2000  0.4347 -0.2827
   14MOL   O228 9614   2.007   0.903   7.656 -0.5204  0.5970  0.6376
   14MOL   C229 9615   2.198   0.978   0.015 -0.9297 -0.0700  0.1012
   14MOL   C230 9616   2.160   1.120   7.769 -0.2228  0.1740 -0.0803
   14MOL   C231 9617   2.185   0.952   0.175  0.0130  0.4253  0.1599
   14MOL   H232 9618   2.617   0.010   0.346  0.1626  0.2712 -0.8456
   14MOL   H233 9619   2.596   0.148   0.460  0.2265  3.1656 -0.7811
   14MOL   H234 9620   2.753   0.126   0.400  0.8236 -1.4326 -0.2441
   14MOL   H235 9621   2.676   0.157   0.168  0.9549 -3.8115  2.2297
   14MOL   H236 9622   2.658   0.299   0.267  0.0958 -1.3656  2.2131
   14MOL   H237 9623   2.421   0.122   0.178  0.6397 -0.7381  1.5315
   14MOL   H238 9624   2.415   0.243   0.299  0.5860 -1.1796  1.8190
   14MOL   H239 9625   2.506   0.401   0.115 -1.9261  0.7936  1.4414
   14MOL   H240 9626   2.496   0.269   0.003 -0.8611  0.8789 -0.1401
   14MOL   H241 9627   2.256   0.267   0.003 -0.4229 -0.1390  0.5735
   14MOL   H242 9628   2.262   0.365   0.152 -2.0635 -1.7668 -0.0402
   14MOL   H243 9629   2.326   0.564   0.007  1.7459  0.4258 -1.1995
   14MOL   H244 9630   2.338   0.473   7.650 -0.0119 -0.3470  0.0475
   14MOL   H245 9631   2.075   0.496   0.038 -0.0773  0.8652  0.1890
   14MOL   H246 9632   2.092   0.431   7.655  1.1948  0.0127 -1.1270
   14MOL   H247 9633   1.996   0.640   7.644 -0.3326  0.5984  1.2538
   14MOL   H248 9634   2.161   0.637   7.571 -1.2241 -2.1347  0.1035
   14MOL   H249 9635   2.212   1.186   0.058 -0.0672 -1.2771  1.2206
   14MOL   H250 9636   2.052   1.134   7.762 -0.2671 -0.3056 -0.3692
   14MOL   H251 9637   2.186   1.146   7.666  1.7713  1.7610  0.8074
   14MOL   H252 9638   2.213   0.847   0.186  0.3827  0.5990  0.8592
   14MOL   H253 9639   2.270   0.998   0.225  0.4359 -0.0835 -0.0798
   14MOL   C254 9640   0.917   1.016   0.601 -0.6742  0.1572 -0.9759
   14MOL   C255 9641   1.040   0.969   0.520 -0.3648 -0.1294 -0.3076
   14MOL   C256 9642   1.161   1.065   0.508  0.1691  0.1014 -0.2053
   14MOL   C257 9643   1.263   1.030   0.397  0.3160 -0.4714 -0.0394
   14MOL   C258 9644   1.325   0.887   0.412 -0.5689 -0.2484 -0.5367
   14MOL   C259 9645   1.438   0.859   0.314  0.0631  0.4476 -1.2380
   14MOL   C260 9646   1.576   0.906   0.365  0.2624  0.2593 -0.4248
   14MOL   C261 9647   1.684   0.877   0.260  0.1347 -0.3879 -0.1245
   14MOL   O262 9648   1.808   0.943   0.301  0.2186  0.6489  0.7139
   14MOL   C263 9649   1.924   0.911   0.223 -0.1341  0.4379  0.1971
   14MOL   O264 9650   1.925   0.818   0.149 -0.3432 -0.0005  0.1771
   14MOL   C265 9651   2.055   0.979   0.267 -0.0108 -0.2308 -0.0233
   14MOL   C266 9652   2.019   1.134   0.268  0.4911 -0.4722 -0.0964
   14MOL   C267 9653   2.087   0.945   0.419  0.5180 -0.9480  0.0535
   14MOL   H268 9654   0.962   1.025   0.700 -1.4225 -1.7222 -0.4345
   14MOL   H269 9655   0.874   1.116   0.596 -0.6898  0.1891 -0.2750
   14MOL   H270 9656   0.842   0.937   0.611  0.5930 -0.7887  1.6264
   14MOL   H271 9657   1.075   0.884   0.577  0.5903 -0.2772 -1.0843
   14MOL   H272 9658   1.013   0.939   0.419 -0.6717  2.3652 -1.0168
   14MOL   H273 9659   1.211   1.074   0.604 -1.8218 -2.5845  1.1363
   14MOL   H274 9660   1.124   1.164   0.481  0.7091  0.5237  0.6037
   14MOL   H275 9661   1.341   1.104   0.379  1.5805 -1.8272 -0.2726
   14MOL   H276 9662   1.199   1.029   0.309  0.8289  1.1855 -0.4450
   14MOL   H277 9663   1.375   0.876   0.509  2.5603 -2.7800 -2.3283
   14MOL   H278 9664   1.245   0.814   0.399 -0.4125 -0.0174 -2.9233
   14MOL   H279 9665   1.417   0.889   0.212 -0.7698 -2.1218 -1.8553
   14MOL   H280 9666   1.450   0.751   0.301  1.3327  0.7794 -3.0350
   14MOL   H281 9667   1.576   1.013   0.386  1.3238  0.3082 -0.6539
   14MOL   H282 9668   1.596   0.850   0.456  0.7135 -0.6167 -1.0644
   14MOL   H283 9669   1.688   0.769   0.244 -2.1861 -0.7152  1.2297
   14MOL   H284 9670   1.668   0.920   0.161 -1.4787  0.1733  0.3723
   14MOL   H285 9671   1.942   1.158   0.342  2.3359 -0.6365  1.9230
   14MOL   H286 9672   2.100   1.204   0.288 -0.3372  0.7996 -1.1534
   14MOL   H287 9673   1.962   1.159   0.179 -1.8006  0.2157  1.5125
   14MOL   H288 9674   2.022   1.002   0.486 -0.8551 -1.6748 -0.6436
   14MOL   H289 9675   2.183   0.995   0.433 -0.3459  1.0239 -0.8051
   14MOL   C290 9676   2.569   1.359   0.376 -0.9566 -0.2227 -0.1080
   14MOL   C291 9677   2.599   1.244   0.277 -0.0385  0.9848 -0.2548
   14MOL   C292 9678   2.630   1.114   0.349 -0.4969  0.4478  1.0797
   14MOL   C293 9679   2.668   1.008   0.250 -0.4172 -0.2894 -0.2874
   14MOL   C294 9680   2.655   0.861   0.303  0.9586  0.7167 -0.1643
   14MOL   C295 9681   2.520   0.820   0.321  0.3771  0.1074  0.0382
   14MOL   C296 9682   2.516   0.674   0.358 -0.6677  0.0423 -0.0458
   14MOL   C297 9683   2.378   0.595   0.360  0.0777  0.4532  0.4587
   14MOL   O298 9684   2.288   0.675   0.438 -0.3769  0.2951 -0.0373
   14MOL   C299 9685   2.168   0.698   0.392  0.5281  0.2863  0.6584
   14MOL   O300 9686   2.114   0.645   0.292 -0.1262 -0.2511  0.1768
   14MOL   C301 9687   2.092   0.800   0.480  1.0772 -0.3318 -0.4530
   14MOL   C302 9688   2.176   0.818   0.610 -0.2379  0.2329 -0.1872
   14MOL   C303 9689   1.947   0.747   0.510  0.2442  0.9787  0.2914
   14MOL   H304 9690   2.655   1.361   0.443 -0.1594  1.1836 -1.1343
   14MOL   H305 9691   2.479   1.327   0.428 -2.5402  1.7703 -1.5250
   14MOL   H306 9692   2.538   1.453   0.330  0.5202  0.0641 -0.5733
   14MOL   H307 9693   2.694   1.269   0.230  0.4837  0.7669  0.6679
   14MOL   H308 9694   2.520   1.231   0.204 -1.4485 -0.1674  1.4440
   14MOL   H309 9695   2.540   1.088   0.405 -1.2478 -1.5830 -0.9789
   14MOL   H310 9696   2.715   1.125   0.416 -0.3228 -2.6408  1.4643
   14MOL   H311 9697   2.610   1.022   0.159 -2.5349  0.5090  1.1612
   14MOL   H312 9698   2.775   1.022   0.232 -0.3062  2.5839  2.1604
   14MOL   H313 9699   2.695   0.806   0.218 -0.1865 -0.2382 -0.0969
   14MOL   H314 9700   2.719   0.835   0.387  2.9273  0.1106 -1.8086
   14MOL   H315 9701   2.472   0.825   0.224  0.9240  0.3698 -0.2203
   14MOL   H316 9702   2.462   0.876   0.394 -1.8500 -0.6562 -1.1195
   14MOL   H317 9703   2.557   0.650   0.456  1.4083 -0.5066 -0.9995
   14MOL   H318 9704   2.568   0.617   0.280  0.1545  1.4341 -0.5339
   14MOL   H319 9705   2.385   0.494   0.400  0.6624 -0.2177 -1.2895
   14MOL   H320 9706   2.344   0.595   0.256  0.6304  2.1277  0.2651
   14MOL   H321 9707   2.268   0.874   0.597 -0.5146  0.7568  0.0935
   14MOL   H322 9708   2.215   0.728   0.658  0.3838 -0.1227 -1.3485
   14MOL   H323 9709   2.115   0.877   0.679 -0.0600 -1.7534  1.7244
   14MOL   H324 9710   1.883   0.830   0.541  1.0095  1.9371 -0.6758
   14MOL   H325 9711   1.905   0.723   0.412 -0.5709  1.2468  0.5703
   14MOL   C326 9712   2.826   0.567   0.582  0.3955 -0.5850 -0.1593
   14MOL   C327 9713   2.787   0.423   0.595  0.5746 -0.5045  0.5030
   14MOL   C328 9714   2.698   0.410   0.725  0.6558 -0.4937 -0.1154
   14MOL   C329 9715   2.560   0.467   0.706  0.1225  0.9128 -0.2699
   14MOL   C330 9716   2.451   0.415   0.809 -0.0377  0.2317 -0.2175
   14MOL   C331 9717   2.317   0.491   0.803  0.2397 -0.6932 -0.2393
   14MOL   C332 9718   2.211   0.447   0.905  0.2383  0.0393 -0.3873
   14MOL   C333 9719   2.081   0.528   0.903  0.0008 -0.8416 -0.0489
   14MOL   O334 9720   2.034   0.536   0.774 -0.1920 -0.6910 -0.2559
   14MOL   C335 9721   1.955   0.634   0.734  0.1828  0.8039 -0.3747
   14MOL   O336 9722   1.934   0.739   0.788  1.0198 -0.3448  0.4300
   14MOL   C337 9723   1.910   0.619   0.589  0.8057 -0.2304  0.4922
   14MOL   C338 9724   1.756   0.621   0.585 -0.2941  0.3250 -0.7059
   14MOL   C339 9725   1.970   0.489   0.514  0.1099  0.5937  0.6006
   14MOL   H340 9726   2.864   0.586   0.481  2.5578  0.3708  0.7853
   14MOL   H341 9727   2.905   0.589   0.654  1.7556 -0.4842 -1.6328
   14MOL   H342 9728   2.745   0.637   0.602  0.9813 -0.7809  3.1485
   14MOL   H343 9729   2.869   0.351   0.590  1.0006  0.0495 -0.5289
   14MOL   H344 9730   2.727   0.393   0.509 -1.7513  1.2255  1.4859
   14MOL   H345 9731   2.745   0.444   0.817  3.9806 -0.1230 -1.8910
   14MOL   H346 9732   2.687   0.304   0.750 -0.3029 -0.0621  1.3883
   14MOL   H347 9733   2.524   0.442   0.607 -0.1029  0.7450 -0.1465
   14MOL   H348 9734   2.569   0.576   0.710  0.8516  0.8406  0.4896
   14MOL   H349 9735   2.426   0.311   0.792  1.3298 -0.4294  1.6667
   14MOL   H350 9736   2.484   0.413   0.913  1.1777 -1.6695 -0.6135
   14MOL   H351 9737   2.359   0.589   0.823  2.1594 -1.0476 -2.2589
   14MOL   H352 9738   2.285   0.493   0.699 -0.7751  0.6037  0.0904
   14MOL   H353 9739   2.258   0.434   1.003  2.2055  1.2065 -1.1542
   14MOL   H354 9740   2.186   0.343   0.883 -1.5185  0.3264  0.1148
   14MOL   H355 9741   2.008   0.490   0.974  1.0613  0.2049  1.6365
   14MOL   H356 9742   2.105   0.629   0.937 -0.4040 -0.1648 -1.7315
   14MOL   H357 9743   1.723   0.540   0.649  2.1314  0.1028  0.3098
   14MOL   H358 9744   1.722   0.713   0.633 -1.6163  0.3620 -1.6740
   14MOL   H359 9745   1.713   0.609   0.485 -0.2704 -0.2383 -0.6457
   14MOL   H360 9746   1.963   0.517   0.409  1.5479 -0.7756  0.1209
   14MOL   H361 9747   2.071   0.467   0.547 -0.7039 -0.5917  2.4085
   14MOL   C362 9748   1.572   0.942   7.470  0.5423 -0.1134  0.2966
   14MOL   C363 9749   1.576   0.934   7.618  0.1606  0.0295 -0.1427
   14MOL   C364 9750   1.557   0.793   7.678 -0.0720  0.4841 -0.2546
   14MOL   C365 9751   1.681   0.709   7.657  0.1535  0.3837  0.0675
   14MOL   C366 9752   1.685   0.571   7.718  0.7715  0.7379  0.2374
   14MOL   C367 9753   1.662   0.558   0.086  0.1759 -0.6284  0.7748
   14MOL   C368 9754   1.643   0.404   0.120  0.4187  0.1528 -0.5935
   14MOL   C369 9755   1.625   0.389   0.266 -0.3569 -0.4547 -0.3059
   14MOL   O370 9756   1.752   0.410   0.331 -0.1939  0.5684  0.7014
   14MOL   C371 9757   1.761   0.356   0.455  0.2040 -0.6865 -0.2233
   14MOL   O372 9758   1.662   0.322   0.517 -0.2957 -0.2106  0.0379
   14MOL   C373 9759   1.904   0.345   0.511 -0.4451  0.6557 -0.3195
   14MOL   C374 9760   1.898   0.283   0.653 -0.1447 -0.1460  0.3449
   14MOL   C375 9761   1.989   0.262   0.413 -0.0456 -0.1719 -0.3209
   14MOL   H376 9762   1.509   0.863   7.430  1.8502 -0.8512 -0.3249
   14MOL   H377 9763   1.529   1.034   7.428 -1.4158  0.4418  3.3689
   14MOL   H378 9764   1.673   0.933   7.429  1.2401 -0.2152  2.0144
   14MOL   H379 9765   1.507   1.008   7.659  0.2634  0.9141 -1.5473
   14MOL   H380 9766   1.674   0.959   7.656  0.5219 -1.2019 -0.2312
   14MOL   H381 9767   1.470   0.748   7.630 -1.2834  2.3548  0.1124
   14MOL   H382 9768   1.538   0.799   0.006 -3.4475  2.7464 -0.8821
   14MOL   H383 9769   1.759   0.772   7.698 -0.8851  0.7029  1.5930
   14MOL   H384 9770   1.692   0.700   7.549  1.0950  1.4989  0.0596
   14MOL   H385 9771   1.618   0.499   7.672 -0.8579  1.4116  1.4742
   14MOL   H386 9772   1.788   0.541   7.698  0.7197 -0.8446  2.1172
   14MOL   H387 9773   1.562   0.594   0.111  0.8841  1.8317  0.1013
   14MOL   H388 9774   1.736   0.606   0.150 -1.0531  1.8278  0.3986
   14MOL   H389 9775   1.729   0.346   0.088 -1.4295 -1.4798 -2.7408
   14MOL   H390 9776   1.557   0.357   0.072  0.4370 -0.9441  0.4267
   14MOL   H391 9777   1.549   0.462   0.293  0.0174  0.3196 -1.3259
   14MOL   H392 9778   1.594   0.286   0.282 -1.3753 -0.0005  0.7122
   14MOL   H393 9779   1.999   0.289   0.695 -0.7602  1.1931  1.6783
   14MOL   H394 9780   1.840   0.348   0.719 -0.3145 -0.2139  0.2623
   14MOL   H395 9781   1.845   0.189   0.647 -0.7261  0.0865  1.5491
   14MOL   H396 9782   1.962   0.288   0.311 -1.6262 -1.3437 -0.2198
   14MOL   H397 9783   2.090   0.301   0.422 -0.4636  0.3877  2.5136
   14MOL   C398 9784   2.772   7.673   1.091  0.2978  0.4048 -0.1654
   14MOL   C399 9785   2.650   7.585   1.047 -0.0099 -0.1852  0.2132
   14MOL   C400 9786   2.682   7.517   0.915 -0.1413 -0.2185 -0.2724
   14MOL   C401 9787   2.564   7.444   0.852  0.5758  0.3275  0.4084
   14MOL   C402 9788   2.486   7.514   0.738  0.9356  0.3975  0.0669
   14MOL   C403 9789   2.428   7.650   0.763 -0.0871 -0.1464 -0.4741
   14MOL   C404 9790   2.326   7.703   0.653  0.2341 -0.8221  0.6711
   14MOL   C405 9791   2.263   0.070   0.671  0.3282 -0.1570  0.0983
   14MOL   O406 9792   2.178   0.120   0.565  0.3383 -1.2109  0.1642
   14MOL   C407 9793   2.065   0.057   0.545  0.4799  0.0678 -0.1054
   14MOL   O408 9794   2.020   7.756   0.629 -0.1417 -1.4269  0.3955
   14MOL   C409 9795   1.992   0.099   0.416 -0.3169 -0.0868 -0.2841
   14MOL   C410 9796   1.852   0.040   0.408  0.0463  0.0226  0.0528
   14MOL   C411 9797   2.084   0.056   0.289  0.4602 -0.2652 -0.2631
   14MOL   H412 9798   2.770   7.704   1.195 -0.8153 -1.5878  0.4297
   14MOL   H413 9799   2.788   7.758   1.023 -0.2935  0.2468 -0.5054
   14MOL   H414 9800   2.858   7.607   1.080  1.0493  1.2408  0.6035
   14MOL   H415 9801   2.561   7.647   1.037 -0.1095 -0.4517 -0.5621
   14MOL   H416 9802   2.625   7.516   1.128 -1.1986 -0.6596 -0.5475
   14MOL   H417 9803   2.729   7.578   0.838  0.1030 -1.1881 -0.8951
   14MOL   H418 9804   2.768   7.450   0.923  0.8283  1.0459  0.0143
   14MOL   H419 9805   2.483   7.432   0.924 -0.3413  0.6125 -0.5755
   14MOL   H420 9806   2.582   7.339   0.827 -1.6060  0.3675 -1.4258
   14MOL   H421 9807   2.565   7.524   0.663  0.3611 -0.1909 -0.6199
   14MOL   H422 9808   2.409   7.451   0.693  0.6093  0.3734  0.6589
   14MOL   H423 9809   2.505   7.726   0.777  0.2457 -0.2150 -1.9072
   14MOL   H424 9810   2.375   7.644   0.859  1.3651  1.4776  0.4695
   14MOL   H425 9811   2.370   7.698   0.553  1.2669 -1.7363  1.1606
   14MOL   H426 9812   2.246   7.631   0.638 -2.1618  1.6195  1.3488
   14MOL   H427 9813   2.211   0.081   0.766  0.5318 -0.2756  0.2242
   14MOL   H428 9814   2.346   0.139   0.679 -0.8244  1.1811  0.6511
   14MOL   H429 9815   1.851   7.712   0.426  0.3666  0.2736  1.6621
   14MOL   H430 9816   1.798   0.072   0.319 -2.0182  0.8976  1.5727
   14MOL   H431 9817   1.782   0.073   0.484  0.3853  1.6327 -0.3131
   14MOL   H432 9818   2.184   0.100   0.293  0.9769 -1.4811  0.4626
   14MOL   H433 9819   2.035   0.114   0.210 -0.9638 -2.2876 -0.9090
   14MOL   C434 9820   1.322   7.680   7.224  0.7789  0.4251 -0.5939
   14MOL   C435 9821   1.341   0.047   7.277 -0.5533  0.4021 -0.8928
   14MOL   C436 9822   1.487   0.056   7.334  0.6021 -0.0484 -0.1065
   14MOL   C437 9823   1.495   0.171   7.436 -0.0437 -0.6387 -0.0170
   14MOL   C438 9824   1.633   0.171   7.503  0.9653 -0.2329  0.3969
   14MOL   C439 9825   1.648   0.057   7.605  0.4061  0.1573 -0.3567
   14MOL   C440 9826   1.788   0.062   7.675  0.3507 -0.1685 -0.1438
   14MOL   C441 9827   1.811   7.717   7.750  0.3986  0.2106  0.4985
   14MOL   O442 9828   1.919   7.733   0.051 -0.0795 -0.2799 -0.6003
   14MOL   C443 9829   1.950   7.655   0.153  0.0628 -1.2456  0.0454
   14MOL   O444 9830   1.883   7.559   0.193 -0.2525  0.3392  0.1839
   14MOL   C445 9831   2.081   7.687   0.236 -0.0512  0.4552 -0.0719
   14MOL   C446 9832   2.105   7.593   0.355 -0.7982 -0.8767 -0.1992
   14MOL   C447 9833   2.209   7.685   0.144  0.0512 -0.5712 -0.1075
   14MOL   H448 9834   1.413   7.644   7.177  0.0554  0.5438 -2.0866
   14MOL   H449 9835   1.237   7.660   7.160  0.7622  0.6012 -0.6279
   14MOL   H450 9836   1.289   7.612   7.303  1.0533 -0.2100 -1.0253
   14MOL   H451 9837   1.260   0.073   7.344 -0.2810  0.5142 -0.6058
   14MOL   H452 9838   1.331   0.118   7.195 -0.3865  0.3426 -0.9653
   14MOL   H453 9839   1.556   0.079   7.253 -1.0374  0.6524 -1.3318
   14MOL   H454 9840   1.526   7.742   7.377 -1.9769 -1.1257 -0.0119
   14MOL   H455 9841   1.414   0.157   7.508  0.6255  0.5043  0.9613
   14MOL   H456 9842   1.462   0.263   7.387 -1.0066 -0.5878  0.6937
   14MOL   H457 9843   1.721   0.180   7.439 -0.6319  2.6070 -1.5507
   14MOL   H458 9844   1.639   0.268   7.552  1.0820  0.5802 -1.1980
   14MOL   H459 9845   1.619   7.736   7.574  0.1188  0.3673 -0.7814
   14MOL   H460 9846   1.575   0.090   7.679  1.8315  1.9743  0.2724
   14MOL   H461 9847   1.877   0.066   7.612 -0.6848  2.5037 -1.5419
   14MOL   H462 9848   1.795   0.145   7.745  0.3348  0.8399 -1.3231
   14MOL   H463 9849   1.841   7.638   7.681  0.2633  0.8143 -0.2510
   14MOL   H464 9850   1.732   7.687   0.040  0.4837  1.7050  1.2545
   14MOL   H465 9851   2.035   7.598   0.438  0.1314 -3.1482  0.7614
   14MOL   H466 9852   2.099   7.495   0.309 -1.8382 -0.4777 -0.9379
   14MOL   H467 9853   2.210   7.602   0.384 -1.2430 -0.9131  1.4790
   14MOL   H468 9854   2.194   7.759   0.065 -0.9494 -1.3411 -0.6561
   14MOL   H469 9855   2.288   7.719   0.211  0.1699  1.0793 -1.0397
   14MOL   C470 9856   2.598   6.689   0.417 -0.2077  0.0052 -0.4025
   14MOL   C471 9857   2.638   6.833   0.426 -0.2559 -0.1384  0.1757
   14MOL   C472 9858   2.623   6.890   0.563  0.1585 -0.1651  0.7886
   14MOL   C473 9859   2.708   7.022   0.577  0.4808  0.7072 -0.2049
   14MOL   C474 9860   2.693   7.132   0.469  0.1960  0.0215 -0.1763
   14MOL   C475 9861   2.564   7.213   0.473  0.2029  0.4864 -0.5293
   14MOL   C476 9862   2.536   7.303   0.360 -0.3158  0.4687 -0.1990
   14MOL   C477 9863   2.427   7.415   0.371  0.4484 -0.0806 -0.2373
   14MOL   O478 9864   2.409   7.486   0.255  0.0724  0.2690 -0.0502
   14MOL   C479 9865   2.312   7.455   0.161  0.1695  0.4177  0.0282
   14MOL   O480 9866   2.249   7.349   0.162  0.0931 -0.0876  0.3134
   14MOL   C481 9867   2.264   7.567   0.060  0.2295 -0.5103 -0.3312
   14MOL   C482 9868   2.164   7.515   7.734  0.3016  0.3249  0.3448
   14MOL   C483 9869   2.386   7.630   7.761 -0.4707 -0.2503  0.2646
   14MOL   H484 9870   2.586   6.664   0.311 -0.9534  1.3903 -0.6558
   14MOL   H485 9871   2.499   6.671   0.460 -0.4240 -2.9953 -2.0177
   14MOL   H486 9872   2.668   6.618   0.460 -0.7407  0.7787  1.8131
   14MOL   H487 9873   2.741   6.838   0.393  0.1523  0.4573  1.4696
   14MOL   H488 9874   2.563   6.884   0.366  1.5512  0.3832 -1.6628
   14MOL   H489 9875   2.517   6.917   0.574  0.0484 -0.6908  1.0293
   14MOL   H490 9876   2.648   6.806   0.627 -2.1570 -0.5856  1.1944
   14MOL   H491 9877   2.691   7.059   0.677  1.8080 -0.0850  0.3354
   14MOL   H492 9878   2.813   6.990   0.576  0.0745 -0.6674 -1.7607
   14MOL   H493 9879   2.780   7.196   0.483  1.3371 -2.1832  3.4935
   14MOL   H494 9880   2.695   7.089   0.369  0.0720 -1.6576  0.5266
   14MOL   H495 9881   2.478   7.149   0.493 -0.3783  1.0632 -1.1239
   14MOL   H496 9882   2.570   7.281   0.558 -1.7789 -1.3712  1.1323
   14MOL   H497 9883   2.634   7.344   0.335  0.1587 -0.2970  0.3949
   14MOL   H498 9884   2.504   7.247   0.272  0.8668  2.3982 -1.9118
   14MOL   H499 9885   2.466   7.490   0.441 -0.0859 -1.8645  2.0185
   14MOL   H500 9886   2.325   7.393   0.404  1.0992  0.0910  1.9797
   14MOL   H501 9887   2.084   7.462   0.006 -1.4447  1.2006 -1.4229
   14MOL   H502 9888   2.203   7.450   7.656 -0.2172 -0.5742  0.8166
   14MOL   H503 9889   2.126   7.605   7.687 -0.0339  0.8575  1.6084
   14MOL   H504 9890   2.351   7.723   7.716  0.5439 -0.1613 -0.3655
   14MOL   H505 9891   2.455   7.659   0.061  0.7124  1.0542 -1.2050
   14MOL   C506 9892   3.033   6.900   7.074 -0.5143  0.1122 -0.1047
   14MOL   C507 9893   3.017   6.903   7.231 -0.3332  0.3516  0.4720
   14MOL   C508 9894   2.880   6.908   7.292 -0.1378 -0.9016  0.3321
   14MOL   C509 9895   2.813   7.041   7.291 -0.0812 -0.5568  0.2269
   14MOL   C510 9896   2.665   7.037   7.327  0.0211 -0.0184  0.1914
   14MOL   C511 9897   2.632   7.114   7.454  0.3601  0.0289  0.8572
   14MOL   C512 9898   2.484   7.117   7.490  0.0645  0.3037 -0.1317
   14MOL   C513 9899   2.451   7.191   7.610 -1.0527 -0.6190 -0.0801
   14MOL   O514 9900   2.459   7.335   7.582  0.2230  1.2270 -0.0045
   14MOL   C515 9901   2.513   7.422   7.674  0.1434  0.4353  0.2057
   14MOL   O516 9902   2.576   7.384   7.769  0.4590  0.0760  0.0285
   14MOL   C517 9903   2.487   7.571   7.651  0.0632 -0.8023  0.2072
   14MOL   C518 9904   2.421   7.596   7.510 -0.1866  0.3073 -0.4482
   14MOL   C519 9905   2.614   7.662   7.668 -0.0032  0.5311  0.2477
   14MOL   H520 9906   2.983   6.811   7.035  0.1075 -0.4367  0.3406
   14MOL   H521 9907   3.133   6.926   7.038 -0.8076 -0.1701 -1.1434
   14MOL   H522 9908   2.971   6.975   7.025 -0.9352 -0.3144 -0.2176
   14MOL   H523 9909   3.066   6.992   7.272  0.9957 -0.4849  0.7339
   14MOL   H524 9910   3.067   6.810   7.256  0.1686  0.7500  0.9658
   14MOL   H525 9911   2.829   6.830   7.235  1.7760 -1.1088 -1.1323
   14MOL   H526 9912   2.882   6.877   7.396  0.0804 -2.1109 -0.0231
   14MOL   H527 9913   2.862   7.113   7.357 -1.2821  1.3088 -0.8652
   14MOL   H528 9914   2.821   7.072   7.187 -1.0660  1.2887  0.6778
   14MOL   H529 9915   2.609   7.064   7.237 -1.4896  1.0867  1.4212
   14MOL   H530 9916   2.642   6.932   7.345 -1.8359  0.2460 -0.5327
   14MOL   H531 9917   2.681   7.212   7.451  0.2349  0.0697 -0.8343
   14MOL   H532 9918   2.687   7.057   7.528 -0.8712 -2.1243  0.1636
   14MOL   H533 9919   2.446   7.015   7.490  1.6114 -0.2800  1.4195
   14MOL   H534 9920   2.422   7.169   7.417  0.1812  2.2217  1.1085
   14MOL   H535 9921   2.514   7.167   7.695 -2.3974 -0.7423  0.9135
   14MOL   H536 9922   2.349   7.173   7.645 -1.6286  0.3779 -1.1697
   14MOL   H537 9923   2.316   7.569   7.508  0.2096 -1.3033 -0.6841
   14MOL   H538 9924   2.474   7.547   7.428 -0.7542 -3.5085  1.3589
   14MOL   H539 9925   2.426   7.698   7.472  0.0414  0.4950  0.0704
   14MOL   H540 9926   2.577   7.762   7.646 -1.3568 -0.1375 -0.5681
   14MOL   H541 9927   2.643   7.661   7.773  1.6834  2.0106 -0.1722
   14MOL   C542 9928   3.253   7.199   6.625 -0.3978 -0.1780 -0.2618
   14MOL   C543 9929   3.158   7.305   6.691  0.0992 -0.5609 -0.0641
   14MOL   C544 9930   3.107   7.264   6.833  0.2035 -0.1688 -0.8460
   14MOL   C545 9931   3.021   7.364   6.910 -0.2471  0.4965 -0.5865
   14MOL   C546 9932   2.986   7.325   7.058 -0.0888  0.8877 -0.3615
   14MOL   C547 9933   2.935   7.439   7.145 -0.2253 -0.6980 -0.2550
   14MOL   C548 9934   2.798   7.496   7.112  0.9704 -0.2936  0.8161
   14MOL   C549 9935   2.762   7.622   7.195 -0.6688 -0.1143  0.3813
   14MOL   O550 9936   2.771   7.594   7.335 -0.1582 -0.7248 -0.2774
   14MOL   C551 9937   2.725   7.682   7.424  0.2304  0.2585  0.1089
   14MOL   O552 9938   2.676   0.006   7.392  1.0141  0.3895 -0.5917
   14MOL   C553 9939   2.741   7.648   7.574 -0.3644 -0.2675 -0.2547
   14MOL   C554 9940   2.805   7.508   7.590 -0.3121 -0.0715  0.4088
   14MOL   C555 9941   2.836   7.751   7.642  0.5600  0.0346  0.7968
   14MOL   H556 9942   3.304   7.262   6.552 -0.5291  1.6059  1.1468
   14MOL   H557 9943   3.184   7.122   6.590 -2.4462  1.6905 -0.4606
   14MOL   H558 9944   3.323   7.152   6.694  1.1854  0.3926 -1.4707
   14MOL   H559 9945   3.201   7.404   6.705 -1.4690 -0.1188  1.8557
   14MOL   H560 9946   3.065   7.309   6.634  1.2869  3.0681 -1.8706
   14MOL   H561 9947   3.191   7.259   6.902 -0.0376 -3.6017 -0.7276
   14MOL   H562 9948   3.073   7.161   6.837 -2.5342  0.7585  2.3429
   14MOL   H563 9949   3.069   7.462   6.908 -0.1447  0.4869  0.9655
   14MOL   H564 9950   2.935   7.378   6.844 -0.2191 -1.1158 -1.0056
   14MOL   H565 9951   3.080   7.282   7.094 -0.9723  0.2919  1.2956
   14MOL   H566 9952   2.908   7.250   7.048 -0.2160  1.0499 -0.5640
   14MOL   H567 9953   2.935   7.399   7.246 -0.5229 -0.7710 -0.2814
   14MOL   H568 9954   3.017   7.510   7.145 -0.7854 -0.0397  0.2454
   14MOL   H569 9955   2.814   7.532   7.010 -1.8410  0.2020  0.5072
   14MOL   H570 9956   2.721   7.420   7.100  0.0460  0.9875 -1.8847
   14MOL   H571 9957   2.667   7.672   7.172 -0.9086  0.3733  2.3997
   14MOL   H572 9958   2.819   7.709   7.165 -1.9752  0.2142 -1.2396
   14MOL   H573 9959   2.816   7.481   7.695  1.4506 -0.3420  0.1592
   14MOL   H574 9960   2.906   7.500   7.550  0.0792  0.0233  1.3548
   14MOL   H575 9961   2.745   7.425   7.553 -0.6804  0.7326 -0.8456
   14MOL   H576 9962   2.830   7.743   7.750 -1.1440  0.0189  0.7144
   14MOL   H577 9963   2.798   0.071   7.621  3.1030  0.5816 -1.6299
   14MOL   C578 9964   3.080   0.054   0.731  0.3628  0.2717 -0.4024
   14MOL   C579 9965   2.933   0.013   0.738  0.0070 -0.5858 -0.1931
   14MOL   C580 9966   2.882   7.734   0.601 -0.6132 -0.2961 -0.1690
   14MOL   C581 9967   2.906   7.581   0.586  0.0373  0.4081  0.0672
   14MOL   C582 9968   2.898   7.532   0.442 -0.0856 -0.9111 -0.4438
   14MOL   C583 9969   3.005   7.587   0.356 -0.2133 -0.0877  0.5657
   14MOL   C584 9970   3.036   7.507   0.234  0.4332  0.3667  0.2014
   14MOL   C585 9971   3.129   7.580   0.134  0.2806  0.1048 -0.3000
   14MOL   O586 9972   3.057   7.668   0.049  0.3996 -0.2880  0.4577
   14MOL   C587 9973   3.066   7.657   7.694  0.4384 -0.1046  0.5416
   14MOL   O588 9974   3.132   7.576   7.632  0.5522  0.0371  0.0990
   14MOL   C589 9975   2.991   7.767   7.614  0.1001  0.2326 -0.0111
   14MOL   C590 9976   3.029   0.126   7.678 -0.6685  0.5560 -0.4480
   14MOL   C591 9977   3.032   7.766   7.460  0.5754 -0.0249 -0.3830
   14MOL   H592 9978   3.092   0.140   0.665 -0.7101 -0.4991 -1.6220
   14MOL   H593 9979   3.137   7.746   0.702 -0.6324 -0.4711 -0.1510
   14MOL   H594 9980   3.122   0.084   0.827 -1.6264  0.6988  0.3632
   14MOL   H595 9981   2.864   0.085   0.780 -0.9748 -0.1554 -2.4389
   14MOL   H596 9982   2.938   7.719   0.818 -1.0740 -2.0537 -1.4381
   14MOL   H597 9983   2.941   0.010   0.527 -0.5019 -0.6101 -0.3183
   14MOL   H598 9984   2.779   7.750   0.571 -0.7750 -1.1801 -0.1044
   14MOL   H599 9985   2.837   7.532   0.653 -0.0719  0.1389 -0.2432
   14MOL   H600 9986   3.002   7.556   0.631  0.0308  0.9975  0.4108
   14MOL   H601 9987   2.798   7.547   0.401  0.1529  2.5233  0.1048
   14MOL   H602 9988   2.895   7.423   0.444 -3.4410 -0.8594  0.0899
   14MOL   H603 9989   3.104   7.592   0.402 -0.9142 -1.2194  2.2629
   14MOL   H604 9990   3.000   7.692   0.327  3.0294 -0.0354 -0.0745
   14MOL   H605 9991   2.939   7.477   0.195 -0.0661  0.7058  1.1785
   14MOL   H606 9992   3.083   7.414   0.265 -2.1890 -0.2601  2.4422
   14MOL   H607 9993   3.204   7.640   0.185 -1.2715  0.1579  1.9785
   14MOL   H608 9994   3.188   7.510   0.074  0.6158  0.3477 -0.2526
   14MOL   H609 9995   3.137   0.141   7.684 -0.8790  1.5164  1.1411
   14MOL   H610 9996   2.996   0.213   7.622  1.8760  2.0528  0.3111
   14MOL   H611 9997   2.985   0.134   7.777  0.6958  0.6468  0.1605
   14MOL   H612 9998   2.949   0.026   7.402  0.3081 -1.4754 -1.0058
   14MOL   H613 9999   3.024   7.661   7.433  3.1191 -0.3374 -0.1003
   14MOL   C61410000   3.095   0.700   0.144  0.0972  0.4120 -0.1531
   14MOL   C61510001   3.045   0.644   0.013 -0.2917 -0.3736  0.3696
   14MOL   C61610002   2.893   0.641   7.759 -0.2366 -0.4002 -0.7896
   14MOL   C61710003   2.846   0.530   7.660 -0.5618  0.3673 -0.2165
   14MOL   C61810004   2.908   0.550   7.517 -0.8788  0.4371  0.3423
   14MOL   C61910005   2.884   0.438   7.420  0.5095  0.4976  0.8831
   14MOL   C62010006   2.938   0.453   7.279 -0.3634 -0.7034 -0.7065
   14MOL   C62110007   3.078   0.382   7.260  0.4557 -0.3576 -0.0336
   14MOL   O62210008   3.065   0.242   7.294 -0.3564 -0.2865 -0.5227
   14MOL   C62310009   3.147   0.195   7.384 -0.1366  0.0573 -0.1614
   14MOL   O62410010   3.203   0.263   7.465  0.7856  0.6600 -0.5306
   14MOL   C62510011   3.157   0.041   7.393  0.0375  0.7842 -0.1179
   14MOL   C62610012   3.279   7.771   7.463  0.1789  0.1130  0.1867
   14MOL   C62710013   3.155   7.761   7.245  0.1041 -1.0725  0.0757
   14MOL   H62810014   3.204   0.703   0.150  0.0358  2.8155  0.4074
   14MOL   H62910015   3.061   0.647   0.233 -1.4404  1.1679 -0.2846
   14MOL   H63010016   3.054   0.798   0.168 -0.2881 -0.0292  1.0750
   14MOL   H63110017   3.078   0.714   7.715  0.8856 -1.6742 -0.3397
   14MOL   H63210018   3.087   0.550   7.756  0.2089 -0.2105  0.5146
   14MOL   H63310019   2.856   0.740   7.730 -2.9415 -1.9470 -2.9048
   14MOL   H63410020   2.842   0.623   0.075  2.5951 -2.3108  0.4138
   14MOL   H63510021   2.737   0.530   7.652 -0.5780 -3.6650 -0.9471
   14MOL   H63610022   2.858   0.431   7.704 -1.3986  0.2491 -0.2438
   14MOL   H63710023   2.867   0.642   7.476 -0.5588  1.4305  2.1837
   14MOL   H63810024   3.016   0.564   7.518 -0.9499  1.0195 -0.3600
   14MOL   H63910025   2.901   0.341   7.468  0.6792 -0.5882 -1.3035
   14MOL   H64010026   2.776   0.430   7.424  0.5935 -1.0945  0.3793
   14MOL   H64110027   2.949   0.557   7.251 -0.2687 -1.2296 -2.6909
   14MOL   H64210028   2.867   0.405   7.212 -2.4681  2.6082 -0.9411
   14MOL   H64310029   3.123   0.392   7.161  0.2658 -0.9850 -0.1847
   14MOL   H64410030   3.148   0.439   7.321 -0.5804  0.0179  0.8194
   14MOL   H64510031   3.287   7.664   7.478 -0.8125 -0.0152 -0.1736
   14MOL   H64610032   3.279   0.025   7.567 -1.4953  0.6598  0.0182
   14MOL   H64710033   3.376   0.023   7.422  0.1460 -0.4549 -0.3432
   14MOL   H64810034   3.068   0.020   7.192 -0.5140 -0.5269  1.4698
   14MOL   H64910035   3.139   7.653   7.243 -2.3304 -0.7390  0.7307
   14MOL   C65010036   2.915   7.165   0.004  0.2460 -0.0753  0.0981
   14MOL   C65110037   3.044   7.231   7.750  0.1074 -0.5583 -0.5786
   14MOL   C65210038   3.066   7.226   7.599 -0.0247 -0.6563  0.0772
   14MOL   C65310039   3.208   7.271   7.556 -0.3977  0.0660 -0.3093
   14MOL   C65410040   3.214   7.257   7.404  0.3197 -0.9383  0.4504
   14MOL   C65510041   3.340   7.330   7.351  0.5186 -0.1965  0.3058
   14MOL   C65610042   3.370   7.310   7.197 -0.1660 -0.0205  0.1105
   14MOL   C65710043   3.424   7.443   7.136 -0.0005  0.7411  0.0199
   14MOL   O65810044   3.330   7.551   7.139 -0.0563 -0.0621  0.2849
   14MOL   C65910045   3.379   7.673   7.164  0.1258  0.4003 -0.4713
   14MOL   O66010046   3.500   7.703   7.177 -0.3427 -0.0747  0.1240
   14MOL   C66110047   3.274   0.005   7.145 -0.0087  0.0278 -0.5412
   14MOL   C66210048   3.337   0.148   7.162 -0.2818 -0.2219  0.0130
   14MOL   C66310049   3.205   7.775   7.005 -0.0982  0.1859 -0.2474
   14MOL   H66410050   2.898   7.137   0.108 -1.0549 -0.8749 -0.3099
   14MOL   H66510051   2.894   7.070   7.733 -1.3119  0.2972  0.0224
   14MOL   H66610052   2.834   7.230   7.750  1.5407  1.7731  0.5547
   14MOL   H66710053   3.126   7.186   0.026 -0.3782  2.0679  2.4043
   14MOL   H66810054   3.034   7.332   0.009 -1.6931 -1.0090  0.2083
   14MOL   H66910055   2.994   7.293   7.552 -0.0343 -1.1491 -0.6151
   14MOL   H67010056   3.043   7.126   7.563 -3.2953  0.5708 -1.5112
   14MOL   H67110057   3.286   7.205   7.595  0.8569  0.6584 -1.7569
   14MOL   H67210058   3.219   7.367   7.605 -2.0022  0.3734 -0.5158
   14MOL   H67310059   3.132   7.317   7.366  0.6216 -0.2052  0.9550
   14MOL   H67410060   3.204   7.159   7.357  0.9992 -0.7173 -0.1593
   14MOL   H67510061   3.321   7.436   7.361 -1.4474 -0.1654 -3.0183
   14MOL   H67610062   3.431   7.298   7.401  2.1750  1.6959 -1.3741
   14MOL   H67710063   3.290   7.271   7.135 -1.4688 -1.7770  2.7570
   14MOL   H67810064   3.437   7.223   7.202  0.7912  0.6642 -0.6402
   14MOL   H67910065   3.448   7.426   7.031  2.7162  2.5644  0.3079
   14MOL   H68010066   3.516   7.465   7.191  2.0059 -2.1291 -1.9867
   14MOL   H68110067   3.274   0.234   7.141 -0.7247 -0.3322  0.8660
   14MOL   H68210068   3.417   0.154   7.088 -1.3346 -0.3535 -1.1445
   14MOL   H68310069   3.393   0.162   7.255  0.2172 -0.1449 -0.2982
   14MOL   H68410070   3.147   7.683   7.000 -1.6659  1.0901  1.0123
   14MOL   H68510071   3.126   0.070   7.005 -1.1765 -0.9326 -1.1191
   14MOL   C68610072   3.974   7.455   6.532  0.2539 -0.0769 -0.3469
   14MOL   C68710073   3.956   7.594   6.477 -0.9420 -0.5820  0.1601
   14MOL   C68810074   3.933   7.703   6.583 -0.2366 -0.2169 -1.2354
   14MOL   C68910075   3.904   0.063   6.534  0.2413  0.3307 -0.0063
   14MOL   C69010076   3.852   0.173   6.628 -0.0331  0.3483 -0.1384
   14MOL   C69110077   3.695   0.164   6.637  0.2679  1.1102 -0.2412
   14MOL   C69210078   3.640   0.273   6.727 -0.0225  0.5198  0.0504
   14MOL   C69310079   3.487   0.284   6.710  0.4478  0.4779 -0.2019
   14MOL   O69410080   3.417   0.167   6.757  0.1252  0.0347  0.4296
   14MOL   C69510081   3.316   0.166   6.841 -0.4229  0.5489  0.0104
   14MOL   O69610082   3.263   0.265   6.895  0.7307 -0.2942 -0.5209
   14MOL   C69710083   3.272   0.015   6.866  0.0278 -0.6013 -0.0059
   14MOL   C69810084   3.177   7.772   6.751  0.6414  0.2377  0.0193
   14MOL   C69910085   3.380   7.688   6.828 -0.5321  0.5794  0.5821
   14MOL   H70010086   3.884   7.413   6.575 -1.0618  3.0783  0.1009
   14MOL   H70110087   4.051   7.450   6.608 -0.4067  0.0711  0.3344
   14MOL   H70210088   4.008   7.387   6.454  0.0721 -1.5435  0.8537
   14MOL   H70310089   3.873   7.586   6.407 -1.3302 -0.9671  0.6583
   14MOL   H70410090   4.047   7.625   6.426 -2.2558 -2.3200 -3.4128
   14MOL   H70510091   4.013   7.700   6.656 -1.2762  1.6726  0.0468
   14MOL   H70610092   3.844   7.666   6.633 -0.1526  1.0486 -0.1334
   14MOL   H70710093   3.842   0.047   6.446  0.1466  1.7315 -0.2133
   14MOL   H70810094   3.990   0.111   6.486  1.2889  0.1832  1.6456
   14MOL   H70910095   3.892   0.271   6.600  2.1296  0.0849  1.9113
   14MOL   H71010096   3.887   0.150   6.729 -0.3820  0.2541 -0.0413
   14MOL   H71110097   3.645   0.179   6.541 -2.8743 -0.6923  1.0105
   14MOL   H71210098   3.670   0.062   6.666  1.1602  0.5657 -1.3490
   14MOL   H71310099   3.661   0.254   6.832 -0.8811 -0.1456  0.1038
   14MOL   H71410100   3.692   0.368   6.709 -0.0576  1.0482  2.6154
   14MOL   H71510101   3.469   0.316   6.607 -0.9752 -0.5542 -0.2917
   14MOL   H71610102   3.454   0.372   6.764 -1.4573 -1.9516  2.7675
   14MOL   H71710103   3.155   7.668   6.727 -0.8989  0.6662 -0.5051
   14MOL   H71810104   3.085   0.050   6.766 -0.0699 -0.9079  0.1326
   14MOL   H71910105   3.219   0.039   6.663  0.0720  1.5836  0.4506
   14MOL   H72010106   3.461   7.683   6.901  0.9097 -0.0796 -1.0137
   14MOL   H72110107   3.432   7.706   6.734 -2.6681 -0.0776 -0.7584
   14MOL   H72210108   3.352   7.584   6.809 -1.1660  1.0102 -0.9279
   15MOL     C110109   1.159   3.625   2.872  0.3051  0.2714 -0.3860
   15MOL     C210110   1.094   3.645   3.009 -0.2949  0.3808 -0.5045
   15MOL     C310111   1.200   3.642   3.124 -0.3838 -0.1942 -0.0099
   15MOL     C410112   1.144   3.673   3.259  0.5208 -0.2663  0.5324
   15MOL     C510113   1.246   3.692   3.373 -1.1082 -0.0314  0.5560
   15MOL     C610114   1.169   3.709   3.508 -0.7431 -0.1692  0.1607
   15MOL     C710115   1.264   3.753   3.623 -0.6701 -0.4359 -0.0483
   15MOL     C810116   1.205   3.758   3.766 -0.0990  0.0530  0.6518
   15MOL     O910117   1.195   3.620   3.811  0.1222 -0.0128  0.3975
   15MOL    C1010118   1.226   3.591   3.939  0.0860 -0.8264  0.3900
   15MOL    O1110119   1.245   3.680   4.025  0.4725 -0.4908  1.0951
   15MOL    C1210120   1.220   3.441   3.968 -0.1464  0.3318 -0.2930
   15MOL    C1310121   1.085   3.383   3.927  0.1955  0.9273  0.3659
   15MOL    C1410122   1.343   3.366   3.901 -0.0108 -0.1033  0.7423
   15MOL    H1510123   1.075   3.587   2.814 -0.3714 -1.2588  1.5618
   15MOL    H1610124   1.244   3.558   2.862  1.1288  1.3779 -0.9178
   15MOL    H1710125   1.189   3.722   2.832 -0.5041  0.2725 -1.0055
   15MOL    H1810126   1.028   3.561   3.025 -1.7766  2.0411  2.5390
   15MOL    H1910127   1.046   3.743   3.012  0.0091  0.5058  4.5043
   15MOL    H2010128   1.237   3.540   3.129 -1.3002 -0.4732  1.3983
   15MOL    H2110129   1.282   3.706   3.093 -1.0830 -0.4981 -2.6285
   15MOL    H2210130   1.092   3.768   3.244  1.4216 -0.0065 -1.1153
   15MOL    H2310131   1.074   3.594   3.284 -1.7321  0.9730 -1.6249
   15MOL    H2410132   1.311   3.779   3.362 -0.6111 -0.4339  0.2825
   15MOL    H2510133   1.318   3.611   3.389 -1.7487 -0.4464  1.3673
   15MOL    H2610134   1.118   3.617   3.534 -0.0574 -0.4623  0.4721
   15MOL    H2710135   1.098   3.791   3.521  1.3203  1.7512 -0.3762
   15MOL    H2810136   1.309   3.846   3.589  1.5354 -1.4419  0.0222
   15MOL    H2910137   1.348   3.684   3.633 -0.5257 -0.1060  1.1342
   15MOL    H3010138   1.112   3.813   3.780  0.8200  1.1587  2.6967
   15MOL    H3110139   1.274   3.816   3.828 -0.3990  1.2797 -0.1502
   15MOL    H3210140   0.993   3.417   3.975 -0.0072 -1.6250  1.8721
   15MOL    H3310141   1.056   3.413   3.826 -0.5953  1.0466  0.6216
   15MOL    H3410142   1.082   3.275   3.935 -0.0630  0.9230  0.2064
   15MOL    H3510143   1.363   3.416   3.806  0.3052 -0.6648  0.5144
   15MOL    H3610144   1.300   3.272   3.868 -0.7986  0.7290 -0.6929
   15MOL    H3710145   1.225   3.412   4.073 -0.8753  4.0449  0.8429
   15MOL    C3810146   1.107   2.293   4.091  0.8471 -0.1807  0.0057
   15MOL    C3910147   1.031   2.415   4.136 -0.5931  0.7419 -0.6091
   15MOL    C4010148   1.085   2.542   4.074 -0.4216  0.0477  0.1899
   15MOL    C4110149   1.000   2.669   4.101 -0.7441  0.0485 -0.0150
   15MOL    C4210150   1.052   2.796   4.034 -0.5171  0.5853 -0.0502
   15MOL    C4310151   1.189   2.843   4.104 -0.3995 -1.1118  0.5935
   15MOL    C4410152   1.250   2.960   4.022 -0.1009 -0.7145 -0.3341
   15MOL    C4510153   1.381   3.017   4.081  0.1815 -0.5755  0.0819
   15MOL    O4610154   1.419   3.124   4.013  0.1886  0.2991 -0.0594
   15MOL    C4710155   1.458   3.234   4.074  0.0586 -0.1227  0.6101
   15MOL    O4810156   1.469   3.250   4.199  0.4819 -0.0701  0.1246
   15MOL    C4910157   1.482   3.347   3.973 -0.1144 -0.5679 -0.3901
   15MOL    C5010158   1.523   3.476   4.042  0.2073  0.2652  0.3647
   15MOL    C5110159   1.577   3.305   3.856  0.1831 -0.4563  0.4395
   15MOL    H5210160   1.086   2.202   4.147 -1.0316 -1.1214 -2.1054
   15MOL    H5310161   1.215   2.287   4.094  0.8876 -0.5000 -1.5665
   15MOL    H5410162   1.081   2.274   3.987 -1.3170  1.5439  0.1657
   15MOL    H5510163   1.040   2.417   4.244  0.7169 -0.7264 -0.6669
   15MOL    H5610164   0.922   2.421   4.130 -0.7584  2.3174  2.8921
   15MOL    H5710165   1.191   2.558   4.097 -0.9592  1.2016  1.9656
   15MOL    H5810166   1.081   2.520   3.968  1.5973 -0.6514  0.2316
   15MOL    H5910167   0.988   2.672   4.210  0.1330 -0.0055  0.0942
   15MOL    H6010168   0.899   2.644   4.071 -1.0490  0.2707  0.8121
   15MOL    H6110169   1.062   2.773   3.928  0.9494 -1.1660  0.4612
   15MOL    H6210170   0.972   2.871   4.034 -0.1682  0.9704  0.8274
   15MOL    H6310171   1.163   2.859   4.208  0.2593 -1.0483  0.7506
   15MOL    H6410172   1.259   2.759   4.114  1.2739  0.0799 -0.8746
   15MOL    H6510173   1.178   3.042   4.011 -0.7741 -1.3475 -0.6754
   15MOL    H6610174   1.272   2.936   3.919  1.8097 -1.8061  0.3067
   15MOL    H6710175   1.456   2.938   4.080  0.1490 -0.6099 -0.9890
   15MOL    H6810176   1.369   3.037   4.187  0.0254  1.9784 -0.3757
   15MOL    H6910177   1.539   3.561   3.976 -0.5138  1.5610  1.8176
   15MOL    H7010178   1.446   3.512   4.111 -1.0371  0.5001 -1.1029
   15MOL    H7110179   1.608   3.459   4.108  0.1907 -1.5531 -0.0675
   15MOL    H7210180   1.596   3.393   3.795  0.3030  0.5193  1.8613
   15MOL    H7310181   1.534   3.243   3.777  0.2451 -0.0842  0.1081
   15MOL    C7410182   1.146   3.339   3.569  0.2465 -0.1590 -0.9661
   15MOL    C7510183   1.211   3.296   3.439  1.2263 -0.4970  0.9958
   15MOL    C7610184   1.365   3.264   3.460  0.0505 -0.4841  0.9638
   15MOL    C7710185   1.379   3.126   3.528 -0.0186  0.0550 -0.5532
   15MOL    C7810186   1.507   3.058   3.492  0.6776  0.0038 -0.1256
   15MOL    C7910187   1.529   2.908   3.540 -0.1144 -0.2366  0.3613
   15MOL    C8010188   1.484   2.878   3.685 -0.5083 -0.2431 -0.6565
   15MOL    C8110189   1.592   2.904   3.792  0.1633  0.6021 -0.2085
   15MOL    O8210190   1.636   3.039   3.788 -0.2244 -0.3040 -0.9013
   15MOL    C8310191   1.707   3.094   3.891  0.8573 -0.0742 -0.4482
   15MOL    O8410192   1.715   3.037   4.000 -0.3780  0.0435 -0.2692
   15MOL    C8510193   1.726   3.248   3.872 -0.0985  0.5187  0.2864
   15MOL    C8610194   1.800   3.260   3.736 -0.9430 -0.8783  0.1546
   15MOL    C8710195   1.814   3.313   3.985  0.1928  0.0937  0.2580
   15MOL    H8810196   1.204   3.411   3.627 -2.5498  0.0220  1.7784
   15MOL    H8910197   1.131   3.249   3.629 -1.9656 -0.3767 -1.7964
   15MOL    H9010198   1.047   3.381   3.551  0.1856  0.7804  1.4488
   15MOL    H9110199   1.202   3.360   3.351 -0.8544 -2.7972 -0.5239
   15MOL    H9210200   1.173   3.199   3.409  1.0137 -0.1530  0.1553
   15MOL    H9310201   1.418   3.258   3.366  1.7409 -3.0180  2.0491
   15MOL    H9410202   1.416   3.345   3.512  1.0039  0.1244 -0.8810
   15MOL    H9510203   1.301   3.057   3.493 -0.7129  1.2863 -1.4931
   15MOL    H9610204   1.365   3.140   3.635  0.4498  4.2243 -0.9831
   15MOL    H9710205   1.528   3.067   3.386  1.0755  1.2701  0.0502
   15MOL    H9810206   1.581   3.124   3.537  0.1028 -0.2873  1.2935
   15MOL    H9910207   1.473   2.843   3.473 -0.7069  0.6894 -0.0450
   15MOL   H10010208   1.636   2.889   3.527 -0.0686  1.1495 -1.4808
   15MOL   H10110209   1.388   2.926   3.703 -0.9372 -1.0844 -0.6511
   15MOL   H10210210   1.433   2.782   3.698 -0.3090 -0.4452 -1.3481
   15MOL   H10310211   1.678   2.836   3.788 -0.8643 -0.7120 -0.1320
   15MOL   H10410212   1.537   2.877   3.882 -1.5837 -0.1486 -1.4769
   15MOL   H10510213   1.726   3.222   3.665 -1.0464 -0.0914 -0.1619
   15MOL   H10610214   1.891   3.201   3.724 -0.6235 -0.4842  0.6208
   15MOL   H10710215   1.821   3.364   3.713  1.5004 -1.3683  0.0185
   15MOL   H10810216   1.796   3.419   3.999  3.3046  0.3848  2.6213
   15MOL   H10910217   1.771   3.279   4.079 -0.4107 -2.6289 -0.9425
   15MOL   C11010218   2.162   3.965   3.085  0.0429  0.3074 -0.0571
   15MOL   C11110219   2.125   3.808   3.103  0.6541  0.5820 -0.1041
   15MOL   C11210220   1.991   3.773   3.177  0.0071 -0.8083 -0.1373
   15MOL   C11310221   1.996   3.791   3.331  0.2395  0.3074  0.2614
   15MOL   C11410222   2.029   3.662   3.407 -0.1486 -0.1892 -0.5106
   15MOL   C11510223   2.067   3.682   3.552 -0.1727  0.4377 -0.0249
   15MOL   C11610224   2.029   3.560   3.638  0.3647  0.0363  0.2759
   15MOL   C11710225   2.058   3.587   3.785 -0.4191 -0.0659  0.1488
   15MOL   O11810226   1.995   3.494   3.872  0.6815 -0.4437 -0.6098
   15MOL   C11910227   2.036   3.373   3.884  1.2600  0.8315 -0.0361
   15MOL   O12010228   2.127   3.323   3.814  0.1567 -0.6223  0.0184
   15MOL   C12110229   1.973   3.294   3.997  0.0106  0.0338 -0.0884
   15MOL   C12210230   2.016   3.138   4.005  0.1829 -0.0448  0.2635
   15MOL   C12310231   2.020   3.367   4.124  0.0358  0.0626  0.2485
   15MOL   H12410232   2.254   3.984   3.030 -1.4605  0.8676 -2.4684
   15MOL   H12510233   2.080   4.020   3.040 -0.5284  1.4706  2.3331
   15MOL   H12610234   2.171   4.007   3.185 -3.3292  1.8458 -0.3311
   15MOL   H12710235   2.207   3.746   3.141  1.2175 -0.1686 -2.4698
   15MOL   H12810236   2.114   3.772   3.001 -2.6265 -0.8826  0.7057
   15MOL   H12910237   1.961   3.669   3.164  1.0026 -0.9965 -1.0049
   15MOL   H13010238   1.924   3.849   3.138  0.7129 -0.5802 -0.9279
   15MOL   H13110239   2.080   3.859   3.346  1.5419 -1.2848  0.4480
   15MOL   H13210240   1.910   3.840   3.375  0.4205  1.2293 -0.4134
   15MOL   H13310241   2.113   3.614   3.357 -0.1550 -1.2781  0.5154
   15MOL   H13410242   1.950   3.588   3.391  0.4000 -1.1446  1.1148
   15MOL   H13510243   2.175   3.687   3.565 -0.1587 -1.0057  0.5503
   15MOL   H13610244   2.028   3.773   3.598 -2.3970 -0.3352 -0.3187
   15MOL   H13710245   2.078   3.466   3.613  3.6580  1.4981  1.0061
   15MOL   H13810246   1.922   3.538   3.632  0.1604  1.1126 -0.1063
   15MOL   H13910247   2.165   3.581   3.806 -0.7197 -1.2889  1.4099
   15MOL   H14010248   2.030   3.685   3.824 -0.8209  0.0079 -0.3264
   15MOL   H14110249   2.118   3.106   3.984  0.3903 -0.2324  1.5341
   15MOL   H14210250   1.993   3.109   4.107  0.7102  1.1164  0.7139
   15MOL   H14310251   1.955   3.085   3.931 -0.8800 -0.6552  1.5673
   15MOL   H14410252   1.952   3.362   4.209 -0.2316  2.4462  0.2062
   15MOL   H14510253   2.016   3.476   4.113  1.2017  0.3995  2.6679
   15MOL   C14610254   1.374   2.854   4.605 -0.3615 -0.1890  0.2447
   15MOL   C14710255   1.441   2.828   4.466 -0.9554  0.4964 -0.6845
   15MOL   C14810256   1.587   2.878   4.480 -0.6286 -0.4402  0.0746
   15MOL   C14910257   1.645   2.868   4.335  0.2557 -0.0955  0.3111
   15MOL   C15010258   1.792   2.854   4.327  0.1122 -0.4314  0.0190
   15MOL   C15110259   1.869   2.986   4.366  0.4220  0.7241  0.2427
   15MOL   C15210260   2.013   2.960   4.382  0.5417 -0.1367  0.3584
   15MOL   C15310261   2.096   3.067   4.452 -0.0619 -0.7193  0.1887
   15MOL   O15410262   2.090   3.187   4.380 -0.1059  0.4401  0.1145
   15MOL   C15510263   2.162   3.199   4.264 -0.4187  0.1963  0.4222
   15MOL   O15610264   2.230   3.101   4.218 -0.9420  0.2282  0.4566
   15MOL   C15710265   2.162   3.339   4.192  0.2709 -1.0180  0.7759
   15MOL   C15810266   2.283   3.353   4.095 -0.4993 -0.0124  1.0119
   15MOL   C15910267   2.178   3.457   4.299 -0.0558  0.1238  0.8930
   15MOL   H16010268   1.358   2.960   4.627  0.1287 -0.2396  0.8449
   15MOL   H16110269   1.441   2.819   4.684 -1.5774  0.5150  1.6223
   15MOL   H16210270   1.280   2.799   4.615 -0.2440 -0.4854 -0.3078
   15MOL   H16310271   1.442   2.723   4.440  0.3175 -0.1284  1.6990
   15MOL   H16410272   1.384   2.872   4.384  0.7943 -0.1624 -2.2749
   15MOL   H16510273   1.641   2.806   4.542 -0.1200 -0.4001 -0.3165
   15MOL   H16610274   1.596   2.972   4.533  1.3616 -1.5971  1.8969
   15MOL   H16710275   1.603   2.784   4.282  0.2712  1.3036 -1.9761
   15MOL   H16810276   1.621   2.956   4.276  2.1094  1.3287  1.5936
   15MOL   H16910277   1.841   2.827   4.234 -2.8938  1.0502 -2.0763
   15MOL   H17010278   1.814   2.771   4.394 -1.5340 -1.2232 -0.3949
   15MOL   H17110279   1.833   3.025   4.461  0.5037  0.0337  0.5571
   15MOL   H17210280   1.851   3.061   4.289  0.9896  1.1340  0.5118
   15MOL   H17310281   2.032   2.871   4.441  2.7541  0.1384  0.0879
   15MOL   H17410282   2.051   2.922   4.287 -0.6717 -2.2600  0.6826
   15MOL   H17510283   2.060   3.089   4.552 -1.4243  2.2071 -0.8816
   15MOL   H17610284   2.200   3.041   4.472 -0.1861 -1.0331  0.4198
   15MOL   H17710285   2.279   3.278   4.015 -0.4693  0.2278  0.7828
   15MOL   H17810286   2.381   3.337   4.140 -1.0344  0.0093  2.1968
   15MOL   H17910287   2.283   3.441   4.030  0.7777 -0.9143 -0.2378
   15MOL   H18010288   2.091   3.462   4.363 -1.1453  1.4571 -0.6438
   15MOL   H18110289   2.155   3.544   4.237 -1.4907 -1.5554 -0.9832
   15MOL   C18210290   3.236   3.926   3.967 -0.1866  0.2903  0.6382
   15MOL   C18310291   3.109   4.009   3.981 -0.9255 -0.2822 -0.3272
   15MOL   C18410292   2.987   3.935   4.038 -0.3034  0.1215  0.3638
   15MOL   C18510293   2.992   3.926   4.190  0.1725  0.2914  0.7148
   15MOL   C18610294   2.874   3.840   4.253  0.4416  0.0507  0.4911
   15MOL   C18710295   2.889   3.687   4.223 -0.2904 -0.1765  0.0854
   15MOL   C18810296   2.780   3.611   4.296 -0.1117 -0.4204 -0.5708
   15MOL   C18910297   2.638   3.626   4.235  0.1972 -0.6622 -0.1260
   15MOL   O19010298   2.543   3.551   4.313 -0.1164  0.1432  0.3832
   15MOL   C19110299   2.409   3.575   4.279  0.4142 -0.0953 -0.8614
   15MOL   O19210300   2.364   3.661   4.199 -0.3875 -0.5618  0.6221
   15MOL   C19310301   2.314   3.499   4.372  0.0058 -0.2683 -0.1721
   15MOL   C19410302   2.376   3.372   4.446  0.1007  1.0395  0.3013
   15MOL   C19510303   2.281   3.596   4.488  0.3981 -1.0596  0.3709
   15MOL   H19610304   3.276   3.897   4.063  2.1999 -0.2634 -0.4786
   15MOL   H19710305   3.212   3.839   3.905 -0.9176 -0.1089  1.4725
   15MOL   H19810306   3.318   3.981   3.920  1.0451  1.0988  3.6445
   15MOL   H19910307   3.085   4.043   3.880 -2.0348  0.0013  0.0147
   15MOL   H20010308   3.128   4.094   4.046 -0.4374  1.1121 -2.2584
   15MOL   H20110309   2.896   3.988   4.010 -0.9540  0.2789  2.6850
   15MOL   H20210310   2.967   3.834   4.002  0.4815  0.0737  0.0571
   15MOL   H20310311   3.091   3.886   4.215  0.1079  0.7529  1.7331
   15MOL   H20410312   2.974   4.019   4.242  1.4475  0.6843  0.4745
   15MOL   H20510313   2.780   3.876   4.210  1.5607 -0.6152 -2.6329
   15MOL   H20610314   2.869   3.861   4.360 -1.8409  1.6801  0.1145
   15MOL   H20710315   2.985   3.658   4.265 -0.9798 -1.1846  1.0024
   15MOL   H20810316   2.899   3.666   4.117 -2.1233  0.2201 -0.1969
   15MOL   H20910317   2.801   3.504   4.304  1.9227  0.0477  0.8889
   15MOL   H21010318   2.766   3.643   4.399 -1.1957  1.6778 -1.3360
   15MOL   H21110319   2.656   3.578   4.138  0.4185 -1.6765  0.4066
   15MOL   H21210320   2.612   3.730   4.216  0.7870 -0.6092 -0.6672
   15MOL   H21310321   2.313   3.325   4.521 -1.1093 -0.0389 -1.3469
   15MOL   H21410322   2.405   3.297   4.372 -1.5927  0.1125  0.5454
   15MOL   H21510323   2.472   3.388   4.495  0.8855  2.9583 -1.7991
   15MOL   H21610324   2.199   3.655   4.446  1.6263 -0.3354 -1.0393
   15MOL   H21710325   2.239   3.537   4.570  0.0153  0.8665  1.5952
   15MOL   C21810326   2.800   2.966   5.469 -0.4845  0.0883 -0.3791
   15MOL   C21910327   2.843   3.075   5.369 -0.2293 -0.0069 -0.2266
   15MOL   C22010328   2.729   3.115   5.274 -0.4673 -0.0647 -0.1080
   15MOL   C22110329   2.773   3.202   5.152 -0.5321 -0.4224  0.0673
   15MOL   C22210330   2.650   3.231   5.059  0.4363 -0.3877  0.0020
   15MOL   C22310331   2.687   3.323   4.938  0.0839 -0.1597  0.5104
   15MOL   C22410332   2.571   3.343   4.843 -0.1050 -0.3065  0.2096
   15MOL   C22510333   2.605   3.461   4.750 -0.8204  0.5784  0.2992
   15MOL   O22610334   2.494   3.518   4.687 -0.4851  0.1098 -0.2877
   15MOL   C22710335   2.510   3.630   4.613 -0.3108  0.1936  0.3118
   15MOL   O22810336   2.619   3.685   4.603 -0.5951 -0.8799 -0.2693
   15MOL   C22910337   2.381   3.697   4.562 -1.0551  0.2013 -0.6431
   15MOL   C23010338   2.312   3.734   4.700  0.1182  0.1494  0.2750
   15MOL   C23110339   2.430   3.834   4.487  0.2145  0.1906 -0.2319
   15MOL   H23210340   2.702   2.962   5.518  0.6102  2.0809  2.1199
   15MOL   H23310341   2.869   2.980   5.553  0.3671  0.2748 -1.1031
   15MOL   H23410342   2.826   2.864   5.441 -1.5193 -0.6580  1.2724
   15MOL   H23510343   2.931   3.044   5.314 -0.1143  1.5321 -0.9424
   15MOL   H23610344   2.873   3.163   5.426 -1.5535 -0.3822  1.0987
   15MOL   H23710345   2.671   3.032   5.233 -2.5317  1.0304  0.5139
   15MOL   H23810346   2.655   3.176   5.325 -0.2838  0.4826 -0.4897
   15MOL   H23910347   2.823   3.293   5.183 -1.8896 -0.4991  2.6351
   15MOL   H24010348   2.842   3.142   5.093  0.0756  0.3772 -0.0274
   15MOL   H24110349   2.623   3.129   5.033 -0.8514  0.1705 -0.8984
   15MOL   H24210350   2.570   3.277   5.117 -0.7231 -3.2145  0.6998
   15MOL   H24310351   2.729   3.416   4.975 -0.0067 -0.2618  0.8792
   15MOL   H24410352   2.769   3.278   4.883  1.8495  1.8253  1.4559
   15MOL   H24510353   2.479   3.350   4.901  0.0446 -1.1486  0.5623
   15MOL   H24610354   2.549   3.263   4.771 -0.0844 -0.7949  0.7419
   15MOL   H24710355   2.687   3.425   4.687 -0.4507  1.1467  0.4535
   15MOL   H24810356   2.646   3.534   4.820 -0.4299  0.8469 -0.2027
   15MOL   H24910357   2.215   3.778   4.679  1.0013  3.3608  2.6468
   15MOL   H25010358   2.366   3.811   4.755 -1.4254  0.5953  1.2106
   15MOL   H25110359   2.295   3.646   4.763  1.9239 -1.0381 -0.8370
   15MOL   H25210360   2.517   3.869   4.542 -0.3091 -1.0379  1.4125
   15MOL   H25310361   2.474   3.803   4.392 -0.9163  0.1153 -0.7438
   15MOL   C25410362   3.081   4.031   4.559 -0.0771  0.3427  0.1405
   15MOL   C25510363   3.042   4.079   4.701  0.2676 -0.6544 -0.4558
   15MOL   C25610364   2.904   4.139   4.706  0.0857 -1.3664  0.1347
   15MOL   C25710365   2.871   4.196   4.843  0.1250  0.5836 -0.2441
   15MOL   C25810366   2.756   4.295   4.834  0.3048 -0.6933  0.7018
   15MOL   C25910367   2.635   4.250   4.750  0.1420 -0.6929 -0.2944
   15MOL   C26010368   2.545   4.170   4.847  0.6557  0.4038 -1.0035
   15MOL   C26110369   2.408   4.139   4.784 -0.7949 -0.0987  0.0529
   15MOL   O26210370   2.430   4.083   4.655  0.2946  0.0260 -0.0362
   15MOL   C26310371   2.315   4.041   4.591 -0.4016  0.1833  0.8936
   15MOL   O26410372   2.197   4.072   4.624  0.3311 -0.0945 -0.6511
   15MOL   C26510373   2.349   3.965   4.459 -0.3409  0.9221  0.1090
   15MOL   C26610374   2.219   3.932   4.398 -0.7018  0.1086  0.2061
   15MOL   C26710375   2.441   4.054   4.357 -0.2148  0.0700 -0.4661
   15MOL   H26810376   3.101   4.115   4.492 -1.7973 -0.0078 -0.8488
   15MOL   H26910377   3.175   3.976   4.565 -0.3814  0.0858  2.6676
   15MOL   H27010378   3.002   3.981   4.504 -1.5673  1.0225  1.6542
   15MOL   H27110379   3.051   4.014   4.788  0.5107  0.1062  0.0964
   15MOL   H27210380   3.107   4.160   4.732 -1.2882  0.8751 -1.0814
   15MOL   H27310381   2.829   4.065   4.678 -2.9491  2.1482 -1.4790
   15MOL   H27410382   2.895   4.219   4.632  1.6346  0.4006  1.7937
   15MOL   H27510383   2.953   4.259   4.878  0.3278  1.3303 -2.0159
   15MOL   H27610384   2.857   4.122   4.923 -0.6287  2.4194  1.3653
   15MOL   H27710385   2.729   4.325   4.935 -1.8772 -0.6500  0.1349
   15MOL   H27810386   2.784   4.388   4.784 -0.9432  0.1086  1.4551
   15MOL   H27910387   2.662   4.202   4.655  1.2828 -2.3312  0.8363
   15MOL   H28010388   2.576   4.338   4.722  1.6061  0.1805 -0.7013
   15MOL   H28110389   2.585   4.073   4.878 -0.2661  0.2269 -0.3547
   15MOL   H28210390   2.532   4.225   4.939 -0.8371  0.9132 -1.4974
   15MOL   H28310391   2.354   4.068   4.846 -0.6769  0.4907  0.8399
   15MOL   H28410392   2.365   4.238   4.768 -1.4274  0.0168  2.3389
   15MOL   H28510393   2.162   3.857   4.452 -0.3403  0.3288  0.8915
   15MOL   H28610394   2.157   4.022   4.393  1.1325  1.4261  0.7283
   15MOL   H28710395   2.214   3.889   4.297 -0.5674 -0.6846  0.5324
   15MOL   H28810396   2.452   3.982   4.276  0.3334 -2.7457  1.9978
   15MOL   H28910397   2.539   4.055   4.405 -0.7786  0.8613  0.7048
   15MOL   C29010398   1.666   3.704   3.634  0.1482  0.2185 -0.6089
   15MOL   C29110399   1.610   3.788   3.757 -0.5926  0.5465 -0.0729
   15MOL   C29210400   1.724   3.823   3.849 -0.5050 -0.3219 -0.3801
   15MOL   C29310401   1.822   3.928   3.798  0.3364 -0.2443  0.2530
   15MOL   C29410402   1.933   3.970   3.897  0.5709  0.4539 -0.6688
   15MOL   C29510403   2.024   4.075   3.839  0.3266  0.0046  0.2327
   15MOL   C29610404   2.151   4.088   3.916 -0.5335 -0.0993  0.3872
   15MOL   C29710405   2.146   4.064   4.065 -0.0093 -0.1352  0.0973
   15MOL   O29810406   2.272   4.101   4.129 -0.0160  0.0900  0.5643
   15MOL   C29910407   2.283   4.204   4.214  0.4462 -0.3920 -0.3390
   15MOL   O30010408   2.207   4.306   4.208  0.1484  0.1980  0.3033
   15MOL   C30110409   2.413   4.195   4.304 -0.5430  0.1276  0.0277
   15MOL   C30210410   2.411   4.302   4.419  0.1437  0.2740  0.1246
   15MOL   C30310411   2.545   4.227   4.220  0.9966  0.4325 -0.5478
   15MOL   H30410412   1.586   3.684   3.562  0.5973  0.3352 -1.1481
   15MOL   H30510413   1.680   3.604   3.677 -1.3456  0.2596 -0.0078
   15MOL   H30610414   1.754   3.729   3.574  1.1347  0.0735  0.7446
   15MOL   H30710415   1.543   3.723   3.813  1.1611 -0.3479  1.0297
   15MOL   H30810416   1.573   3.879   3.711  0.7641  0.0105 -2.3017
   15MOL   H30910417   1.783   3.739   3.884 -3.0239 -0.7254  3.2504
   15MOL   H31010418   1.679   3.871   3.936 -0.5778  0.5509 -0.8914
   15MOL   H31110419   1.863   3.899   3.701  1.7001  1.4060  0.3000
   15MOL   H31210420   1.773   4.021   3.771 -0.1970 -0.0647  1.8056
   15MOL   H31310421   1.892   4.002   3.993  1.2806 -0.8065  0.0833
   15MOL   H31410422   1.989   3.879   3.920  0.2377  1.0644  2.8622
   15MOL   H31510423   1.964   4.165   3.853 -0.4560 -0.4151 -0.3642
   15MOL   H31610424   2.043   4.064   3.732 -0.2882 -0.0282  0.1231
   15MOL   H31710425   2.199   4.184   3.903  3.1577 -1.7877  0.7559
   15MOL   H31810426   2.233   4.026   3.878 -2.0203 -1.5707 -0.5048
   15MOL   H31910427   2.138   3.961   4.098  1.2994 -0.3303 -0.1790
   15MOL   H32010428   2.068   4.128   4.106  1.1571  1.2283  0.2512
   15MOL   H32110429   2.333   4.273   4.489  0.4568  0.1868  0.4430
   15MOL   H32210430   2.382   4.402   4.389 -0.9254 -0.4417 -1.2673
   15MOL   H32310431   2.503   4.305   4.478 -0.0345 -1.2958  0.5097
   15MOL   H32410432   2.630   4.212   4.286 -1.2504 -0.2200  2.2852
   15MOL   H32510433   2.560   4.138   4.158 -3.3526 -1.0993  0.3532
   15MOL   C32610434   3.307   4.707   4.667  0.2896  0.4820 -0.2324
   15MOL   C32710435   3.189   4.625   4.724 -0.0443 -0.1254 -0.1856
   15MOL   C32810436   3.050   4.697   4.718 -0.0481 -0.7287 -0.2455
   15MOL   C32910437   2.942   4.601   4.768 -0.3402 -0.0708 -0.2118
   15MOL   C33010438   2.806   4.666   4.766  0.5541 -0.0173 -0.0024
   15MOL   C33110439   2.758   4.692   4.621  0.6763  1.4156  0.0696
   15MOL   C33210440   2.736   4.561   4.532 -0.4220  0.0102  0.2091
   15MOL   C33310441   2.659   4.594   4.404  0.1077  0.8984 -0.1285
   15MOL   O33410442   2.661   4.481   4.315 -0.0563 -0.2590  0.5459
   15MOL   C33510443   2.572   4.482   4.216  0.8240 -0.2874  0.2474
   15MOL   O33610444   2.487   4.569   4.186  0.4576 -0.9138  0.0714
   15MOL   C33710445   2.569   4.352   4.131  0.0312  0.0180 -0.0588
   15MOL   C33810446   2.714   4.335   4.072  0.1853  0.2354 -0.7295
   15MOL   C33910447   2.466   4.366   4.010  0.1079  0.0942 -0.5717
   15MOL   H34010448   3.320   4.670   4.565  0.1313  0.6855 -0.3280
   15MOL   H34110449   3.401   4.679   4.715 -1.1382 -3.1098  0.6670
   15MOL   H34210450   3.283   4.813   4.672 -2.2051 -0.0854  0.5270
   15MOL   H34310451   3.205   4.593   4.827 -1.1601 -2.4932 -0.7208
   15MOL   H34410452   3.176   4.529   4.674  2.0100  0.1279 -1.2665
   15MOL   H34510453   3.028   4.721   4.614  1.1351  0.6839 -0.1904
   15MOL   H34610454   3.066   4.788   4.776  2.8273 -0.7604 -0.9055
   15MOL   H34710455   2.959   4.570   4.871  0.1513  1.8306  0.3074
   15MOL   H34810456   2.951   4.512   4.706 -0.3252 -0.1214 -0.1353
   15MOL   H34910457   2.736   4.603   4.819  1.0006 -1.0446 -0.6149
   15MOL   H35010458   2.814   4.762   4.817 -0.2933  0.1710 -0.2109
   15MOL   H35110459   2.659   4.737   4.619  0.4129  0.8091 -0.6265
   15MOL   H35210460   2.821   4.764   4.568  2.7327  0.4074  1.0879
   15MOL   H35310461   2.692   4.484   4.595  0.7850  0.5479  1.7579
   15MOL   H35410462   2.838   4.526   4.515  0.3077  0.4951  3.2059
   15MOL   H35510463   2.554   4.617   4.422 -0.7105 -0.4795 -2.8517
   15MOL   H35610464   2.698   4.686   4.359  2.1152  0.5971  0.9234
   15MOL   H35710465   2.769   4.295   4.157 -2.5301 -0.6756  0.6576
   15MOL   H35810466   2.716   4.258   3.994  0.2170 -0.4948 -0.0154
   15MOL   H35910467   2.769   4.423   4.040 -1.2254  1.5934  0.4862
   15MOL   H36010468   2.447   4.265   3.974  1.0505 -1.1082  2.1254
   15MOL   H36110469   2.370   4.398   4.050  0.6459  3.1711 -1.6396
   15MOL   C36210470   1.680   4.015   3.466 -0.3432 -1.0040  0.4749
   15MOL   C36310471   1.750   4.090   3.357 -0.5495 -0.2742 -0.6784
   15MOL   C36410472   1.882   4.161   3.394  0.1680  0.1887 -0.2024
   15MOL   C36510473   1.842   4.280   3.485  0.0260  0.0460  0.0779
   15MOL   C36610474   1.969   4.351   3.544  0.2979 -0.3513 -0.8111
   15MOL   C36710475   1.948   4.486   3.621 -0.5489 -0.3922 -0.1352
   15MOL   C36810476   2.075   4.532   3.701 -0.2075 -0.2274  0.3920
   15MOL   C36910477   2.112   4.442   3.814 -0.3551  0.3435 -0.1978
   15MOL   O37010478   2.241   4.475   3.854 -0.9085 -0.3387 -0.0798
   15MOL   C37110479   2.347   4.423   3.796  0.4203 -0.5263 -0.1656
   15MOL   O37210480   2.338   4.349   3.694  0.0240 -0.0404  0.1206
   15MOL   C37310481   2.481   4.444   3.868 -1.4878 -0.0127 -0.0402
   15MOL   C37410482   2.595   4.378   3.791  0.2150  0.6284 -0.3715
   15MOL   C37510483   2.516   4.596   3.901 -0.0545 -0.2050  0.1457
   15MOL   H37610484   1.746   3.962   3.536  0.3744  1.4352  1.6900
   15MOL   H37710485   1.627   4.092   3.522  0.3505 -0.6889  0.7070
   15MOL   H37810486   1.613   3.937   3.429 -0.1164 -0.1320 -1.8559
   15MOL   H37910487   1.681   4.155   3.304 -0.8908  0.0890  0.1965
   15MOL   H38010488   1.765   4.014   3.280  2.1252 -0.7291  0.2352
   15MOL   H38110489   1.950   4.196   3.317  0.4157 -1.2825 -0.6626
   15MOL   H38210490   1.939   4.090   3.454 -0.7465 -1.7323 -1.5727
   15MOL   H38310491   1.773   4.252   3.565 -0.9875  1.6718 -0.2187
   15MOL   H38410492   1.795   4.350   3.416  0.5151 -1.5279 -1.9337
   15MOL   H38510493   2.015   4.285   3.618  0.5787  1.0780  0.3246
   15MOL   H38610494   2.042   4.367   3.465 -0.1793  1.3844 -0.9242
   15MOL   H38710495   1.857   4.471   3.680 -0.4922  1.0190  0.3149
   15MOL   H38810496   1.925   4.566   3.551  3.8868 -0.1948 -1.4773
   15MOL   H38910497   2.056   4.632   3.740  0.5049 -0.7346  2.0938
   15MOL   H39010498   2.151   4.542   3.624 -2.5804  0.8087 -1.8859
   15MOL   H39110499   2.052   4.452   3.905 -0.0711  1.3923 -0.1209
   15MOL   H39210500   2.113   4.341   3.773  0.9737  0.4392 -0.3999
   15MOL   H39310501   2.598   4.271   3.813  1.5138  0.3771 -1.7029
   15MOL   H39410502   2.566   4.387   3.686 -0.1040 -1.6508 -0.5005
   15MOL   H39510503   2.696   4.412   3.813  0.5224 -0.1679 -0.5179
   15MOL   H39610504   2.427   4.635   3.950 -0.9824  0.4196 -1.9769
   15MOL   H39710505   2.596   4.601   3.975 -1.5241  0.3610  1.7318
   15MOL   C39810506   2.301   4.026   3.476  0.1487  0.0818  0.2410
   15MOL   C39910507   2.397   4.005   3.351  0.7936 -0.4069 -1.1727
   15MOL   C40010508   2.431   4.130   3.263 -0.4974  0.1508 -1.0888
   15MOL   C40110509   2.511   4.232   3.344 -0.0025 -1.2251  0.0866
   15MOL   C40210510   2.542   4.358   3.254  0.3625  0.2911  0.5697
   15MOL   C40310511   2.531   4.491   3.332 -0.2171  0.7215 -0.1622
   15MOL   C40410512   2.387   4.524   3.386  0.8653  0.0749  0.4979
   15MOL   C40510513   2.389   4.652   3.474  0.6997  0.4139 -0.3820
   15MOL   O40610514   2.468   4.643   3.592  0.2936 -0.2477 -0.3711
   15MOL   C40710515   2.439   4.716   3.698 -0.0658 -0.0448 -0.3992
   15MOL   O40810516   2.346   4.798   3.697 -0.6718  0.2565 -0.0705
   15MOL   C40910517   2.550   4.706   3.808  0.2644 -0.3385  0.3245
   15MOL   C41010518   2.543   4.841   3.893 -0.5873  0.2439  0.0879
   15MOL   C41110519   2.695   4.685   3.752  0.0693 -0.0005 -0.7827
   15MOL   H41210520   2.282   3.934   3.531  4.2898 -1.0414 -0.0420
   15MOL   H41310521   2.208   4.062   3.432 -0.7852 -1.7236  0.7001
   15MOL   H41410522   2.339   4.106   3.539  0.8516 -0.3527  0.3725
   15MOL   H41510523   2.366   3.916   3.296 -2.6499 -1.1063  1.7897
   15MOL   H41610524   2.489   3.974   3.400  0.0429 -1.5731 -0.5134
   15MOL   H41710525   2.489   4.107   3.173  3.3229 -0.3840  1.3778
   15MOL   H41810526   2.343   4.173   3.214 -0.6180 -0.0853 -1.0769
   15MOL   H41910527   2.610   4.204   3.378 -0.1035 -0.8625  0.6830
   15MOL   H42010528   2.464   4.260   3.438  2.0819  1.7951  0.2942
   15MOL   H42110529   2.642   4.360   3.212  0.5796 -1.4830  0.9906
   15MOL   H42210530   2.461   4.377   3.183  1.4173  0.4996 -0.5827
   15MOL   H42310531   2.566   4.579   3.278 -0.5927  1.5624  0.9173
   15MOL   H42410532   2.582   4.492   3.428 -0.8777  0.7549  0.1945
   15MOL   H42510533   2.325   4.540   3.298  0.4444  0.4347  0.8575
   15MOL   H42610534   2.344   4.439   3.438 -1.1295 -0.6377 -2.2242
   15MOL   H42710535   2.432   4.731   3.413 -0.4950  0.0138 -1.8116
   15MOL   H42810536   2.288   4.680   3.505  0.4789 -2.3486  1.5681
   15MOL   H42910537   2.616   4.829   3.973 -1.3006  1.6488  0.9686
   15MOL   H43010538   2.446   4.858   3.941 -1.8431 -2.0859 -1.5522
   15MOL   H43110539   2.556   4.939   3.847 -2.0319  0.6442  0.4902
   15MOL   H43210540   2.688   4.607   3.677 -0.6280  1.9786 -2.8474
   15MOL   H43310541   2.757   4.650   3.834 -0.0663  1.0143 -0.2240
   15MOL   C43410542   2.233   5.018   4.384 -0.3938  0.2824  0.0989
   15MOL   C43510543   2.355   4.961   4.309  0.2027  0.5553  0.5413
   15MOL   C43610544   2.494   4.981   4.369  0.6177 -0.1375  0.1419
   15MOL   C43710545   2.607   4.950   4.273 -0.0117 -0.5043  0.0913
   15MOL   C43810546   2.751   4.994   4.310 -0.1990  0.4438 -0.3501
   15MOL   C43910547   2.856   4.939   4.213 -0.1745 -0.0799  0.0455
   15MOL   C44010548   2.859   4.998   4.072  0.0331 -0.4855  0.1669
   15MOL   C44110549   2.964   4.944   3.964  0.5627  0.7103 -0.2403
   15MOL   O44210550   2.904   4.856   3.879  0.0429  0.1737 -0.6150
   15MOL   C44310551   2.828   4.908   3.774  0.2196  1.2242 -0.4184
   15MOL   O44410552   2.803   5.026   3.758 -0.4527 -0.3841  0.5703
   15MOL   C44510553   2.779   4.795   3.677  0.0622 -0.0766  0.1046
   15MOL   C44610554   2.684   4.868   3.570 -0.1446  0.2984  0.2900
   15MOL   C44710555   2.890   4.728   3.590  0.2347  0.4357 -0.0459
   15MOL   H44810556   2.219   4.960   4.475  0.3978 -2.2439 -1.3383
   15MOL   H44910557   2.149   5.022   4.314 -1.4190  1.9398  1.3967
   15MOL   H45010558   2.262   5.120   4.409 -0.8053  0.9634 -2.0642
   15MOL   H45110559   2.355   5.010   4.212  1.0627  0.9063  0.7063
   15MOL   H45210560   2.349   4.856   4.282  0.3444  0.7558 -0.2894
   15MOL   H45310561   2.500   4.926   4.462 -2.2405 -3.1901 -1.3604
   15MOL   H45410562   2.504   5.088   4.386 -1.7588 -0.0239  1.0453
   15MOL   H45510563   2.581   5.000   4.180 -1.8974  1.3991  1.5858
   15MOL   H45610564   2.598   4.846   4.241  0.4257 -0.8431  1.0592
   15MOL   H45710565   2.758   5.103   4.314  0.0193  0.5390 -2.8211
   15MOL   H45810566   2.776   4.959   4.410  1.7495  0.9005 -0.6482
   15MOL   H45910567   2.853   4.830   4.218  2.4453 -0.2235 -0.6231
   15MOL   H46010568   2.954   4.963   4.254 -0.7056 -0.6378  1.6725
   15MOL   H46110569   2.765   4.989   4.018 -0.2924  1.7040  0.3408
   15MOL   H46210570   2.867   5.106   4.085 -1.1300 -0.4151  0.3381
   15MOL   H46310571   3.041   4.897   4.025  0.0602 -1.5587 -1.2910
   15MOL   H46410572   3.007   5.027   3.908 -0.5926  0.2203 -1.8953
   15MOL   H46510573   2.730   4.950   3.515 -3.1180  2.6524  1.1765
   15MOL   H46610574   2.658   4.796   3.493 -2.1417  2.1272 -0.7958
   15MOL   H46710575   2.596   4.913   3.615  0.3361 -0.2357  1.8244
   15MOL   H46810576   2.838   4.666   3.518 -0.1595  1.6384 -0.8027
   15MOL   H46910577   2.931   4.804   3.523  0.3853  0.0487 -0.3958
   15MOL   C47010578   3.490   5.171   2.853  0.0831 -0.3746  0.1999
   15MOL   C47110579   3.467   5.114   2.994  0.2162  0.0994 -0.3603
   15MOL   C47210580   3.444   5.227   3.094  0.3416  0.1366  0.3983
   15MOL   C47310581   3.428   5.163   3.234 -0.5740 -0.8506 -0.1393
   15MOL   C47410582   3.351   5.245   3.341  1.0537  1.1850 -0.1102
   15MOL   C47510583   3.348   5.160   3.473 -0.1601  0.0407 -0.4542
   15MOL   C47610584   3.268   5.030   3.456  0.0651 -0.7005  0.1169
   15MOL   C47710585   3.250   4.964   3.588 -0.4052  0.0625  0.1390
   15MOL   O47810586   3.153   4.857   3.581 -0.3068 -0.0690 -0.4156
   15MOL   C47910587   3.139   4.764   3.681  0.3462 -0.5710  0.4071
   15MOL   O48010588   3.209   4.755   3.781 -0.7217  0.3545 -0.5318
   15MOL   C48110589   3.030   4.662   3.640  0.4256 -0.3875  0.0971
   15MOL   C48210590   3.000   4.563   3.750  0.9993  0.0761  0.3020
   15MOL   C48310591   3.085   4.590   3.512  0.1929 -0.6658  0.2520
   15MOL   H48410592   3.398   5.224   2.828 -0.6517 -1.0177  1.4543
   15MOL   H48510593   3.508   5.093   2.779 -1.0727 -1.1039  0.6701
   15MOL   H48610594   3.575   5.239   2.843  2.0855 -3.0066 -1.3699
   15MOL   H48710595   3.371   5.062   2.996 -0.1905  0.8693  2.1494
   15MOL   H48810596   3.544   5.039   3.014 -0.4970 -1.0172 -1.7592
   15MOL   H48910597   3.523   5.301   3.105 -0.8519  1.8173 -1.9534
   15MOL   H49010598   3.358   5.288   3.069 -1.0327 -0.6954  2.9077
   15MOL   H49110599   3.385   5.064   3.220 -0.6447 -0.9472  0.7315
   15MOL   H49210600   3.530   5.146   3.270 -0.5580 -1.6739 -0.5534
   15MOL   H49310601   3.401   5.341   3.354 -0.9895  2.3554 -0.6982
   15MOL   H49410602   3.249   5.264   3.309  0.3626 -3.1938 -0.7212
   15MOL   H49510603   3.449   5.137   3.506 -0.3572 -0.7993 -0.4287
   15MOL   H49610604   3.295   5.226   3.541 -2.4510  1.7577 -3.7318
   15MOL   H49710605   3.170   5.051   3.414  0.4474 -0.5748 -0.7249
   15MOL   H49810606   3.316   4.963   3.385  0.7756  0.9849 -1.0142
   15MOL   H49910607   3.221   5.034   3.666  0.9057  2.3717 -1.4039
   15MOL   H50010608   3.346   4.921   3.617 -0.1261  0.7326  0.2238
   15MOL   H50110609   2.928   4.487   3.717  3.1982 -2.1279  0.4131
   15MOL   H50210610   2.958   4.618   3.834  1.6501  0.7549  0.1796
   15MOL   H50310611   3.084   4.509   3.794  0.5338 -0.6893  0.2605
   15MOL   H50410612   3.008   4.521   3.478  0.4869 -1.1862  0.6331
   15MOL   H50510613   3.103   4.666   3.436 -0.2222 -0.1892  0.6348
   15MOL   C50610614   2.737   3.497   3.234 -0.1511 -0.1528  0.2264
   15MOL   C50710615   2.797   3.640   3.229 -0.2117 -0.9133  0.9604
   15MOL   C50810616   2.764   3.736   3.344 -0.1757  0.0694 -0.3582
   15MOL   C50910617   2.867   3.844   3.359  0.4268 -0.4638 -0.0344
   15MOL   C51010618   2.848   3.917   3.496  0.2899 -0.4105  0.2592
   15MOL   C51110619   2.959   4.029   3.518 -0.6396 -0.0383  0.5631
   15MOL   C51210620   2.931   4.116   3.636  0.2149 -0.3225 -0.2643
   15MOL   C51310621   3.041   4.208   3.673 -0.2196 -0.1844 -0.6566
   15MOL   O51410622   3.079   4.296   3.573  0.4171 -0.9880  0.2222
   15MOL   C51510623   3.193   4.364   3.600 -0.1374  0.2523 -0.3953
   15MOL   O51610624   3.277   4.339   3.687  0.6137 -0.7164  0.4035
   15MOL   C51710625   3.210   4.485   3.508 -0.0108  0.4450 -0.1722
   15MOL   C51810626   3.202   4.434   3.356  0.1295 -0.2449 -0.5982
   15MOL   C51910627   3.346   4.566   3.536  0.4389 -0.2222 -0.1495
   15MOL   H52010628   2.630   3.500   3.251 -0.3310 -0.0957 -0.9050
   15MOL   H52110629   2.791   3.431   3.302 -0.1113 -1.9342 -1.5183
   15MOL   H52210630   2.748   3.442   3.141 -2.8820  0.8378 -0.7270
   15MOL   H52310631   2.786   3.692   3.133 -0.0140 -1.2817  0.7359
   15MOL   H52410632   2.903   3.616   3.239  0.3149  0.8904  0.0386
   15MOL   H52510633   2.667   3.785   3.335 -0.7100 -1.3398 -2.9320
   15MOL   H52610634   2.760   3.680   3.438 -1.5304  0.0495 -0.4136
   15MOL   H52710635   2.965   3.795   3.360  0.3907 -0.5462 -0.6732
   15MOL   H52810636   2.854   3.920   3.282 -1.2617  0.4420  1.1164
   15MOL   H52910637   2.754   3.971   3.501  0.8456  0.7330 -1.3091
   15MOL   H53010638   2.857   3.849   3.580  2.0182 -2.8460 -1.8075
   15MOL   H53110639   2.973   4.103   3.439  0.5306 -0.2781  0.5284
   15MOL   H53210640   3.051   3.974   3.537 -1.4436 -1.4540  0.4561
   15MOL   H53310641   2.916   4.047   3.719 -0.6078 -1.8568 -1.6508
   15MOL   H53410642   2.842   4.178   3.638  1.9215  2.2077 -1.0459
   15MOL   H53510643   3.128   4.147   3.693 -0.6725 -0.4996  0.3633
   15MOL   H53610644   3.025   4.262   3.766  0.2514 -1.9368  0.4671
   15MOL   H53710645   3.214   4.514   3.283 -1.2917  2.9808  2.5522
   15MOL   H53810646   3.108   4.388   3.323 -0.3556  0.7094 -0.5588
   15MOL   H53910647   3.279   4.360   3.335  0.8793  0.6993 -1.2146
   15MOL   H54010648   3.330   4.672   3.514  2.8979  0.7753  2.4709
   15MOL   H54110649   3.355   4.564   3.645  0.8856  0.2879 -0.1716
   15MOL   C54210650   3.193   5.273   3.871 -0.2010 -0.3997  0.2237
   15MOL   C54310651   3.337   5.294   3.892 -1.0658  0.1992 -0.5379
   15MOL   C54410652   3.419   5.183   3.967  0.5509 -0.0860 -0.3527
   15MOL   C54510653   3.444   5.056   3.886 -0.7889  0.3707  0.3978
   15MOL   C54610654   3.511   4.941   3.962 -0.0870 -0.0011  0.4477
   15MOL   C54710655   3.538   4.820   3.878  0.2609  0.4065  0.2876
   15MOL   C54810656   3.654   4.841   3.773 -0.4071 -0.0677 -1.1381
   15MOL   C54910657   3.707   4.712   3.713 -0.1035 -0.7825  0.2132
   15MOL   O55010658   3.609   4.628   3.653 -0.0841  0.0938  0.1868
   15MOL   C55110659   3.588   4.630   3.522  0.2894 -0.3394  0.3408
   15MOL   O55210660   3.631   4.718   3.450  0.2052  0.1208 -0.1643
   15MOL   C55310661   3.487   4.524   3.465  0.0628 -0.0233 -0.7433
   15MOL   C55410662   3.480   4.531   3.314  0.1339  0.0071 -0.7035
   15MOL   C55510663   3.538   4.381   3.520  0.2360  0.3142 -0.1292
   15MOL   H55610664   3.155   5.360   3.818  0.3436 -0.2195  0.1275
   15MOL   H55710665   3.156   5.281   3.974 -0.0348 -1.6463  0.3939
   15MOL   H55810666   3.158   5.179   3.828 -0.4434  0.8916 -2.4815
   15MOL   H55910667   3.386   5.318   3.797  0.4163  1.4417  0.5040
   15MOL   H56010668   3.357   5.393   3.933  0.2579  0.0642 -0.8268
   15MOL   H56110669   3.367   5.154   4.058 -0.9612  2.4294 -0.3531
   15MOL   H56210670   3.517   5.218   3.999  0.0836  0.5857  0.3934
   15MOL   H56310671   3.346   5.012   3.864 -1.1853  2.8284 -3.3407
   15MOL   H56410672   3.492   5.080   3.791 -0.6915 -2.4257 -0.2968
   15MOL   H56510673   3.435   4.910   4.034 -0.3223 -0.0059  0.1961
   15MOL   H56610674   3.607   4.974   4.001  0.9866 -0.3233 -1.8102
   15MOL   H56710675   3.582   4.743   3.942  4.0161  2.1071 -0.1419
   15MOL   H56810676   3.455   4.781   3.818 -0.5430 -1.9531  2.8152
   15MOL   H56910677   3.624   4.913   3.696  0.1969 -0.6715 -1.9429
   15MOL   H57010678   3.742   4.894   3.810  1.3124  0.0532 -5.2236
   15MOL   H57110679   3.753   4.647   3.788  0.0953 -0.8250  0.0523
   15MOL   H57210680   3.787   4.729   3.641 -0.8272 -3.5530 -1.3011
   15MOL   H57310681   3.425   4.618   3.278 -0.9200  0.0813  1.0471
   15MOL   H57410682   3.454   4.443   3.254 -2.1249  0.6981 -0.7790
   15MOL   H57510683   3.578   4.547   3.271 -0.4586  1.8572 -1.4019
   15MOL   H57610684   3.472   4.314   3.464 -2.1897  1.1077  1.6853
   15MOL   H57710685   3.502   4.351   3.618  1.6920 -0.9948  0.0104
   15MOL   C57810686   3.090   4.489   4.300  0.1734  0.0655 -0.0131
   15MOL   C57910687   3.222   4.499   4.225  0.3707  0.3303  0.2186
   15MOL   C58010688   3.212   4.472   4.072  0.2281 -0.4363 -0.6799
   15MOL   C58110689   3.343   4.508   4.005  0.1275 -0.4407 -0.7209
   15MOL   C58210690   3.462   4.415   4.035  0.0698  0.0638 -0.0755
   15MOL   C58310691   3.592   4.451   3.957 -0.6217 -0.8977 -0.3122
   15MOL   C58410692   3.701   4.344   3.973  0.4395  0.3288 -0.1057
   15MOL   C58510693   3.792   4.359   3.859 -0.3800 -0.2279 -0.4460
   15MOL   O58610694   3.728   4.324   3.735 -0.2711  0.0306 -1.0779
   15MOL   C58710695   3.772   4.367   3.619 -0.3305  0.2386  0.9830
   15MOL   O58810696   3.874   4.434   3.607 -0.2485 -0.2979 -0.3313
   15MOL   C58910697   3.687   4.316   3.501 -0.4612 -1.2932 -0.0753
   15MOL   C59010698   3.753   4.357   3.369  0.1216  0.0479  0.6762
   15MOL   C59110699   3.676   4.157   3.516 -0.0086  0.0303  0.7722
   15MOL   H59210700   3.068   4.382   4.304 -0.6446  0.3178  3.7185
   15MOL   H59310701   3.013   4.526   4.232 -1.0629 -0.3686  1.1360
   15MOL   H59410702   3.074   4.523   4.402  0.7526  0.5171 -0.0661
   15MOL   H59510703   3.295   4.434   4.272  0.0259 -0.4680 -0.3376
   15MOL   H59610704   3.259   4.600   4.242  1.5686  0.1079 -1.0179
   15MOL   H59710705   3.142   4.537   4.019  0.5727  0.0008 -0.5887
   15MOL   H59810706   3.185   4.369   4.046  1.8233 -1.3418  1.1340
   15MOL   H59910707   3.367   4.613   4.024  1.2534 -0.4588 -1.9050
   15MOL   H60010708   3.317   4.508   3.899 -1.2829  1.3609 -0.4009
   15MOL   H60110709   3.429   4.318   3.998  2.2227 -0.6013 -0.3628
   15MOL   H60210710   3.479   4.402   4.142  0.5290  4.3106  0.4570
   15MOL   H60310711   3.638   4.546   3.980  0.7594 -1.1454 -1.9627
   15MOL   H60410712   3.555   4.453   3.854 -0.6201 -2.0552 -0.3509
   15MOL   H60510713   3.651   4.247   3.982  1.4148 -0.2344 -0.7348
   15MOL   H60610714   3.755   4.356   4.067 -0.5301  1.7912  0.2815
   15MOL   H60710715   3.838   4.458   3.856  0.3316 -0.5307  0.2687
   15MOL   H60810716   3.881   4.296   3.869  0.3926  1.0512  1.0611
   15MOL   H60910717   3.694   4.335   3.280 -0.0431 -0.7826  0.9947
   15MOL   H61010718   3.775   4.464   3.368  1.9973 -0.3004  1.9816
   15MOL   H61110719   3.845   4.304   3.345 -0.6541 -0.4966 -1.1548
   15MOL   H61210720   3.599   4.127   3.446  2.0146 -1.5369 -0.8578
   15MOL   H61310721   3.635   4.125   3.612  0.1972 -0.6291  0.6418
   15MOL   C61410722   4.363   4.366   2.638  0.2239  0.4723  0.1583
   15MOL   C61510723   4.331   4.213   2.668 -0.4137  0.4155  0.8819
   15MOL   C61610724   4.175   4.186   2.657  0.5881 -0.0923  0.2761
   15MOL   C61710725   4.142   4.051   2.721 -0.3045  0.3703  0.1826
   15MOL   C61810726   4.147   4.058   2.880 -0.2462  0.4278  0.0077
   15MOL   C61910727   4.108   3.928   2.954  0.0700  0.1491 -0.1714
   15MOL   C62010728   4.083   3.953   3.101  0.6509  0.1990 -0.0590
   15MOL   C62110729   3.952   4.031   3.136 -0.1035 -0.2069  0.5080
   15MOL   O62210730   3.917   4.035   3.277 -0.1387  0.6427 -0.2136
   15MOL   C62310731   3.798   4.045   3.322  0.2515  0.4962 -0.0330
   15MOL   O62410732   3.706   4.054   3.237 -0.2148  0.0497 -0.2402
   15MOL   C62510733   3.785   4.043   3.479  0.0355 -0.4011  0.0855
   15MOL   C62610734   3.915   4.074   3.558  0.3285  0.2869  0.3817
   15MOL   C62710735   3.716   3.913   3.519 -0.2605 -0.9407 -0.4189
   15MOL   H62810736   4.305   4.437   2.697 -1.5841  0.3234 -1.4033
   15MOL   H62910737   4.335   4.392   2.536 -0.3797  0.8335  0.4159
   15MOL   H63010738   4.467   4.391   2.662 -0.4970  3.1265  0.6607
   15MOL   H63110739   4.387   4.155   2.594  1.4420  1.2608  1.6104
   15MOL   H63210740   4.376   4.205   2.767  0.4837  0.1889  0.4663
   15MOL   H63310741   4.128   4.192   2.559 -0.3272  2.2194  0.8164
   15MOL   H63410742   4.121   4.268   2.706 -0.9135 -0.9522  0.0858
   15MOL   H63510743   4.217   3.980   2.685 -0.5575  0.0262  0.3235
   15MOL   H63610744   4.042   4.013   2.698 -0.1832 -0.2733  0.6977
   15MOL   H63710745   4.245   4.089   2.916  0.0655 -2.9940  2.4414
   15MOL   H63810746   4.082   4.140   2.912 -1.1944  0.5890 -2.2555
   15MOL   H63910747   4.021   3.873   2.918 -1.2236  0.1919  2.7672
   15MOL   H64010748   4.197   3.865   2.945  0.4371  0.3991  1.5563
   15MOL   H64110749   4.172   4.003   3.140  0.4673 -0.9845  1.9404
   15MOL   H64210750   4.098   3.855   3.146  0.6972  0.4577  0.4999
   15MOL   H64310751   3.935   4.121   3.077 -2.0023 -1.4009 -0.8295
   15MOL   H64410752   3.881   3.966   3.085  0.2968 -1.3027  1.3105
   15MOL   H64510753   3.967   3.978   3.551 -0.9577 -0.3023 -1.2342
   15MOL   H64610754   3.894   4.081   3.665  2.5536 -1.0790  0.9425
   15MOL   H64710755   3.980   4.154   3.523 -1.3354  0.7858 -1.6698
   15MOL   H64810756   3.638   3.902   3.443 -0.0336 -0.2561 -0.7536
   15MOL   H64910757   3.659   3.926   3.611  0.5252 -2.5374  0.3157
   15MOL   C65010758   4.345   2.871   3.533  0.2285  0.3203  0.0853
   15MOL   C65110759   4.368   3.019   3.579 -0.5084  0.4888 -0.2683
   15MOL   C65210760   4.304   3.058   3.718  0.5024 -0.0936 -0.2094
   15MOL   C65310761   4.284   3.209   3.730 -0.7519 -0.4013 -0.2177
   15MOL   C65410762   4.186   3.246   3.846 -0.6572  0.3747 -0.8320
   15MOL   C65510763   4.148   3.395   3.868  0.4893 -0.1500 -0.1905
   15MOL   C65610764   4.025   3.440   3.779  0.0711 -0.0817 -0.5487
   15MOL   C65710765   3.988   3.590   3.785  0.2095  0.0123 -0.4886
   15MOL   O65810766   3.924   3.629   3.666 -0.1070 -0.1394 -0.1215
   15MOL   C65910767   3.858   3.746   3.658 -0.4037  0.3654 -0.0369
   15MOL   O66010768   3.848   3.826   3.749 -0.1612  0.0824 -0.4370
   15MOL   C66110769   3.784   3.767   3.524 -0.4643  0.2458 -0.6245
   15MOL   C66210770   3.888   3.754   3.397  0.1191  0.4312 -0.4564
   15MOL   C66310771   3.676   3.648   3.502  0.4112  0.1897  0.0812
   15MOL   H66410772   4.236   2.862   3.532  0.2124  0.5890 -0.6381
   15MOL   H66510773   4.395   2.793   3.589  1.2593  0.9429  0.0471
   15MOL   H66610774   4.378   2.856   3.430  1.7879  0.1833  0.5970
   15MOL   H66710775   4.321   3.073   3.498 -1.5991  0.2458  0.1967
   15MOL   H66810776   4.475   3.038   3.571 -0.5878  0.4438 -1.3997
   15MOL   H66910777   4.369   3.018   3.796  1.1459  0.2425 -0.5646
   15MOL   H67010778   4.207   3.008   3.716  1.1448 -1.3535 -1.0128
   15MOL   H67110779   4.268   3.263   3.637 -0.2988  0.8187  0.3912
   15MOL   H67210780   4.376   3.257   3.764 -0.8934 -0.2683 -0.0226
   15MOL   H67310781   4.243   3.230   3.938 -1.2695  0.9243 -0.3580
   15MOL   H67410782   4.095   3.186   3.842  0.5253 -1.7564  1.7535
   15MOL   H67510783   4.128   3.431   3.969 -0.9154  1.4804 -1.0158
   15MOL   H67610784   4.237   3.458   3.858  0.3657  0.3085  1.4610
   15MOL   H67710785   3.929   3.389   3.785  0.8929 -1.9207 -2.3379
   15MOL   H67810786   4.048   3.417   3.675  1.7713 -0.1132 -0.1874
   15MOL   H67910787   4.074   3.655   3.802 -0.8777  2.0551 -2.5222
   15MOL   H68010788   3.924   3.614   3.871  1.8238 -0.3818  0.8551
   15MOL   H68110789   3.938   3.658   3.389  2.4849  1.4965  1.1626
   15MOL   H68210790   3.973   3.823   3.399  0.6178 -0.1877 -0.1850
   15MOL   H68310791   3.830   3.761   3.305  0.9047  0.2803 -0.9640
   15MOL   H68410792   3.625   3.661   3.407 -0.2860  0.7819  0.5412
   15MOL   H68510793   3.740   3.559   3.497  0.2530  0.0407  0.7647
   15MOL   C68610794   2.802   4.114   2.995 -0.2940 -0.1478 -0.7407
   15MOL   C68710795   2.936   4.180   2.984 -0.6742 -0.3528  0.1019
   15MOL   C68810796   3.042   4.114   3.079 -0.1531  0.0595 -0.3820
   15MOL   C68910797   3.183   4.161   3.064  0.3763  0.2311 -0.1050
   15MOL   C69010798   3.284   4.060   3.121 -0.3522  0.6258 -0.1036
   15MOL   C69110799   3.267   4.036   3.274  0.3714 -0.8954 -0.0048
   15MOL   C69210800   3.369   3.931   3.330  0.0115 -0.8045 -0.6466
   15MOL   C69310801   3.313   3.856   3.453  0.6617 -0.2511  0.0095
   15MOL   O69410802   3.392   3.746   3.483 -0.3313  0.1548 -0.0412
   15MOL   C69510803   3.452   3.727   3.603  0.2929  0.3151  0.3894
   15MOL   O69610804   3.425   3.792   3.705  0.3509 -0.1864  0.5655
   15MOL   C69710805   3.562   3.615   3.597  0.2149 -0.9148  0.1434
   15MOL   C69810806   3.605   3.567   3.736  0.0879 -0.2611  0.3304
   15MOL   C69910807   3.497   3.487   3.542  0.6065 -0.5079 -0.7706
   15MOL   H70010808   2.758   4.145   2.900 -0.2491 -2.1839 -1.4580
   15MOL   H70110809   2.739   4.144   3.079  1.0553 -0.6037  0.4477
   15MOL   H70210810   2.802   4.005   2.999  1.9038 -0.1625 -0.5270
   15MOL   H70310811   2.931   4.287   3.003 -1.9243 -0.2590 -0.7117
   15MOL   H70410812   2.973   4.170   2.882 -2.3140 -0.1445 -0.5244
   15MOL   H70510813   3.046   4.005   3.068 -0.4639  0.1297 -1.2252
   15MOL   H70610814   2.997   4.129   3.177  0.9800  3.1119 -0.2857
   15MOL   H70710815   3.196   4.260   3.110 -1.9179  0.8779 -0.7846
   15MOL   H70810816   3.206   4.181   2.960  1.1157  0.1247  0.0333
   15MOL   H70910817   3.389   4.078   3.097  0.2014 -1.0744  0.8803
   15MOL   H71010818   3.273   3.959   3.082 -0.9335  1.4332 -2.0704
   15MOL   H71110819   3.261   4.126   3.335  0.4460 -1.8461  1.4324
   15MOL   H71210820   3.172   3.996   3.310  0.7315 -1.2493  0.5690
   15MOL   H71310821   3.394   3.860   3.252 -0.0873 -0.5074 -0.9476
   15MOL   H71410822   3.460   3.981   3.366  0.5318 -1.9726 -0.3309
   15MOL   H71510823   3.211   3.822   3.436  1.3490 -2.8058  0.8330
   15MOL   H71610824   3.306   3.915   3.545  1.4039  2.2466 -1.4837
   15MOL   H71710825   3.698   3.510   3.730 -0.0780 -0.7461  2.2542
   15MOL   H71810826   3.640   3.646   3.802 -0.3383  0.0253  0.2136
   15MOL   H71910827   3.536   3.507   3.796 -1.4827 -0.2963 -1.4590
   15MOL   H72010828   3.400   3.470   3.587  1.8629 -2.6382  1.2320
   15MOL   H72110829   3.560   3.402   3.567  0.6804  0.4681  2.6051
   15MOL   H72210830   3.479   3.494   3.434 -2.0808  1.4894 -0.2557
   16MOL     C110831   4.775   4.492   6.794  1.0460  0.3216  0.0031
   16MOL     C210832   4.772   4.338   6.823  0.2635  0.2889 -0.9669
   16MOL     C310833   4.761   4.259   6.695 -0.5910  0.6072 -0.2779
   16MOL     C410834   4.717   4.111   6.698  0.6061 -0.0350 -0.1026
   16MOL     C510835   4.737   4.036   6.555  0.4012 -0.1233  0.0203
   16MOL     C610836   4.617   4.047   6.470 -0.4580 -0.3809 -0.6973
   16MOL     C710837   4.633   3.996   6.332  0.0610  0.4466  0.7096
   16MOL     C810838   4.553   4.085   6.231 -0.4902  0.3572  0.8330
   16MOL     O910839   4.550   4.010   6.115  0.3502  0.0213  0.3345
   16MOL    C1010840   4.479   4.057   6.017 -0.3259  0.3715  0.9888
   16MOL    O1110841   4.429   4.172   6.013 -0.3715  0.4565 -0.0963
   16MOL    C1210842   4.477   3.966   5.893  0.4173  0.3900 -0.3693
   16MOL    C1310843   4.619   3.921   5.854  0.1922  0.2855  0.9519
   16MOL    C1410844   4.378   3.840   5.907 -0.1338  0.5836 -0.2164
   16MOL    H1510845   4.828   4.536   6.878 -0.1260 -1.2598  1.6391
   16MOL    H1610846   4.679   4.541   6.775  0.7175  0.1889  1.2847
   16MOL    H1710847   4.832   4.495   6.701 -0.0268 -3.3675 -0.8765
   16MOL    H1810848   4.697   4.308   6.896 -0.7155 -0.7503 -2.3561
   16MOL    H1910849   4.865   4.307   6.870 -1.2011 -2.3790  0.3112
   16MOL    H2010850   4.692   4.316   6.632  0.8316  1.0118 -1.5003
   16MOL    H2110851   4.854   4.264   6.639 -1.8780 -0.6640 -2.6081
   16MOL    H2210852   4.788   4.062   6.765  0.2109  0.3930  0.6427
   16MOL    H2310853   4.619   4.090   6.742 -0.1126  1.2684 -1.0329
   16MOL    H2410854   4.750   3.929   6.572 -1.1145 -0.2366  0.5166
   16MOL    H2510855   4.824   4.069   6.498 -0.0640 -1.3564 -1.4598
   16MOL    H2610856   4.597   4.154   6.464 -1.8617 -0.5745  0.3729
   16MOL    H2710857   4.532   3.998   6.518  0.3155  1.0472  2.1979
   16MOL    H2810858   4.590   3.896   6.321  0.8847  0.0427  1.1393
   16MOL    H2910859   4.739   3.997   6.308  0.1901 -0.7019  1.2256
   16MOL    H3010860   4.597   4.184   6.219 -1.0653  0.9201  2.9611
   16MOL    H3110861   4.448   4.105   6.255 -1.6807 -1.6279 -2.4116
   16MOL    H3210862   4.619   3.851   5.770 -1.6546 -0.6248  1.7008
   16MOL    H3310863   4.683   4.008   5.836 -2.6794  2.2162 -0.2775
   16MOL    H3410864   4.667   3.865   5.933  0.4848 -1.7321 -0.6200
   16MOL    H3510865   4.370   3.812   6.012 -2.7432 -1.4796 -0.8885
   16MOL    H3610866   4.423   3.764   5.843  3.5304  2.7737 -0.3637
   16MOL    H3710867   4.442   4.030   5.812 -1.6526  0.0981  0.2462
   16MOL    C3810868   4.784   3.177   5.249 -0.0458 -0.2670 -0.4327
   16MOL    C3910869   4.634   3.177   5.284  0.3244  0.8697  1.0583
   16MOL    C4010870   4.549   3.307   5.257  0.3873 -0.0729 -0.0691
   16MOL    C4110871   4.556   3.418   5.362 -0.6969  0.0972  0.1057
   16MOL    C4210872   4.467   3.535   5.325  0.3849  0.7148  0.0527
   16MOL    C4310873   4.406   3.604   5.449 -0.2000 -0.5248  0.3280
   16MOL    C4410874   4.301   3.718   5.416 -0.3227  0.4183 -0.1361
   16MOL    C4510875   4.314   3.847   5.503 -0.0647 -0.8946 -0.6058
   16MOL    O4610876   4.276   3.815   5.634  0.4105 -0.1524  0.5289
   16MOL    C4710877   4.244   3.909   5.721  0.7320 -0.0075 -1.0254
   16MOL    O4810878   4.237   4.028   5.699 -0.3257  0.3819 -0.2485
   16MOL    C4910879   4.228   3.859   5.867  0.2521  0.4278  0.7240
   16MOL    C5010880   4.152   3.956   5.958  0.0915 -0.5997  0.3885
   16MOL    C5110881   4.161   3.716   5.867  0.1788 -0.1196 -0.8565
   16MOL    H5210882   4.844   3.261   5.285  2.0181 -1.7071 -0.4554
   16MOL    H5310883   4.784   3.177   5.140 -1.4493  2.0630 -0.4715
   16MOL    H5410884   4.840   3.087   5.275  0.6692 -0.2333 -1.8499
   16MOL    H5510885   4.632   3.139   5.386 -0.4085 -1.5386  0.1830
   16MOL    H5610886   4.607   3.090   5.225  1.8104  1.0765  0.0477
   16MOL    H5710887   4.590   3.352   5.166  1.5314  0.0338  0.4803
   16MOL    H5810888   4.444   3.285   5.239  0.3014 -1.0850  1.6282
   16MOL    H5910889   4.657   3.455   5.379 -1.0397  1.6490 -1.0787
   16MOL    H6010890   4.515   3.376   5.453  0.2620  1.8786  1.4048
   16MOL    H6110891   4.524   3.600   5.258 -1.3045  0.5951 -1.5150
   16MOL    H6210892   4.392   3.507   5.252  0.3074 -0.6411  0.6300
   16MOL    H6310893   4.354   3.534   5.513  0.6621 -1.0696  0.4485
   16MOL    H6410894   4.483   3.649   5.512  0.7877 -0.9694 -0.5444
   16MOL    H6510895   4.206   3.669   5.438  1.9647 -4.2896 -0.0106
   16MOL    H6610896   4.299   3.746   5.311 -0.0264 -0.7921 -0.4691
   16MOL    H6710897   4.236   3.913   5.465 -0.0118  1.2274  2.7556
   16MOL    H6810898   4.418   3.880   5.511 -0.3097  0.1340 -1.4308
   16MOL    H6910899   4.218   4.030   6.004  0.9840 -0.2167 -1.4278
   16MOL    H7010900   4.073   4.008   5.904  1.1451  0.7293  0.0718
   16MOL    H7110901   4.104   3.908   6.043 -0.3320  0.2084  0.6122
   16MOL    H7210902   4.180   3.668   5.963 -1.8284 -1.5656 -1.1597
   16MOL    H7310903   4.223   3.656   5.801  0.6842  0.2782 -0.7491
   16MOL    C7410904   4.046   2.884   6.261  0.1666  0.6121  0.2262
   16MOL    C7510905   3.981   2.993   6.355 -0.1419  0.8032  0.2304
   16MOL    C7610906   4.018   3.137   6.320  0.1925  1.2952  0.8764
   16MOL    C7710907   3.987   3.236   6.434 -0.2757 -0.2004  0.8491
   16MOL    C7810908   4.023   3.379   6.417  0.3906  0.1933  1.0392
   16MOL    C7910909   3.935   3.451   6.315  0.3330  0.4559 -0.6813
   16MOL    C8010910   3.991   3.595   6.309 -0.1905  0.3312  0.4050
   16MOL    C8110911   3.925   3.685   6.208 -0.5331  0.1963  0.0150
   16MOL    O8210912   3.965   3.650   6.076  0.2136 -0.4778 -0.5716
   16MOL    C8310913   3.936   3.741   5.980  0.4859  0.7315  0.5426
   16MOL    O8410914   3.859   3.833   5.985 -0.1665 -0.1486  0.3210
   16MOL    C8510915   4.003   3.692   5.847 -0.0447  0.4648  0.0989
   16MOL    C8610916   3.958   3.787   5.735 -0.8500 -0.3452  0.0548
   16MOL    C8710917   3.974   3.537   5.823  0.1836  0.1518  0.0321
   16MOL    H8810918   4.056   2.921   6.159 -0.4992  0.2505  0.0267
   16MOL    H8910919   4.001   2.785   6.267 -2.2893  1.8169  2.4610
   16MOL    H9010920   4.149   2.861   6.288  0.4893 -0.2883 -1.6825
   16MOL    H9110921   4.007   2.977   6.460  1.2594 -1.3390 -0.4173
   16MOL    H9210922   3.874   2.975   6.356  0.0336 -0.2562  1.2069
   16MOL    H9310923   4.124   3.130   6.299  0.5688 -2.0235  3.3692
   16MOL    H9410924   3.975   3.159   6.223 -0.6966 -0.1338  0.9206
   16MOL    H9510925   4.040   3.192   6.519  2.2552 -1.1131 -1.1329
   16MOL    H9610926   3.879   3.230   6.448 -0.4202 -3.9351 -1.3137
   16MOL    H9710927   4.027   3.429   6.514 -0.0205  0.2246  1.0406
   16MOL    H9810928   4.125   3.382   6.379  0.0666  1.5351  0.2476
   16MOL    H9910929   3.956   3.404   6.219  0.9286  1.3354 -0.9947
   16MOL   H10010930   3.830   3.451   6.341  0.2572  1.2864 -0.9615
   16MOL   H10110931   3.958   3.627   6.407 -0.8677  1.7797 -0.2831
   16MOL   H10210932   4.099   3.586   6.307 -0.2782 -0.7660 -1.8115
   16MOL   H10310933   3.969   3.779   6.240  1.2207 -0.2470 -1.0634
   16MOL   H10410934   3.816   3.692   6.213 -0.4499  0.4619  1.7319
   16MOL   H10510935   3.978   3.894   5.742  1.5873 -0.9116  2.8923
   16MOL   H10610936   3.851   3.778   5.715 -0.6902 -0.4157 -0.8208
   16MOL   H10710937   4.012   3.742   5.652 -0.3646 -0.1349  0.2550
   16MOL   H10810938   4.040   3.516   5.739  2.3887  0.2068  1.6903
   16MOL   H10910939   4.029   3.499   5.909  0.2768  0.2829  0.0299
   16MOL   C11010940   2.973   3.560   5.086  0.3457 -0.0676 -0.1988
   16MOL   C11110941   3.103   3.643   5.099 -0.3013 -0.0525  0.5453
   16MOL   C11210942   3.150   3.653   5.245  0.0248 -0.1146 -0.1107
   16MOL   C11310943   3.280   3.738   5.270 -0.1202 -0.0426  0.6231
   16MOL   C11410944   3.325   3.727   5.413 -0.1226  0.7546  0.8503
   16MOL   C11510945   3.455   3.793   5.446  0.0496 -0.0788 -0.5201
   16MOL   C11610946   3.539   3.745   5.566 -0.1811 -0.6678  1.1196
   16MOL   C11710947   3.610   3.610   5.543 -0.0376  0.1677 -0.2720
   16MOL   O11810948   3.675   3.576   5.661  0.2474 -0.5890  0.0718
   16MOL   C11910949   3.782   3.492   5.660 -0.3756 -0.0192  0.0080
   16MOL   O12010950   3.832   3.431   5.564  0.4767 -0.2436  0.0692
   16MOL   C12110951   3.835   3.457   5.805  0.3906  0.8038 -0.4822
   16MOL   C12210952   3.729   3.502   5.905 -0.3544 -0.1279 -0.4016
   16MOL   C12310953   3.874   3.301   5.822 -0.3383 -0.5644 -0.0038
   16MOL   H12410954   2.893   3.634   5.096 -0.0897 -0.6121  0.3975
   16MOL   H12510955   2.963   3.518   4.986  0.3891  1.0796 -0.7010
   16MOL   H12610956   2.965   3.496   5.174 -0.0551  3.7217  2.6882
   16MOL   H12710957   3.078   3.743   5.066 -0.5896 -0.3943 -0.2891
   16MOL   H12810958   3.185   3.602   5.039 -0.5299  0.8501 -0.3902
   16MOL   H12910959   3.166   3.553   5.285 -0.4580  0.1431  0.7257
   16MOL   H13010960   3.071   3.702   5.302 -0.0641 -0.1829 -0.1735
   16MOL   H13110961   3.355   3.692   5.205 -0.9128 -0.7478  0.2038
   16MOL   H13210962   3.279   3.842   5.238 -0.1056  0.2749  1.6494
   16MOL   H13310963   3.338   3.620   5.429 -1.5045  0.3382 -0.6353
   16MOL   H13410964   3.247   3.750   5.485 -0.0782 -1.4057  1.6145
   16MOL   H13510965   3.520   3.779   5.360 -1.6053  0.2042 -1.8493
   16MOL   H13610966   3.437   3.900   5.457  1.7482  0.3319 -1.5403
   16MOL   H13710967   3.474   3.742   5.654 -1.8988 -0.6735 -0.1247
   16MOL   H13810968   3.618   3.819   5.582  0.5490 -1.2345  0.1831
   16MOL   H13910969   3.531   3.540   5.516  0.6449 -0.0181 -1.8217
   16MOL   H14010970   3.682   3.618   5.462  2.5566  2.2550  2.1481
   16MOL   H14110971   3.637   3.451   5.878 -0.9031 -0.0066  1.1875
   16MOL   H14210972   3.746   3.472   6.009  2.2030 -1.6775 -1.2148
   16MOL   H14310973   3.702   3.607   5.892 -0.7502 -0.3479 -1.4233
   16MOL   H14410974   3.927   3.281   5.916 -0.0779  0.2319  0.0180
   16MOL   H14510975   3.962   3.283   5.760  1.2965 -1.8733  2.5921
   16MOL   C14610976   3.647   2.900   6.844 -0.2559 -0.5226  0.1408
   16MOL   C14710977   3.739   3.005   6.779 -0.3401 -0.6419  0.6545
   16MOL   C14810978   3.669   3.113   6.687  0.6053  1.1185  0.1534
   16MOL   C14910979   3.622   3.057   6.557 -0.3905  0.1488 -0.1970
   16MOL   C15010980   3.562   3.167   6.476 -0.1614 -0.4157  0.0023
   16MOL   C15110981   3.495   3.103   6.354  0.1920 -0.6140 -0.5427
   16MOL   C15210982   3.589   3.082   6.231 -0.8952 -0.6172 -0.2572
   16MOL   C15310983   3.672   3.202   6.181  0.1160  0.2059  0.4095
   16MOL   O15410984   3.742   3.196   6.063 -0.0145  0.0990 -0.1642
   16MOL   C15510985   3.674   3.203   5.945 -0.6104  0.1814 -0.2325
   16MOL   O15610986   3.555   3.227   5.928  0.0569  0.2060  0.2470
   16MOL   C15710987   3.768   3.185   5.829 -0.0538 -0.6229  0.1052
   16MOL   C15810988   3.679   3.192   5.706 -0.2115  0.5934  0.1512
   16MOL   C15910989   3.858   3.054   5.842 -0.5833  0.3408  0.9389
   16MOL   H16010990   3.589   2.844   6.771 -0.5442  0.1046 -0.1162
   16MOL   H16110991   3.565   2.944   6.901 -0.7256 -0.0226 -0.9084
   16MOL   H16210992   3.691   2.823   6.907 -2.1085 -0.5223  1.4442
   16MOL   H16310993   3.806   3.058   6.846  0.5810 -0.4973 -0.3735
   16MOL   H16410994   3.802   2.948   6.710 -0.5018  2.8426 -2.5313
   16MOL   H16510995   3.739   3.196   6.680  0.8180  0.6848 -3.9676
   16MOL   H16610996   3.590   3.158   6.746 -2.1485 -0.0617 -2.4978
   16MOL   H16710997   3.707   3.017   6.502 -0.3361 -0.2480  0.1699
   16MOL   H16810998   3.554   2.973   6.568 -0.0269 -0.2491 -0.9830
   16MOL   H16910999   3.640   3.237   6.449 -1.5307  1.2657  0.3294
   16MOL   H17011000   3.493   3.231   6.531 -1.4989 -0.4041 -1.6265
   16MOL   H17111001   3.426   3.178   6.316  1.3504  1.8370  1.9619
   16MOL   H17211002   3.441   3.015   6.388  0.1359 -0.8485 -1.2214
   16MOL   H17311003   3.658   3.004   6.262 -2.3404 -1.3392  1.2120
   16MOL   H17411004   3.531   3.037   6.150 -1.3816 -0.0133 -0.2499
   16MOL   H17511005   3.603   3.285   6.175 -0.0696  0.0444  0.3206
   16MOL   H17611006   3.750   3.220   6.256 -0.9184 -0.1851  1.5897
   16MOL   H17711007   3.608   3.109   5.702 -0.9686  1.2328  0.2734
   16MOL   H17811008   3.748   3.192   5.621 -0.2064 -1.0638  0.1250
   16MOL   H17911009   3.620   3.282   5.695 -1.4210 -0.1601  0.3945
   16MOL   H18011010   3.893   3.046   5.945  3.2764  4.9507  0.1698
   16MOL   H18111011   3.942   3.065   5.774 -0.0010  1.9849  1.8859
   16MOL   C18211012   3.854   3.073   4.603 -0.6943 -0.2330 -0.2931
   16MOL   C18311013   3.865   2.965   4.711 -0.1362 -0.2127 -1.0744
   16MOL   C18411014   3.819   3.018   4.843 -0.5834 -0.0106 -0.5153
   16MOL   C18511015   3.834   2.921   4.959 -0.2941  0.0050 -0.6942
   16MOL   C18611016   3.796   2.981   5.094  0.6915 -0.1314 -0.7997
   16MOL   C18711017   3.818   2.872   5.203 -0.2088 -0.0523 -0.4054
   16MOL   C18811018   3.809   2.929   5.347  0.1141 -0.1053 -0.2739
   16MOL   C18911019   3.845   2.832   5.456  0.1647 -0.4870  0.9190
   16MOL   O19011020   3.858   2.888   5.587 -0.2465  0.2977 -0.0366
   16MOL   C19111021   3.758   2.887   5.671 -0.5234  0.3056  0.2412
   16MOL   O19211022   3.643   2.863   5.643  0.1205 -0.3162 -0.4925
   16MOL   C19311023   3.800   2.908   5.824 -0.5358 -0.0507  0.4886
   16MOL   C19411024   3.683   2.890   5.923 -0.1803  0.1670  0.4001
   16MOL   C19511025   3.923   2.807   5.863  0.3060  0.2468 -0.1417
   16MOL   H19611026   3.943   3.137   4.595 -0.8884  0.0785  0.0083
   16MOL   H19711027   3.846   3.022   4.508  0.0515 -0.7815 -0.0661
   16MOL   H19811028   3.761   3.128   4.612  0.2649  1.4844 -0.6119
   16MOL   H19911029   3.966   2.925   4.715 -0.0651 -0.2005 -2.5058
   16MOL   H20011030   3.796   2.882   4.702  0.7931 -1.0436 -0.5603
   16MOL   H20111031   3.864   3.114   4.868  0.3734 -0.6322  0.1837
   16MOL   H20211032   3.710   3.030   4.841 -0.5129  0.8099 -0.0102
   16MOL   H20311033   3.770   2.836   4.932  2.2648 -1.6595 -1.7676
   16MOL   H20411034   3.936   2.884   4.962 -1.2679 -2.7711  0.0801
   16MOL   H20511035   3.694   3.019   5.106  0.7175  0.1485 -1.4781
   16MOL   H20611036   3.858   3.068   5.113  1.1818  0.0949 -3.2990
   16MOL   H20711037   3.923   2.844   5.214  0.0700  0.9572 -0.4810
   16MOL   H20811038   3.761   2.782   5.180  0.0652 -0.7637  1.6051
   16MOL   H20911039   3.876   3.014   5.352  1.0886 -0.9278  0.8427
   16MOL   H21011040   3.708   2.964   5.368  0.2616 -0.0336  0.3242
   16MOL   H21111041   3.943   2.790   5.434 -0.2703 -1.4444  0.7744
   16MOL   H21211042   3.776   2.747   5.463 -1.9881  1.3422  2.9061
   16MOL   H21311043   3.633   2.796   5.900  0.7565  0.0975 -1.4409
   16MOL   H21411044   3.710   2.892   6.029  0.9622 -1.3904  0.1471
   16MOL   H21511045   3.602   2.960   5.902 -1.3835 -2.1224 -2.8450
   16MOL   H21611046   4.000   2.818   5.786  1.1575 -0.7548  0.5547
   16MOL   H21711047   3.960   2.850   5.956  1.3712  1.1066 -0.9447
   16MOL   C21811048   4.233   2.294   4.814 -0.3130 -0.1332  0.7631
   16MOL   C21911049   4.107   2.308   4.892  0.4874  0.3558  0.1260
   16MOL   C22011050   4.133   2.329   5.042 -0.8096  0.2973  0.3712
   16MOL   C22111051   4.112   2.478   5.084 -0.4964  0.1992 -0.5063
   16MOL   C22211052   4.147   2.497   5.233 -0.5758  0.5615 -0.3833
   16MOL   C22311053   4.029   2.454   5.326 -0.9664  0.6787  0.1775
   16MOL   C22411054   4.051   2.504   5.470 -0.5456 -0.7006 -0.5762
   16MOL   C22511055   3.928   2.499   5.558 -0.4394  1.0522  0.5819
   16MOL   O22611056   3.947   2.570   5.683  0.3142 -0.1250 -0.0939
   16MOL   C22711057   3.855   2.573   5.784  0.2410 -1.0102  0.2776
   16MOL   O22811058   3.745   2.517   5.786  0.2625  0.0379 -0.1160
   16MOL   C22911059   3.905   2.655   5.903 -0.0210  0.2751  0.4993
   16MOL   C23011060   3.817   2.623   6.027 -0.5520  0.2002 -0.6262
   16MOL   C23111061   4.051   2.607   5.934 -0.2650  0.2122  0.1889
   16MOL   H23211062   4.284   2.390   4.827  2.8683 -1.6791  0.1517
   16MOL   H23311063   4.213   2.284   4.707 -2.2585  0.5314  1.0445
   16MOL   H23411064   4.304   2.219   4.848  1.0195  0.9009  0.3233
   16MOL   H23511065   4.065   2.207   4.884 -1.6850  1.0057  2.3399
   16MOL   H23611066   4.033   2.379   4.854 -0.2868  1.0263  2.7619
   16MOL   H23711067   4.054   2.277   5.096 -1.4054  0.6366 -0.1615
   16MOL   H23811068   4.223   2.284   5.083 -0.7443  0.6894  0.6635
   16MOL   H23911069   4.182   2.537   5.025  0.4254 -1.7866 -1.4357
   16MOL   H24011070   4.013   2.516   5.060 -0.6427 -1.2610 -2.3486
   16MOL   H24111071   4.232   2.438   5.268 -0.9486 -0.7713 -1.6583
   16MOL   H24211072   4.168   2.603   5.241 -1.3187  0.5646  1.6737
   16MOL   H24311073   3.939   2.502   5.287  0.5233  2.0940 -1.6376
   16MOL   H24411074   4.008   2.348   5.328 -1.2578  0.7552  1.5149
   16MOL   H24511075   4.086   2.606   5.462 -1.4250 -0.0012  3.5325
   16MOL   H24611076   4.132   2.446   5.514  0.4801 -0.4613 -2.1178
   16MOL   H24711077   3.894   2.396   5.570 -1.1735  1.1653 -0.4947
   16MOL   H24811078   3.854   2.559   5.505  1.5499  2.5124 -0.5921
   16MOL   H24911079   3.710   2.639   6.014 -1.2902 -2.0881  2.1191
   16MOL   H25011080   3.844   2.695   6.105 -0.7166  1.5585 -1.8228
   16MOL   H25111081   3.824   2.520   6.061  1.2422 -0.1361 -1.9568
   16MOL   H25211082   4.111   2.622   5.845 -0.2984  0.4941  0.2138
   16MOL   H25311083   4.088   2.680   6.006  0.7699 -1.0842  1.0114
   16MOL   C25411084   3.557   1.892   6.573  0.0867 -0.0272 -0.1960
   16MOL   C25511085   3.515   1.816   6.442 -0.0198  0.4816 -0.2364
   16MOL   C25611086   3.517   1.886   6.309  0.0110 -0.3386  0.0978
   16MOL   C25711087   3.650   1.959   6.266  0.4348  0.7761  0.6472
   16MOL   C25811088   3.633   2.018   6.124  0.7434 -0.3465 -0.2877
   16MOL   C25911089   3.766   2.076   6.064 -0.0849  0.7561 -0.1772
   16MOL   C26011090   3.745   2.136   5.922 -0.5718  0.1645 -0.3514
   16MOL   C26111091   3.879   2.185   5.864 -0.6017  0.5430 -0.2509
   16MOL   O26211092   3.947   2.283   5.944 -0.5237  0.4825  0.3732
   16MOL   C26311093   4.051   2.355   5.890  0.9608  0.1278 -1.4440
   16MOL   O26411094   4.092   2.329   5.777 -0.0773 -0.0251 -0.6500
   16MOL   C26511095   4.104   2.469   5.987 -0.1618  0.5897 -0.3687
   16MOL   C26611096   4.056   2.443   6.132 -0.4415  0.2227  0.3674
   16MOL   C26711097   4.255   2.439   5.977  0.6592  0.4821  0.1989
   16MOL   H26811098   3.481   1.964   6.604 -0.1844  0.2889 -1.5478
   16MOL   H26911099   3.566   1.820   6.654 -1.1584 -0.4279 -0.4077
   16MOL   H27011100   3.654   1.941   6.561  0.3958 -0.8229 -1.0704
   16MOL   H27111101   3.575   1.725   6.440 -1.2716 -0.4056  1.0259
   16MOL   H27211102   3.414   1.778   6.456 -0.0602  0.4975 -0.4892
   16MOL   H27311103   3.442   1.964   6.318 -1.0045 -0.9269 -2.8472
   16MOL   H27411104   3.466   1.818   6.241 -1.1716  1.2024 -0.5614
   16MOL   H27511105   3.734   1.894   6.288  0.5012  0.7756  0.3847
   16MOL   H27611106   3.683   2.046   6.322  0.0231  0.9867  0.5660
   16MOL   H27711107   3.593   1.936   6.065  0.8236  0.0200 -0.8544
   16MOL   H27811108   3.556   2.095   6.132 -1.0729 -1.8914 -2.2186
   16MOL   H27911109   3.836   1.994   6.048 -0.0805  0.6222  0.5373
   16MOL   H28011110   3.818   2.142   6.133  0.1062  3.1908 -2.5346
   16MOL   H28111111   3.706   2.054   5.862 -2.4461  1.1004 -0.4608
   16MOL   H28211112   3.670   2.215   5.926 -1.5013 -0.8296  2.3180
   16MOL   H28311113   3.958   2.110   5.866 -0.9488  0.1597 -0.9477
   16MOL   H28411114   3.876   2.211   5.758 -2.2691  1.3402 -0.0155
   16MOL   H28511115   4.062   2.532   6.195 -0.1161  0.1160  0.4900
   16MOL   H28611116   3.968   2.382   6.153 -0.3328  0.6940  2.3553
   16MOL   H28711117   4.133   2.382   6.179 -0.6080 -0.3593 -0.1107
   16MOL   H28811118   4.284   2.420   5.874 -1.0642 -2.3950  0.1869
   16MOL   H28911119   4.267   2.343   6.028  1.2550  0.4787  0.0583
   16MOL   C29011120   4.016   3.321   5.250  0.6490 -0.4024 -0.5602
   16MOL   C29111121   4.102   3.353   5.382 -1.0750 -0.1421  0.3829
   16MOL   C29211122   4.084   3.237   5.483  0.6428 -0.1671 -0.1784
   16MOL   C29311123   4.199   3.132   5.459 -0.4352  0.1878  0.1077
   16MOL   C29411124   4.175   3.006   5.543 -0.1841  0.2850  0.0679
   16MOL   C29511125   4.310   2.940   5.587  0.1396 -0.0162  0.5208
   16MOL   C29611126   4.289   2.820   5.678 -0.4045 -0.7608 -0.1285
   16MOL   C29711127   4.423   2.742   5.706  0.2810  0.2414 -0.5454
   16MOL   O29811128   4.392   2.634   5.791 -0.3333 -0.4311  0.2041
   16MOL   C29911129   4.378   2.661   5.923 -0.0691  0.0715  0.1037
   16MOL   O30011130   4.398   2.771   5.975  0.3560 -0.6049 -0.2809
   16MOL   C30111131   4.368   2.538   6.019 -0.2962 -0.0190 -0.4534
   16MOL   C30211132   4.340   2.586   6.160 -0.3560  0.0412 -0.0055
   16MOL   C30311133   4.500   2.454   6.022  0.1359  0.2692  0.8308
   16MOL   H30411134   4.023   3.405   5.181  0.0787 -0.2634 -0.4551
   16MOL   H30511135   3.910   3.313   5.274  0.7842  1.3013  0.6884
   16MOL   H30611136   4.043   3.224   5.209  0.0889 -0.5515 -0.5803
   16MOL   H30711137   4.077   3.454   5.415 -0.9316 -0.4650  1.5291
   16MOL   H30811138   4.207   3.369   5.357 -0.4618 -2.6967  1.1492
   16MOL   H30911139   3.981   3.205   5.472  0.0952  1.3632  0.3666
   16MOL   H31011140   4.094   3.274   5.585  1.1806 -1.2233  0.1572
   16MOL   H31111141   4.201   3.107   5.353  1.2828 -2.7019  0.7483
   16MOL   H31211142   4.297   3.177   5.469 -0.4805 -0.3493  3.5790
   16MOL   H31311143   4.115   3.033   5.630  1.3278  0.4301  1.0785
   16MOL   H31411144   4.115   2.935   5.486  0.2088 -0.3474  0.4360
   16MOL   H31511145   4.387   3.010   5.620 -1.4734  1.7141  0.6214
   16MOL   H31611146   4.349   2.896   5.495 -1.9966 -0.0205 -0.3967
   16MOL   H31711147   4.225   2.747   5.629 -1.5067 -2.1039  3.2196
   16MOL   H31811148   4.238   2.847   5.770  0.2093  0.4888 -0.1404
   16MOL   H31911149   4.486   2.807   5.765  1.3137 -1.0298 -0.2158
   16MOL   H32011150   4.473   2.705   5.616  0.0857  0.3779 -0.7114
   16MOL   H32111151   4.402   2.670   6.193 -2.5373  1.3484  0.8881
   16MOL   H32211152   4.336   2.512   6.240  0.9225  0.8625  0.8353
   16MOL   H32311153   4.243   2.637   6.158 -0.4727 -0.2187 -1.4458
   16MOL   H32411154   4.477   2.355   6.060  1.3186 -0.9011 -1.4323
   16MOL   H32511155   4.517   2.435   5.916 -2.4055  0.9294  0.2759
   16MOL   C32611156   5.206   2.047   6.571 -0.2464  0.4971  0.2247
   16MOL   C32711157   5.279   1.926   6.498  0.3251  0.1328  0.4160
   16MOL   C32811158   5.293   1.957   6.345  0.3499 -0.4938 -0.0538
   16MOL   C32911159   5.157   1.967   6.267 -0.1225  0.6840  0.1918
   16MOL   C33011160   5.169   2.005   6.114  0.7809 -0.6406  0.3394
   16MOL   C33111161   5.033   2.038   6.049  0.2304 -0.1939  0.4221
   16MOL   C33211162   4.953   2.154   6.104  0.1934  0.1329  0.3620
   16MOL   C33311163   4.816   2.152   6.035  0.1049 -0.5710 -0.1293
   16MOL   O33411164   4.730   2.261   6.084  0.2391  0.0399  0.7257
   16MOL   C33511165   4.743   2.384   6.029 -0.3387 -0.1717  0.7932
   16MOL   O33611166   4.815   2.402   5.929 -0.0120 -0.1354  0.3015
   16MOL   C33711167   4.648   2.497   6.068 -0.2714 -1.1113 -0.0345
   16MOL   C33811168   4.697   2.628   6.001  0.0096  0.3601 -0.8760
   16MOL   C33911169   4.641   2.511   6.221  0.1843  0.9683 -0.0703
   16MOL   H34011170   5.098   2.034   6.572 -0.0993 -0.7811  1.7534
   16MOL   H34111171   5.227   2.146   6.531 -2.1236  0.6464 -0.4138
   16MOL   H34211172   5.238   2.049   6.676  1.1485  0.6018 -0.2006
   16MOL   H34311173   5.221   1.834   6.510 -2.6767  2.0334  1.1502
   16MOL   H34411174   5.374   1.924   6.550 -0.5720  1.6866  2.1634
   16MOL   H34511175   5.338   1.876   6.288  0.4548 -1.2650  1.1057
   16MOL   H34611176   5.344   2.053   6.330  2.6638 -1.6598  0.0716
   16MOL   H34711177   5.094   2.042   6.315  0.2305  1.1568 -0.0778
   16MOL   H34811178   5.110   1.870   6.280 -0.2598  0.5317 -1.3476
   16MOL   H34911179   5.233   2.093   6.107 -0.1652  0.0413  0.1276
   16MOL   H35011180   5.226   1.931   6.059  2.2901 -0.1192  1.1888
   16MOL   H35111181   5.057   2.068   5.947 -0.0533 -4.2494 -0.9387
   16MOL   H35211182   4.975   1.946   6.044  2.0358 -1.2960 -0.7926
   16MOL   H35311183   5.010   2.246   6.091 -0.0775 -0.0543 -2.4665
   16MOL   H35411184   4.938   2.141   6.212 -1.0552  1.0193  0.3071
   16MOL   H35511185   4.819   2.166   5.927 -1.4796 -0.6106 -0.1967
   16MOL   H35611186   4.766   2.057   6.056  0.2250 -0.4903  0.5246
   16MOL   H35711187   4.797   2.662   6.027  0.8242 -1.9594 -0.8908
   16MOL   H35811188   4.695   2.613   5.893  0.7651  0.1435 -0.8577
   16MOL   H35911189   4.627   2.709   6.022  0.7476  1.2882 -1.9481
   16MOL   H36011190   4.573   2.589   6.255  0.5943  0.5749  1.6915
   16MOL   H36111191   4.586   2.426   6.260  0.5519  0.7933  0.0714
   16MOL   C36211192   4.265   3.155   6.777  0.3036 -0.3038  0.2830
   16MOL   C36311193   4.287   3.266   6.672 -0.2939  0.2673 -0.3820
   16MOL   C36411194   4.329   3.211   6.534 -0.1538  0.0560 -0.7696
   16MOL   C36511195   4.476   3.154   6.538 -0.5694 -0.0960 -0.0342
   16MOL   C36611196   4.504   3.100   6.397 -0.4080  0.7955  0.1611
   16MOL   C36711197   4.622   3.015   6.383 -0.1888 -0.5089 -0.2794
   16MOL   C36811198   4.667   2.994   6.234  0.1526  0.2772  0.9290
   16MOL   C36911199   4.782   2.901   6.235  0.1749  0.0683  0.0772
   16MOL   O37011200   4.743   2.769   6.276  0.7642 -0.1323  0.4984
   16MOL   C37111201   4.832   2.674   6.278 -0.6179  0.4371  0.4385
   16MOL   O37211202   4.951   2.685   6.247  0.1563 -0.0863 -0.0908
   16MOL   C37311203   4.760   2.540   6.313 -0.7199 -0.1078 -0.3793
   16MOL   C37411204   4.879   2.441   6.297 -0.1459  0.4214  0.4890
   16MOL   C37511205   4.705   2.543   6.463 -0.3045  0.8994 -0.4094
   16MOL   H37611206   4.185   3.085   6.754  1.6995 -1.9640  0.4293
   16MOL   H37711207   4.357   3.102   6.800 -0.1887 -0.3335  2.3240
   16MOL   H37811208   4.230   3.193   6.874 -0.3629 -1.6978  0.6053
   16MOL   H37911209   4.353   3.349   6.698  2.5128 -1.8480 -0.5927
   16MOL   H38011210   4.193   3.313   6.642  0.4992  0.4573 -2.6562
   16MOL   H38111211   4.332   3.287   6.457  0.2315 -0.2265 -1.0354
   16MOL   H38211212   4.268   3.125   6.508  1.3564 -0.2756 -3.3904
   16MOL   H38311213   4.496   3.074   6.608  1.2176 -1.5532 -2.1262
   16MOL   H38411214   4.544   3.238   6.547  0.9145 -1.3705  0.7806
   16MOL   H38511215   4.411   3.059   6.359  1.1005 -1.7446 -0.9277
   16MOL   H38611216   4.527   3.186   6.334  1.0787  0.4376  0.1967
   16MOL   H38711217   4.589   2.917   6.419  0.1848 -0.7571 -0.5984
   16MOL   H38811218   4.708   3.044   6.443 -1.8445 -1.0569  2.4379
   16MOL   H38911219   4.701   3.076   6.171  1.3090 -1.8111 -1.2440
   16MOL   H39011220   4.578   2.948   6.189  0.1349  1.7483 -0.5877
   16MOL   H39111221   4.833   2.899   6.139 -0.4278  2.1264 -0.3033
   16MOL   H39211222   4.868   2.932   6.295  0.5741 -0.8965  0.0280
   16MOL   H39311223   4.932   2.441   6.201 -0.0787 -0.5163  0.5185
   16MOL   H39411224   4.963   2.466   6.360  1.3375  0.1130 -1.3051
   16MOL   H39511225   4.844   2.342   6.326 -2.4313  0.8965 -0.5315
   16MOL   H39611226   4.625   2.616   6.462 -0.7052  0.4556 -0.9539
   16MOL   H39711227   4.658   2.445   6.471  2.7511 -0.7740 -1.8276
   16MOL   C39811228   4.918   2.752   7.412  0.1972  0.1397 -0.0945
   16MOL   C39911229   5.056   2.684   7.401  0.1175 -0.0831  0.0214
   16MOL   C40011230   5.068   2.535   7.354  0.3073  0.6287  0.4660
   16MOL   C40111231   5.026   2.515   7.209 -0.4353  0.7135 -0.4925
   16MOL   C40211232   5.033   2.369   7.155 -0.2228 -0.7183  0.2347
   16MOL   C40311233   4.985   2.359   7.011  0.2887  0.1158  0.0382
   16MOL   C40411234   5.095   2.381   6.911  0.5032  0.4499 -0.0998
   16MOL   C40511235   5.044   2.348   6.770 -0.1964 -0.1990 -0.2203
   16MOL   O40611236   4.975   2.451   6.712  0.8246  0.4668 -0.0186
   16MOL   C40711237   4.882   2.426   6.624  0.6245 -0.0901  0.6392
   16MOL   O40811238   4.859   2.318   6.569  0.2125 -0.6945  0.1645
   16MOL   C40911239   4.787   2.550   6.594 -0.7856  0.0107 -0.8544
   16MOL   C41011240   4.881   2.678   6.595 -0.2332 -0.1853  0.4045
   16MOL   C41111241   4.692   2.571   6.717  0.5911 -0.0297  0.0137
   16MOL   H41211242   4.927   2.851   7.457 -0.5565  0.8261 -1.4135
   16MOL   H41311243   4.842   2.702   7.472 -0.7355 -0.5702 -1.8328
   16MOL   H41411244   4.866   2.770   7.318 -0.4811 -0.2010  0.2196
   16MOL   H41511245   5.099   2.682   7.501 -1.5022  0.4107  0.7430
   16MOL   H41611246   5.113   2.747   7.334  3.0686 -1.6167  1.0255
   16MOL   H41711247   5.164   2.485   7.368  0.3489 -0.0703 -2.0519
   16MOL   H41811248   5.002   2.480   7.422  1.7252  0.9715  2.1438
   16MOL   H41911249   5.094   2.579   7.151 -1.2748  1.7450 -0.3468
   16MOL   H42011250   4.932   2.559   7.177 -2.0508 -2.4290 -0.1754
   16MOL   H42111251   5.134   2.328   7.157  0.9336  2.0008 -0.2372
   16MOL   H42211252   4.966   2.307   7.215 -1.6226 -1.3596 -1.9469
   16MOL   H42311253   4.908   2.433   6.987  0.0170 -0.6082 -1.3515
   16MOL   H42411254   4.920   2.273   6.997  0.0063  0.0133  1.7763
   16MOL   H42511255   5.115   2.487   6.926  0.5591  0.4444 -0.1319
   16MOL   H42611256   5.183   2.319   6.928  1.3366  1.6438 -0.0465
   16MOL   H42711257   5.125   2.321   6.703  1.3843 -1.6491  2.2048
   16MOL   H42811258   4.978   2.264   6.788 -0.1299 -0.6251 -1.8946
   16MOL   H42911259   4.914   2.705   6.695 -0.3064  2.4552 -0.2608
   16MOL   H43011260   4.832   2.766   6.554  2.4663  0.7136 -1.0585
   16MOL   H43111261   4.974   2.664   6.540 -1.9828  0.1866 -2.7345
   16MOL   H43211262   4.651   2.671   6.698 -0.7281 -0.8148 -1.3223
   16MOL   H43311263   4.757   2.583   6.805  0.4751  2.2861 -0.1834
   16MOL   C43411264   3.891   2.376   7.187 -0.6317 -0.0538 -0.0593
   16MOL   C43511265   4.002   2.410   7.085  1.2166 -0.0709  0.0199
   16MOL   C43611266   3.991   2.557   7.048  0.4982  0.2055 -0.1767
   16MOL   C43711267   4.101   2.595   6.942  0.5964 -0.4609  0.2591
   16MOL   C43811268   4.077   2.733   6.876 -0.1289  0.5880  0.0609
   16MOL   C43911269   4.182   2.770   6.781 -0.8989 -0.5386  0.1097
   16MOL   C44011270   4.193   2.675   6.656 -0.0887 -0.2554 -0.5010
   16MOL   C44111271   4.317   2.705   6.580 -0.1727 -0.3770  0.2305
   16MOL   O44211272   4.421   2.646   6.651 -0.4174  0.4996 -0.1741
   16MOL   C44311273   4.456   2.514   6.645 -0.1206 -0.9061  0.2965
   16MOL   O44411274   4.394   2.435   6.571  0.3136 -0.0007  0.0945
   16MOL   C44511275   4.567   2.484   6.749  0.2289 -0.3923 -0.5457
   16MOL   C44611276   4.520   2.535   6.893  0.8268 -0.3793 -0.0529
   16MOL   C44711277   4.599   2.332   6.756  0.1916  0.3606  0.2981
   16MOL   H44811278   3.908   2.438   7.276  0.7632  1.3538 -1.2801
   16MOL   H44911279   3.907   2.277   7.229 -1.4671 -0.1768 -0.0220
   16MOL   H45011280   3.787   2.401   7.166 -1.0683  0.1408  2.1588
   16MOL   H45111281   3.992   2.353   6.993  0.6956  0.0620 -0.0064
   16MOL   H45211282   4.105   2.396   7.119  1.4834  2.2067  0.2070
   16MOL   H45311283   4.007   2.617   7.137 -0.4771 -3.4884  2.5799
   16MOL   H45411284   3.889   2.573   7.015  0.5273 -0.3270 -0.5290
   16MOL   H45511285   4.101   2.512   6.872 -2.7209 -0.8988  0.7211
   16MOL   H45611286   4.202   2.585   6.982  0.2105 -0.1153  1.3320
   16MOL   H45711287   3.988   2.730   6.814 -0.4262 -1.8717  0.5746
   16MOL   H45811288   4.069   2.803   6.960  1.1443 -0.1786  0.8518
   16MOL   H45911289   4.279   2.759   6.829 -0.8165  0.9115  0.2987
   16MOL   H46011290   4.178   2.875   6.752 -1.5308 -0.4123  0.6504
   16MOL   H46111291   4.190   2.569   6.682 -0.1177  0.6022  3.1530
   16MOL   H46211292   4.111   2.670   6.585 -0.8897 -0.8223  0.4584
   16MOL   H46311293   4.343   2.810   6.564 -0.7517 -0.3600 -0.6652
   16MOL   H46411294   4.307   2.657   6.482  1.8281 -2.6955  1.1285
   16MOL   H46511295   4.429   2.486   6.927  1.3628 -1.5789 -0.3457
   16MOL   H46611296   4.596   2.532   6.971  1.7954  0.5347 -0.9505
   16MOL   H46711297   4.503   2.642   6.883  0.1995 -0.6779 -2.5210
   16MOL   H46811298   4.602   2.296   6.653  1.5625  0.0282  0.4353
   16MOL   H46911299   4.703   2.331   6.789  0.5678  2.3983 -0.6924
   16MOL   C47011300   4.016   1.660   7.001 -0.2561 -0.3543 -0.1276
   16MOL   C47111301   4.128   1.709   7.100 -0.2253 -1.2133  0.6415
   16MOL   C47211302   4.100   1.854   7.144  0.3070 -0.1856 -0.5134
   16MOL   C47311303   4.173   1.877   7.274 -1.0076 -0.2993 -0.0403
   16MOL   C47411304   4.152   2.012   7.340 -1.1606 -0.1329  0.0759
   16MOL   C47511305   4.216   2.133   7.269 -0.0077  0.0140 -0.1211
   16MOL   C47611306   4.370   2.129   7.282  0.0726 -0.3111  0.1094
   16MOL   C47711307   4.458   2.235   7.217 -0.7741 -0.5187 -0.0391
   16MOL   O47811308   4.448   2.229   7.073  0.3273 -0.2965 -0.0598
   16MOL   C47911309   4.553   2.254   6.997 -0.3307 -0.6738  0.2557
   16MOL   O48011310   4.659   2.299   7.040 -0.2496  0.0860  0.7078
   16MOL   C48111311   4.524   2.226   6.849  1.0096 -0.1637  0.1510
   16MOL   C48211312   4.372   2.218   6.816  0.3110  0.1092 -0.1069
   16MOL   C48311313   4.588   2.091   6.807  0.6132  0.1724  0.4335
   16MOL   H48411314   3.948   1.726   6.948 -0.7452 -0.5405  0.2644
   16MOL   H48511315   3.941   1.609   7.062  0.4765 -0.8846  0.3469
   16MOL   H48611316   4.069   1.598   6.928  2.3657  1.3965  0.2268
   16MOL   H48711317   4.129   1.647   7.189  0.9323 -4.0012 -1.2556
   16MOL   H48811318   4.229   1.704   7.060 -0.2464 -2.5066  0.7230
   16MOL   H48911319   4.132   1.931   7.074  1.6860  0.3278  0.6455
   16MOL   H49011320   3.996   1.883   7.157 -0.1666 -1.9429 -0.2264
   16MOL   H49111321   4.131   1.803   7.342  0.0467 -1.2826 -0.4449
   16MOL   H49211322   4.277   1.846   7.271 -1.0790 -0.7605  1.7846
   16MOL   H49311323   4.046   2.036   7.353 -0.6110  2.3573  0.2961
   16MOL   H49411324   4.196   2.015   7.440 -1.1140  2.3970  0.0118
   16MOL   H49511325   4.188   2.122   7.164  1.1927  0.0116 -0.4509
   16MOL   H49611326   4.178   2.230   7.303 -1.1621 -0.2007 -0.7946
   16MOL   H49711327   4.390   2.122   7.389  0.5899  0.1203  0.0454
   16MOL   H49811328   4.401   2.040   7.228  0.3015  0.8826 -1.7546
   16MOL   H49911329   4.557   2.194   7.240  0.0424  0.7262 -1.2175
   16MOL   H50011330   4.447   2.339   7.249  0.7966  0.3061 -2.0154
   16MOL   H50111331   4.357   2.202   6.709 -2.1620  1.4380 -0.0041
   16MOL   H50211332   4.327   2.314   6.841  0.2951  0.3988 -1.1969
   16MOL   H50311333   4.310   2.145   6.868  0.2978  1.3588  1.6692
   16MOL   H50411334   4.560   2.082   6.702  0.8016  0.1256  0.3864
   16MOL   H50511335   4.695   2.100   6.785  0.1132 -1.8096 -3.1742
   16MOL   C50611336   5.458   1.580   6.702 -0.1440  0.0483 -0.1486
   16MOL   C50711337   5.345   1.660   6.772  0.1888 -0.0127  0.0539
   16MOL   C50811338   5.311   1.593   6.915 -0.3787 -0.4370  0.0853
   16MOL   C50911339   5.179   1.639   6.975 -0.1268 -0.1990  0.4957
   16MOL   C51011340   5.178   1.780   7.038 -0.1448 -0.0809 -0.2577
   16MOL   C51111341   5.032   1.825   7.060  1.1738 -0.1665  0.1404
   16MOL   C51211342   5.011   1.970   7.097 -0.3353  0.2465  0.1631
   16MOL   C51311343   4.867   2.009   7.122  0.0040  0.2034 -0.0800
   16MOL   O51411344   4.781   2.006   7.011 -0.3143 -0.0619  0.3768
   16MOL   C51511345   4.654   1.963   7.025 -0.7254  0.4411  0.5887
   16MOL   O51611346   4.606   1.921   7.132 -0.3992  0.2359  0.1165
   16MOL   C51711347   4.579   1.952   6.884  0.2471 -0.0386 -1.0645
   16MOL   C51811348   4.430   1.909   6.901 -0.2359  0.1475 -0.2779
   16MOL   C51911349   4.659   1.852   6.792  0.6426  0.1988  0.1046
   16MOL   H52011350   5.475   1.623   6.603 -0.8702 -2.6184 -1.4516
   16MOL   H52111351   5.430   1.476   6.686  0.6659 -0.2355  0.2435
   16MOL   H52211352   5.546   1.587   6.767 -0.2645 -2.2512  0.2948
   16MOL   H52311353   5.255   1.652   6.712  1.2715  1.7330 -1.8786
   16MOL   H52411354   5.372   1.764   6.789 -0.5907  0.1486  0.2987
   16MOL   H52511355   5.307   1.485   6.899  0.4274 -0.4040 -0.3713
   16MOL   H52611356   5.390   1.609   6.988  1.9868  1.9873 -2.8771
   16MOL   H52711357   5.101   1.634   6.899  0.9838 -2.4233 -0.5679
   16MOL   H52811358   5.148   1.570   7.054 -1.2382  2.7235  2.6727
   16MOL   H52911359   5.239   1.777   7.129  1.7661 -1.5635 -1.5387
   16MOL   H53011360   5.229   1.855   6.976  0.9141 -0.5402  0.0506
   16MOL   H53111361   4.975   1.764   7.130  0.2022  0.8342  0.2185
   16MOL   H53211362   4.993   1.814   6.959  0.1255  1.5466  0.3407
   16MOL   H53311363   5.055   2.032   7.018  2.6143 -2.3328 -0.3003
   16MOL   H53411364   5.067   1.994   7.187 -0.1786 -0.7475  0.3268
   16MOL   H53511365   4.869   2.107   7.169  1.4817 -0.3743  1.0936
   16MOL   H53611366   4.837   1.927   7.187 -0.1500  0.3803  0.0725
   16MOL   H53711367   4.375   1.928   6.810  0.5159 -0.8846 -0.9592
   16MOL   H53811368   4.387   1.964   6.985 -0.3202  1.9413 -1.4749
   16MOL   H53911369   4.420   1.802   6.922 -0.3682 -0.3692 -2.8889
   16MOL   H54011370   4.628   1.871   6.689 -0.2350  0.6943  0.4603
   16MOL   H54111371   4.763   1.884   6.792  0.8441 -0.4300  0.3022
   16MOL   C54211372   3.795   0.785   6.752 -0.6551  0.4852  0.5852
   16MOL   C54311373   3.874   0.877   6.659 -0.0152 -0.1119  0.7101
   16MOL   C54411374   4.000   0.938   6.720 -0.6447  0.5414  0.0095
   16MOL   C54511375   4.049   1.070   6.657 -0.1035  0.6133  0.2408
   16MOL   C54611376   4.178   1.104   6.729  0.6115  0.0887 -0.3458
   16MOL   C54711377   4.229   1.255   6.704 -0.6200  0.6314  0.0171
   16MOL   C54811378   4.351   1.321   6.775 -0.2713  0.2993  0.4427
   16MOL   C54911379   4.361   1.469   6.747 -0.0286 -0.1425 -0.4270
   16MOL   O55011380   4.483   1.517   6.789 -0.4907 -0.3066  0.3487
   16MOL   C55111381   4.518   1.639   6.745  0.9296  0.2466  0.2579
   16MOL   O55211382   4.451   1.700   6.662 -0.5615 -0.1345 -0.5422
   16MOL   C55311383   4.656   1.691   6.792 -0.1833  0.2475 -0.0321
   16MOL   C55411384   4.674   1.638   6.936 -0.3110 -1.1244  0.5435
   16MOL   C55511385   4.786   1.625   6.722 -0.0290  1.1297 -0.6229
   16MOL   H55611386   3.687   0.784   6.737 -0.8002 -0.9562  1.5977
   16MOL   H55711387   3.806   0.821   6.855  2.9938  1.0737  0.0574
   16MOL   H55811388   3.827   0.681   6.748  3.0821  1.5617  0.5005
   16MOL   H55911389   3.888   0.830   6.562 -1.2394  3.7525 -1.4704
   16MOL   H56011390   3.810   0.965   6.649 -0.2416 -0.4085 -0.4098
   16MOL   H56111391   4.081   0.864   6.722 -1.0955  0.0598  1.4096
   16MOL   H56211392   3.985   0.952   6.827  1.3409 -0.4999  0.4523
   16MOL   H56311393   4.067   1.045   6.552 -1.3157  0.4063  0.0823
   16MOL   H56411394   3.970   1.145   6.659 -0.1060  0.7365 -2.5977
   16MOL   H56511395   4.249   1.025   6.704  0.7565  0.5023 -1.2645
   16MOL   H56611396   4.176   1.086   6.837  1.1287  1.7153 -0.0518
   16MOL   H56711397   4.235   1.274   6.597  0.2446  1.1221  0.1507
   16MOL   H56811398   4.150   1.318   6.744  0.8100  1.4197  1.6346
   16MOL   H56911399   4.333   1.301   6.880 -2.3396 -0.5789 -0.0545
   16MOL   H57011400   4.442   1.277   6.733 -1.6715 -1.1421 -1.1993
   16MOL   H57111401   4.275   1.531   6.773  0.4938  0.8214 -0.9579
   16MOL   H57211402   4.361   1.467   6.638  0.6778 -0.5453 -0.4222
   16MOL   H57311403   4.693   1.531   6.946  0.2900 -1.2940 -2.0539
   16MOL   H57411404   4.592   1.666   7.001  0.8616  1.5347  0.9196
   16MOL   H57511405   4.762   1.696   6.963  0.2745 -0.4164 -2.6524
   16MOL   H57611406   4.781   1.516   6.721 -0.9405  1.1263  1.7162
   16MOL   H57711407   4.878   1.630   6.779 -1.2941 -0.9040  1.7090
   16MOL   C57811408   4.777   0.553   6.524 -0.7180 -0.1851 -1.2670
   16MOL   C57911409   4.817   0.703   6.567  0.8040  0.3937 -0.3831
   16MOL   C58011410   4.718   0.813   6.512 -0.3303  0.8566 -0.7471
   16MOL   C58111411   4.776   0.948   6.545 -0.4870  0.0807 -0.3167
   16MOL   C58211412   4.685   1.060   6.482 -0.7387  0.4181  0.5552
   16MOL   C58311413   4.749   1.194   6.511  0.2649  0.6163  0.2419
   16MOL   C58411414   4.870   1.226   6.426  0.0337  0.3292  0.7597
   16MOL   C58511415   4.958   1.332   6.489 -0.4677  0.0310  0.3666
   16MOL   O58611416   4.875   1.449   6.496  0.0443 -0.0854  0.2283
   16MOL   C58711417   4.925   1.570   6.523 -0.2037  0.4252 -0.4437
   16MOL   O58811418   5.044   1.595   6.525 -0.3146 -0.0826  0.3156
   16MOL   C58911419   4.825   1.673   6.575 -0.0826 -0.0516  0.5198
   16MOL   C59011420   4.898   1.813   6.581  0.0891 -0.2515 -0.3810
   16MOL   C59111421   4.698   1.665   6.478 -0.4374  0.3929 -0.6342
   16MOL   H59211422   4.854   0.494   6.574 -1.8762 -0.4978  0.1521
   16MOL   H59311423   4.780   0.548   6.415  0.7657 -0.7351 -1.2248
   16MOL   H59411424   4.679   0.527   6.564 -1.8782  4.1261 -1.0456
   16MOL   H59511425   4.918   0.710   6.527  1.3047  1.5285  1.0322
   16MOL   H59611426   4.831   0.701   6.675 -2.7025 -1.8324  0.1155
   16MOL   H59711427   4.620   0.798   6.558  0.7160  0.7712  1.5488
   16MOL   H59811428   4.718   0.788   6.406 -0.2761 -0.4453 -0.4478
   16MOL   H59911429   4.880   0.971   6.523 -0.7495 -0.1793 -1.8343
   16MOL   H60011430   4.771   0.960   6.654 -1.4380  2.9715 -0.6314
   16MOL   H60111431   4.582   1.048   6.514 -1.1049 -0.0891 -0.7943
   16MOL   H60211432   4.688   1.038   6.375  2.7457 -0.9364  0.8631
   16MOL   H60311433   4.779   1.194   6.616  0.0996 -0.0195  0.2895
   16MOL   H60411434   4.670   1.267   6.495  0.2399  0.5804  0.2028
   16MOL   H60511435   4.847   1.273   6.331  0.6074 -0.6213  0.1482
   16MOL   H60611436   4.934   1.140   6.406  0.3164  1.0460 -1.5337
   16MOL   H60711437   4.977   1.305   6.593  1.2322 -0.6112 -0.0870
   16MOL   H60811438   5.059   1.336   6.446 -1.7180 -0.5781 -2.7609
   16MOL   H60911439   4.965   1.821   6.496 -0.8813  0.2899 -1.0939
   16MOL   H61011440   4.830   1.898   6.580  0.9686  0.4588 -0.4599
   16MOL   H61111441   4.959   1.822   6.671  0.6111 -0.4961 -0.7106
   16MOL   H61211442   4.645   1.744   6.531 -0.7651  0.2813 -0.7942
   16MOL   H61311443   4.645   1.572   6.502  0.2561  0.4132  1.1088
   16MOL   C61411444   3.964   2.226   6.659 -0.2287 -0.1226  0.1886
   16MOL   C61511445   3.921   2.156   6.534  0.2109 -0.2190 -0.9294
   16MOL   C61611446   4.040   2.167   6.422 -0.2456 -0.3159 -0.0116
   16MOL   C61711447   4.172   2.085   6.457  0.2667 -0.5352  0.2419
   16MOL   C61811448   4.296   2.145   6.367  0.0901 -0.0765  0.2415
   16MOL   C61911449   4.430   2.086   6.412 -0.5139  0.1888  0.9886
   16MOL   C62011450   4.536   2.121   6.312  0.3080 -0.7546  0.4039
   16MOL   C62111451   4.684   2.070   6.336 -0.2085 -0.0829  0.8440
   16MOL   O62211452   4.662   1.927   6.350 -0.1737 -0.3070  0.6168
   16MOL   C62311453   4.742   1.842   6.297  0.2612  0.1220  1.0973
   16MOL   O62411454   4.837   1.864   6.222 -0.0637 -0.2124 -0.1940
   16MOL   C62511455   4.699   1.698   6.325  0.2157  0.0630  0.4262
   16MOL   C62611456   4.777   1.588   6.247 -1.3002  0.3124 -0.3633
   16MOL   C62711457   4.543   1.684   6.284 -0.4050  0.3144 -0.1636
   16MOL   H62811458   4.053   2.176   6.695  0.1311  0.2566 -0.1654
   16MOL   H62911459   3.885   2.218   6.733  0.0767  1.0700  0.6535
   16MOL   H63011460   3.989   2.332   6.649  1.6486 -0.6330 -0.8200
   16MOL   H63111461   3.892   2.053   6.556  0.5694 -0.0707  0.2482
   16MOL   H63211462   3.834   2.203   6.488  2.0372  1.6002 -2.6399
   16MOL   H63311463   4.076   2.269   6.412  0.2518 -0.4667  0.2115
   16MOL   H63411464   4.005   2.133   6.324 -2.8352 -0.0216  0.7802
   16MOL   H63511465   4.149   1.980   6.441  0.9119 -0.5923 -0.3298
   16MOL   H63611466   4.194   2.097   6.564  1.2791 -1.5910  0.1652
   16MOL   H63711467   4.266   2.108   6.269 -2.7730  0.1816  0.9799
   16MOL   H63811468   4.297   2.254   6.362  0.4317 -0.0577  0.6692
   16MOL   H63911469   4.461   2.112   6.513  1.8214 -0.9833  0.6076
   16MOL   H64011470   4.434   1.977   6.420  0.6694  0.1098 -0.4280
   16MOL   H64111471   4.544   2.228   6.297 -1.9658 -0.9532 -2.8534
   16MOL   H64211472   4.512   2.066   6.221  1.0227  0.1475 -0.3492
   16MOL   H64311473   4.742   2.088   6.246  0.1506  0.4894  1.1869
   16MOL   H64411474   4.714   2.112   6.432 -2.1125  1.3577  0.8438
   16MOL   H64511475   4.884   1.595   6.264 -1.1306  0.1660 -1.3213
   16MOL   H64611476   4.775   1.607   6.139 -0.5546  0.6604 -0.3162
   16MOL   H64711477   4.735   1.492   6.277 -0.0910  0.2391  1.1257
   16MOL   H64811478   4.492   1.758   6.345  1.2343 -0.1801  1.8670
   16MOL   H64911479   4.499   1.598   6.336 -2.5130  1.2662 -0.3201
   16MOL   C65011480   4.198   0.681   6.538  0.0963  0.3228  0.8714
   16MOL   C65111481   4.311   0.777   6.494 -0.4702 -0.1015 -0.4662
   16MOL   C65211482   4.305   0.804   6.344  0.0815 -0.1421 -0.5699
   16MOL   C65311483   4.399   0.919   6.312  0.3502 -0.3087  0.0429
   16MOL   C65411484   4.378   0.964   6.165  0.3999 -0.7394  0.2502
   16MOL   C65511485   4.485   1.070   6.128  0.8806  0.9141  0.1428
   16MOL   C65611486   4.465   1.204   6.194  0.5866  0.5319 -0.4321
   16MOL   C65711487   4.529   1.312   6.110 -0.3946 -0.3382 -0.0039
   16MOL   O65811488   4.495   1.446   6.147 -0.0135 -0.1460  0.3482
   16MOL   C65911489   4.527   1.545   6.072  0.6824 -0.2180  0.3167
   16MOL   O66011490   4.575   1.541   5.957 -0.0450 -0.1893 -0.3078
   16MOL   C66111491   4.493   1.679   6.135 -0.3504 -0.1798 -0.2190
   16MOL   C66211492   4.562   1.789   6.043  0.1938 -0.1658 -0.1832
   16MOL   C66311493   4.340   1.691   6.144  0.5540 -0.6207  0.0148
   16MOL   H66411494   4.210   0.585   6.486 -2.1565  0.2383  0.4601
   16MOL   H66511495   4.102   0.721   6.506 -0.5404 -1.0293  1.0356
   16MOL   H66611496   4.191   0.660   6.645 -2.0151  0.5408  0.8018
   16MOL   H66711497   4.409   0.738   6.520 -0.0517  0.9167 -0.5124
   16MOL   H66811498   4.308   0.867   6.556 -1.1007 -1.0748  0.9374
   16MOL   H66911499   4.208   0.834   6.303  0.7183  1.5787 -0.8555
   16MOL   H67011500   4.335   0.717   6.287 -0.6402  0.3004 -1.6291
   16MOL   H67111501   4.498   0.879   6.337  1.4234  1.4965 -1.2462
   16MOL   H67211502   4.389   1.001   6.382  1.3759  0.7365 -1.0061
   16MOL   H67311503   4.274   0.993   6.146  1.0509  1.3855 -0.2194
   16MOL   H67411504   4.408   0.878   6.104 -1.8165 -0.9116 -0.6467
   16MOL   H67511505   4.584   1.027   6.118 -0.3039 -2.1318  0.7761
   16MOL   H67611506   4.464   1.095   6.024  0.5495 -1.9148 -0.5359
   16MOL   H67711507   4.510   1.202   6.293  1.1562 -1.9909 -0.7099
   16MOL   H67811508   4.359   1.230   6.196 -0.1867 -2.5696  1.0056
   16MOL   H67911509   4.498   1.292   6.007 -1.2221 -3.6066  0.8322
   16MOL   H68011510   4.637   1.300   6.105 -0.4472 -1.6620  1.5767
   16MOL   H68111511   4.671   1.778   6.040  0.1589 -0.7559  0.5009
   16MOL   H68211512   4.541   1.879   6.100 -1.1033 -0.8669  0.4781
   16MOL   H68311513   4.518   1.793   5.944  0.1844  1.9281 -0.1129
   16MOL   H68411514   4.310   1.614   6.216 -2.2982  0.5803  0.1706
   16MOL   H68511515   4.311   1.784   6.194  2.4602  0.6316 -1.1368
   16MOL   C68611516   4.612   2.633   5.369  0.1893  0.2159 -0.5254
   16MOL   C68711517   4.502   2.525   5.392 -0.4495  0.1408 -0.0252
   16MOL   C68811518   4.546   2.426   5.504  0.0456  0.0059 -0.1054
   16MOL   C68911519   4.433   2.332   5.532 -0.1661 -0.1901 -0.4240
   16MOL   C69011520   4.471   2.229   5.640  0.5536 -0.0619 -0.7644
   16MOL   C69111521   4.363   2.122   5.684 -0.2176 -0.0073 -0.2090
   16MOL   C69211522   4.389   2.053   5.815 -0.3785 -0.1781 -0.0980
   16MOL   C69311523   4.254   2.016   5.886  0.4478  0.0942  0.6881
   16MOL   O69411524   4.247   1.906   5.975  0.7061 -0.2270  0.9480
   16MOL   C69511525   4.252   1.784   5.919 -0.1701 -0.5144 -0.4564
   16MOL   O69611526   4.261   1.768   5.794  0.3810  0.8099 -0.2411
   16MOL   C69711527   4.242   1.673   6.018 -0.0946  0.1915  0.2743
   16MOL   C69811528   4.095   1.688   6.066 -0.4353  0.5146  0.3484
   16MOL   C69911529   4.251   1.536   5.948  0.2000  0.9978  0.0849
   16MOL   H70011530   4.598   2.668   5.267 -1.3030 -1.3911 -0.8906
   16MOL   H70111531   4.712   2.590   5.380 -0.6944 -1.4558  1.3027
   16MOL   H70211532   4.603   2.719   5.436 -2.0659 -1.1039  0.9069
   16MOL   H70311533   4.477   2.475   5.299  1.1045  0.3488 -0.5748
   16MOL   H70411534   4.415   2.582   5.424  0.3971  1.4325  0.0136
   16MOL   H70511535   4.561   2.476   5.600 -0.4584 -0.4800  0.2240
   16MOL   H70611536   4.634   2.370   5.473  0.0308 -0.0060 -0.1257
   16MOL   H70711537   4.409   2.276   5.442  0.5033  0.1667 -0.8258
   16MOL   H70811538   4.347   2.397   5.547  0.9778  1.1964  0.3091
   16MOL   H70911539   4.507   2.282   5.728  0.6960 -0.2167 -0.7298
   16MOL   H71011540   4.560   2.176   5.608  2.2016  2.4095 -0.3843
   16MOL   H71111541   4.267   2.172   5.697 -0.2545 -0.1036 -0.1155
   16MOL   H71211542   4.342   2.053   5.601  1.8972  2.0514 -2.5306
   16MOL   H71311543   4.450   1.965   5.798 -1.0880 -0.8705  0.8964
   16MOL   H71411544   4.449   2.113   5.884  0.6093 -0.4575 -0.7064
   16MOL   H71511545   4.169   2.014   5.818  1.1641 -0.7411 -0.1997
   16MOL   H71611546   4.226   2.107   5.938 -2.9153  0.1873 -1.1831
   16MOL   H71711547   4.066   1.791   6.088 -2.6303 -0.0151  0.0917
   16MOL   H71811548   4.014   1.649   6.004  1.2567  0.0863 -1.6610
   16MOL   H71911549   4.087   1.625   6.155  1.2540 -1.0396 -0.5804
   16MOL   H72011550   4.172   1.521   5.874  2.0419  3.2373 -2.4745
   16MOL   H72111551   4.235   1.455   6.018  1.0586  1.1664  0.4836
   16MOL   H72211552   4.342   1.529   5.887 -0.6986  1.5557 -1.3458
   17MOL     C111553   5.078   0.206   5.452 -0.0811 -0.7112 -0.0119
   17MOL     C211554   4.979   0.113   5.517  0.1535 -0.2662  0.8001
   17MOL     C311555   4.834   0.174   5.523 -0.0377  0.4664  0.3774
   17MOL     C411556   4.718   0.084   5.566  0.1535 -0.0331  0.3975
   17MOL     C511557   4.585   0.141   5.504  0.2196 -0.2074 -0.1260
   17MOL     C611558   4.454   0.077   5.552  0.3038 -0.3539 -0.2615
   17MOL     C711559   4.386   0.141   5.680  1.0078  0.5408 -0.5964
   17MOL     C811560   4.256   0.068   5.726 -0.0648 -0.4709  0.3464
   17MOL     O911561   4.289   7.715   5.775  0.2978 -0.3031  0.1080
   17MOL    C1011562   4.234   7.608   5.717  0.0123 -0.2128  0.9162
   17MOL    O1111563   4.157   7.607   5.617 -0.0348 -0.3392  0.6827
   17MOL    C1211564   4.290   7.478   5.781  0.3634  0.2786 -0.6980
   17MOL    C1311565   4.433   7.455   5.734  0.0071 -0.1582 -0.3119
   17MOL    C1411566   4.287   7.489   5.939  0.6702  0.5580 -0.4198
   17MOL    H1511567   5.084   0.303   5.500  2.8615 -0.5604 -0.5764
   17MOL    H1611568   5.049   0.222   5.349 -2.6837  1.3380  0.9805
   17MOL    H1711569   5.181   0.171   5.438  0.5882 -0.4589  3.7193
   17MOL    H1811570   5.016   0.104   5.619  1.9044  1.3417  0.3422
   17MOL    H1911571   4.974   0.013   5.474 -0.2347 -0.4509  1.2765
   17MOL    H2011572   4.844   0.265   5.582  3.6349  0.9777 -0.8962
   17MOL    H2111573   4.816   0.208   5.421 -2.2368  0.3537  0.6880
   17MOL    H2211574   4.738   7.764   5.526  0.8192 -0.7574  2.4385
   17MOL    H2311575   4.708   0.069   5.674  0.5778  1.1344  0.6060
   17MOL    H2411576   4.605   0.122   5.399  1.7878  2.5746 -0.3886
   17MOL    H2511577   4.577   0.249   5.514 -0.9143 -0.4952  2.4013
   17MOL    H2611578   4.465   7.749   5.560  0.1448 -0.1969  2.2708
   17MOL    H2711579   4.382   0.087   5.471 -0.2853  2.7086  0.5671
   17MOL    H2811580   4.356   0.243   5.653  0.9899  0.6880 -0.0408
   17MOL    H2911581   4.452   0.152   5.767 -0.5185  0.5119  0.5883
   17MOL    H3011582   4.195   0.052   5.638  1.1301 -0.3024 -0.5241
   17MOL    H3111583   4.204   0.121   5.806  0.3138 -1.2972  1.1545
   17MOL    H3211584   4.517   7.517   5.769 -0.1973 -0.1274  0.1271
   17MOL    H3311585   4.459   7.351   5.754  2.2799 -0.1302 -2.7518
   17MOL    H3411586   4.438   7.479   5.628  1.4286  1.1626  0.0344
   17MOL    H3511587   4.299   7.593   5.970 -1.3226  0.6220  0.2206
   17MOL    H3611588   4.373   7.429   5.971 -0.3560 -0.1639  1.0187
   17MOL    H3711589   4.222   7.400   5.746 -1.4015  2.1854 -1.6254
   17MOL    C3811590   3.391   0.268   5.659  0.5870 -0.0276  0.7897
   17MOL    C3911591   3.402   0.259   5.807 -0.1392 -0.2646 -0.4100
   17MOL    C4011592   3.522   0.172   5.856  0.4535 -0.1367  0.6080
   17MOL    C4111593   3.537   0.165   6.011  1.0547  0.5803  0.5520
   17MOL    C4211594   3.651   0.072   6.062  0.6499  0.7495  0.2136
   17MOL    C4311595   3.783   0.144   6.041  0.1913 -0.3446 -0.6541
   17MOL    C4411596   3.897   0.051   6.085  0.2254 -0.0341  0.2242
   17MOL    C4511597   3.910   7.710   5.990  0.1194  0.5722  0.6665
   17MOL    O4611598   4.023   7.634   6.025 -0.1751 -0.2712  0.1997
   17MOL    C4711599   4.033   7.508   5.968 -0.7724 -0.1752  0.6902
   17MOL    O4811600   3.953   7.459   5.898  0.9307 -0.7620  0.7658
   17MOL    C4911601   4.168   7.434   6.010  0.4950 -0.1660  0.1693
   17MOL    C5011602   4.194   7.466   6.158  0.1912  0.8776 -0.2681
   17MOL    C5111603   4.163   7.281   5.973 -0.1789  0.0386  0.5348
   17MOL    H5211604   3.483   0.279   5.601 -0.5496  3.1821 -0.5616
   17MOL    H5311605   3.330   0.354   5.632 -0.6075 -1.2012 -0.3101
   17MOL    H5411606   3.348   0.180   5.613  1.1329  1.6122 -3.0834
   17MOL    H5511607   3.314   0.218   5.856 -1.2390  1.8749 -0.5545
   17MOL    H5611608   3.407   0.358   5.853  0.7929 -2.0313  3.4998
   17MOL    H5711609   3.524   0.073   5.811  1.4144  0.5744 -0.9524
   17MOL    H5811610   3.617   0.206   5.816  0.7858 -0.1011  1.4315
   17MOL    H5911611   3.443   0.129   6.052  0.6257  1.6092  0.5040
   17MOL    H6011612   3.544   0.266   6.051  0.9968 -0.0287  2.1017
   17MOL    H6111613   3.639   0.052   6.168  0.2650 -2.0657 -0.3155
   17MOL    H6211614   3.635   7.758   6.007 -0.1145  1.2073 -0.3546
   17MOL    H6311615   3.793   0.168   5.935  4.0571  0.2836 -0.2143
   17MOL    H6411616   3.799   0.238   6.095 -0.8345 -0.0597 -0.8386
   17MOL    H6511617   3.878   0.007   6.182  1.9224  1.3192  1.1985
   17MOL    H6611618   3.993   0.099   6.100  0.2721 -0.5342  1.5445
   17MOL    H6711619   3.913   7.744   5.887 -3.4802  2.2615  1.0679
   17MOL    H6811620   3.821   7.648   5.998 -1.2072  2.5140  1.2330
   17MOL    H6911621   4.227   7.569   6.170  2.8784 -0.0369  0.5832
   17MOL    H7011622   4.110   7.438   6.222  0.6368  2.0602  0.8556
   17MOL    H7111623   4.279   7.404   6.189  0.6076  1.0291 -1.1014
   17MOL    H7211624   4.262   7.242   5.950 -0.2185 -0.4297  1.1359
   17MOL    H7311625   4.119   7.276   5.873  0.4901 -0.5801  0.2679
   17MOL    C7411626   3.611   7.246   6.887 -0.4702 -0.3306  0.1163
   17MOL    C7511627   3.696   7.175   6.780  0.2480 -0.1321  0.0859
   17MOL    C7611628   3.770   7.047   6.831  0.2350 -0.0626 -0.2747
   17MOL    C7711629   3.862   6.982   6.725  0.0649 -0.2800 -0.5533
   17MOL    C7811630   3.979   7.075   6.682  0.4719  0.0804  0.1570
   17MOL    C7911631   4.035   7.029   6.553 -0.3676 -0.1208 -0.0308
   17MOL    C8011632   4.176   7.076   6.520 -0.6158  0.5504  0.0150
   17MOL    C8111633   4.218   7.014   6.388  0.2773  0.3093  0.1741
   17MOL    O8211634   4.139   7.070   6.291  0.4541  0.1468  0.1944
   17MOL    C8311635   4.197   7.136   6.188 -0.1417 -0.0957  0.5467
   17MOL    O8411636   4.318   7.160   6.173  0.0543 -0.2416  0.1958
   17MOL    C8511637   4.105   7.170   6.069  0.4136  0.1140  0.9519
   17MOL    C8611638   3.972   7.205   6.133  0.1068  0.1467  0.1151
   17MOL    C8711639   4.082   7.037   5.988  0.6252 -0.1374  0.3313
   17MOL    H8811640   3.679   7.283   6.964  0.5688 -0.3101 -0.7979
   17MOL    H8911641   3.538   7.182   6.937 -1.4111  0.5726 -0.0806
   17MOL    H9011642   3.561   7.331   6.841 -0.2497 -1.1377 -1.6879
   17MOL    H9111643   3.765   7.248   6.738  1.8302 -0.6169  1.7532
   17MOL    H9211644   3.623   7.143   6.706  2.1460  1.3126 -2.4818
   17MOL    H9311645   3.832   7.075   6.917  0.7991  1.9007 -1.2805
   17MOL    H9411646   3.708   6.964   6.863 -1.6131  0.7592 -1.6285
   17MOL    H9511647   3.803   6.986   6.633 -2.0127  1.2913  0.8100
   17MOL    H9611648   3.880   6.884   6.768  0.2512 -0.4064 -0.9195
   17MOL    H9711649   3.950   7.179   6.669  0.6386  0.2004  0.7502
   17MOL    H9811650   4.061   7.066   6.753  0.8830 -0.5903 -0.3944
   17MOL    H9911651   4.035   6.920   6.555  0.3766 -0.1043  2.0841
   17MOL   H10011652   3.968   7.071   6.478 -0.3988  1.9034  1.0849
   17MOL   H10111653   4.206   7.181   6.526  0.6222  0.2218 -0.3010
   17MOL   H10211654   4.244   7.029   6.591  0.8798  2.1590 -0.3183
   17MOL   H10311655   4.204   6.906   6.382 -0.7929  0.2643  2.8217
   17MOL   H10411656   4.325   7.031   6.377  0.2394  0.6482  0.3150
   17MOL   H10511657   3.911   7.249   6.055 -0.7269 -1.1151  0.0472
   17MOL   H10611658   3.975   7.275   6.217 -0.9694  0.8516 -0.4259
   17MOL   H10711659   3.916   7.121   6.174  1.3204 -0.0176  1.4723
   17MOL   H10811660   4.028   6.973   6.058  2.3578 -0.5715  1.3081
   17MOL   H10911661   4.008   7.069   5.914 -0.2568  2.7096  2.3440
   17MOL   C11011662   4.922   7.539   5.681  0.0110  0.5387 -0.1144
   17MOL   C11111663   4.830   7.438   5.603 -0.2072 -0.2094 -0.2178
   17MOL   C11211664   4.811   7.314   5.686 -0.1442 -0.8595 -0.7483
   17MOL   C11311665   4.740   7.198   5.612  0.2742 -0.4282  0.7372
   17MOL   C11411666   4.745   7.065   5.691  0.3877 -0.2940 -0.3957
   17MOL   C11511667   4.637   7.036   5.789  0.4875  1.1463 -0.3171
   17MOL   C11611668   4.647   6.885   5.848  0.5063  0.4634 -0.2640
   17MOL   C11711669   4.552   6.868   5.965  0.3267 -0.0865  0.2818
   17MOL   O11811670   4.423   6.896   5.904 -0.1049 -0.6658 -0.1692
   17MOL   C11911671   4.304   6.904   5.978 -0.3074  0.7016 -1.0717
   17MOL   O12011672   4.291   6.858   6.096 -0.0108  0.1614 -0.1264
   17MOL   C12111673   4.181   6.953   5.903 -0.7345  0.1997  0.4012
   17MOL   C12211674   4.233   7.038   5.782 -0.2833  0.0125 -0.9536
   17MOL   C12311675   4.114   6.817   5.848  0.3932 -0.4556 -0.6500
   17MOL   H12411676   5.030   7.528   5.671 -0.0271  1.0014 -1.1378
   17MOL   H12511677   4.904   7.637   5.636  1.1293  0.3949 -0.8990
   17MOL   H12611678   4.890   7.544   5.785 -1.2333 -0.6067 -0.4467
   17MOL   H12711679   4.872   7.415   5.505  2.9787 -1.1561  1.3051
   17MOL   H12811680   4.738   7.492   5.580  0.0660 -0.3118 -1.5646
   17MOL   H12911681   4.757   7.341   5.777 -1.5865 -2.9067 -0.9372
   17MOL   H13011682   4.911   7.288   5.720 -0.5694 -2.4864 -0.6889
   17MOL   H13111683   4.637   7.228   5.591  0.8431  1.8017  0.9981
   17MOL   H13211684   4.781   7.187   5.512  0.6867 -0.8776  0.9561
   17MOL   H13311685   4.844   7.048   5.734 -0.2438 -1.0787  0.7777
   17MOL   H13411686   4.752   6.989   5.612  2.0057  0.3997 -0.9408
   17MOL   H13511687   4.645   7.105   5.873 -0.5145  1.5637 -0.5539
   17MOL   H13611688   4.541   7.056   5.742 -0.6185  2.5432  2.4172
   17MOL   H13711689   4.747   6.875   5.891  0.9722  0.6782 -1.2775
   17MOL   H13811690   4.629   6.813   5.769  0.8281  0.1699 -0.0697
   17MOL   H13911691   4.558   6.765   6.002  1.4850 -0.3724 -0.6734
   17MOL   H14011692   4.586   6.940   6.039 -1.3523  0.1097  0.8959
   17MOL   H14111693   4.149   7.087   5.732  0.9486  1.8409 -1.2536
   17MOL   H14211694   4.304   7.114   5.813 -0.2803  0.2823 -1.6110
   17MOL   H14311695   4.260   6.985   5.691  0.2288  1.3355 -1.5802
   17MOL   H14411696   4.131   6.743   5.927 -0.0925  0.1752  0.0502
   17MOL   H14511697   4.191   6.777   5.782 -1.3355 -3.2917 -1.0718
   17MOL   C14611698   3.828   6.311   6.838  0.2960 -0.4331  0.2701
   17MOL   C14711699   3.804   6.424   6.735 -0.2222  0.4494  1.2387
   17MOL   C14811700   3.863   6.400   6.591  0.1253  0.6398  0.4487
   17MOL   C14911701   3.827   6.504   6.484 -0.2656  0.8058 -0.0925
   17MOL   C15011702   3.895   6.470   6.346 -0.0486  0.4536 -0.1047
   17MOL   C15111703   3.914   6.585   6.244  0.6138 -0.2361  0.8588
   17MOL   C15211704   3.781   6.636   6.202  0.8222 -0.4817 -0.1715
   17MOL   C15311705   3.781   6.758   6.115 -0.0177  0.0824 -0.6638
   17MOL   O15411706   3.877   6.759   6.006  0.4613 -0.7447  0.2890
   17MOL   C15511707   3.859   6.833   5.894 -0.0828  0.3092 -0.2056
   17MOL   O15611708   3.782   6.926   5.879 -0.2085 -0.2085 -0.6223
   17MOL   C15711709   3.967   6.799   5.790  0.0793 -0.1850  0.0854
   17MOL   C15811710   3.950   6.890   5.664  0.0009  0.4036 -0.3729
   17MOL   C15911711   3.954   6.641   5.758  0.7541  0.5542 -0.5059
   17MOL   H16011712   3.791   6.337   6.938  0.9125  0.4583  0.2755
   17MOL   H16111713   3.933   6.289   6.856 -0.0306 -1.5200  0.8399
   17MOL   H16211714   3.782   6.226   6.788 -0.1554 -0.2982  0.4527
   17MOL   H16311715   3.700   6.457   6.727 -0.7088 -1.0368  1.2920
   17MOL   H16411716   3.865   6.502   6.780 -1.0642  2.0291 -0.2976
   17MOL   H16511717   3.828   6.304   6.551  1.5337 -0.4134  1.6830
   17MOL   H16611718   3.972   6.403   6.593  0.3460 -2.0787 -2.8096
   17MOL   H16711719   3.720   6.506   6.464 -0.0361  1.2230 -1.3131
   17MOL   H16811720   3.869   6.599   6.519  0.9792 -0.1749  1.1615
   17MOL   H16911721   3.834   6.395   6.296  2.2676 -1.6936  0.1824
   17MOL   H17011722   3.990   6.418   6.360 -0.2185  0.2050  0.1567
   17MOL   H17111723   3.958   6.556   6.149 -1.6272  0.3092 -0.3778
   17MOL   H17211724   3.987   6.659   6.276 -0.5277  0.9535  0.7797
   17MOL   H17311725   3.726   6.555   6.153 -0.7694  0.4077  0.1153
   17MOL   H17411726   3.723   6.662   6.290  0.8657  0.6744 -0.4818
   17MOL   H17511727   3.681   6.763   6.074  0.9622  2.2015 -2.9389
   17MOL   H17611728   3.797   6.846   6.177  2.8595 -0.6327 -0.3151
   17MOL   H17711729   4.018   6.863   5.584  1.5018  2.7717  0.0448
   17MOL   H17811730   3.961   6.998   5.680 -1.4537  0.4175  0.6070
   17MOL   H17911731   3.850   6.897   5.623  0.2056 -0.7969 -1.0945
   17MOL   H18011732   3.960   6.598   5.858  1.1073 -1.4912 -1.3656
   17MOL   H18111733   4.039   6.610   5.698  1.8183 -0.6157  1.5554
   17MOL   C18211734   3.822   5.615   6.346  0.6833  0.7721  0.3722
   17MOL   C18311735   3.841   5.747   6.422  0.3678 -0.1721 -0.1002
   17MOL   C18411736   3.790   5.871   6.350  0.6528  0.0519 -0.1318
   17MOL   C18511737   3.885   5.933   6.248 -0.6220 -0.1063 -0.0177
   17MOL   C18611738   3.832   6.068   6.197 -0.2368  0.6895  0.1151
   17MOL   C18711739   3.929   6.122   6.096  0.1243 -0.2381  0.3091
   17MOL   C18811740   3.881   6.258   6.032 -0.2909 -0.0386  0.1734
   17MOL   C18911741   3.867   6.241   5.875 -0.5534 -0.1262 -0.0158
   17MOL   O19011742   3.850   6.377   5.840 -0.4556 -0.0074 -0.5422
   17MOL   C19111743   3.846   6.412   5.704 -0.2088  0.1330 -0.5149
   17MOL   O19211744   3.863   6.332   5.609 -0.2909 -0.0869 -0.4263
   17MOL   C19311745   3.827   6.569   5.682  0.0378  1.0921 -0.5532
   17MOL   C19411746   3.827   6.606   5.525  0.3179 -0.8233  0.5779
   17MOL   C19511747   3.696   6.614   5.747  0.4895 -0.1357 -0.2260
   17MOL   H19611748   3.885   5.614   6.258 -0.4402  3.2559 -0.5093
   17MOL   H19711749   3.844   5.524   6.403  1.0453  0.0270 -0.9336
   17MOL   H19811750   3.720   5.602   6.311  1.1243 -0.8214 -0.3753
   17MOL   H19911751   3.946   5.748   6.448  0.3870 -0.1838 -0.1755
   17MOL   H20011752   3.785   5.737   6.515  0.1972 -0.2051 -0.2048
   17MOL   H20111753   3.689   5.860   6.309 -0.4423  0.4029  2.3539
   17MOL   H20211754   3.776   5.951   6.423  0.7596 -1.3097  1.4134
   17MOL   H20311755   3.989   5.928   6.281 -0.7214 -1.4133  0.1516
   17MOL   H20411756   3.890   5.862   6.166 -2.3172 -0.0292 -0.2057
   17MOL   H20511757   3.817   6.135   6.281  0.8302 -0.9438  1.6563
   17MOL   H20611758   3.738   6.051   6.145 -0.1817  0.0224  0.2320
   17MOL   H20711759   3.947   6.053   6.014 -1.6037  2.3252 -2.3243
   17MOL   H20811760   4.026   6.143   6.140 -0.8272  0.8218  1.9910
   17MOL   H20911761   3.785   6.280   6.079  0.6000  3.4108  0.4780
   17MOL   H21011762   3.945   6.345   6.044  2.0900 -1.5892 -0.7741
   17MOL   H21111763   3.781   6.180   5.851  0.9378 -2.3961  0.2157
   17MOL   H21211764   3.946   6.188   5.822 -0.4215 -0.7254  0.7533
   17MOL   H21311765   3.927   6.629   5.491 -1.5562  1.9742 -3.4148
   17MOL   H21411766   3.794   6.522   5.465 -0.1557 -1.8644  2.2472
   17MOL   H21511767   3.772   6.697   5.499  1.4651  0.0086  0.9966
   17MOL   H21611768   3.719   6.599   5.853 -0.6194 -0.0087  0.0327
   17MOL   H21711769   3.695   6.722   5.736  1.4942  0.1840  2.4103
   17MOL   C21811770   3.487   7.188   5.022  0.3010  0.4189 -0.8920
   17MOL   C21911771   3.515   7.207   5.167 -0.0045  0.5302  0.7843
   17MOL   C22011772   3.422   7.126   5.266 -0.1676  0.3494 -0.0223
   17MOL   C22111773   3.483   7.143   5.411  0.2472  0.7051 -0.1505
   17MOL   C22211774   3.391   7.087   5.515 -0.0029 -0.2916 -0.1855
   17MOL   C22311775   3.446   7.058   5.657  0.5257 -0.3252 -0.4372
   17MOL   C22411776   3.346   6.989   5.758 -0.4116  0.7889  0.2850
   17MOL   C22511777   3.413   6.884   5.852  0.4061  0.0538  0.4106
   17MOL   O22611778   3.462   6.776   5.768 -0.1215 -0.1546  0.4630
   17MOL   C22711779   3.478   6.650   5.825  0.0827 -0.3019 -0.7335
   17MOL   O22811780   3.452   6.616   5.938  0.2749 -0.6068 -0.5772
   17MOL   C22911781   3.553   6.555   5.725  0.6441 -0.4273 -0.5561
   17MOL   C23011782   3.541   6.416   5.790 -0.1721 -0.5776 -0.1890
   17MOL   C23111783   3.503   6.568   5.577 -0.7612 -0.8362 -1.0503
   17MOL   H23211784   3.537   7.265   4.963  1.3820  0.1128 -0.3877
   17MOL   H23311785   3.379   7.194   5.013  0.1487  2.0306  1.4504
   17MOL   H23411786   3.511   7.084   5.003  0.1982  0.0958  0.6645
   17MOL   H23511787   3.503   7.307   5.206 -2.2029  0.3444  0.6117
   17MOL   H23611788   3.621   7.191   5.188  0.6389  0.8785 -1.9855
   17MOL   H23711789   3.321   7.167   5.261 -0.5433 -0.5175  0.2714
   17MOL   H23811790   3.414   7.021   5.235  1.3962 -0.0361  0.8230
   17MOL   H23911791   3.584   7.106   5.428  0.8656  1.7485 -1.4676
   17MOL   H24011792   3.492   7.250   5.432  2.2517  1.1736 -3.1221
   17MOL   H24111793   3.298   7.143   5.524  0.0062 -0.3961  0.6443
   17MOL   H24211794   3.358   6.991   5.476 -2.0929  0.3502 -0.0455
   17MOL   H24311795   3.535   6.998   5.641 -0.2123 -1.0225 -2.0769
   17MOL   H24411796   3.492   7.145   5.703 -1.9831  2.4989 -3.1060
   17MOL   H24511797   3.276   6.926   5.704  1.1409 -0.9364  0.2219
   17MOL   H24611798   3.290   7.063   5.816  1.1947  2.4920 -0.2813
   17MOL   H24711799   3.331   6.846   5.914 -0.2548  0.4051 -0.2378
   17MOL   H24811800   3.495   6.911   5.918  0.4305 -1.8140  1.1735
   17MOL   H24911801   3.578   6.399   5.891 -1.7524 -2.7040  0.0742
   17MOL   H25011802   3.588   6.341   5.727  1.7925 -0.8214  1.5300
   17MOL   H25111803   3.438   6.380   5.794 -0.3189 -0.1677 -0.2683
   17MOL   H25211804   3.514   6.676   5.567  0.1297 -0.7915  0.2924
   17MOL   H25311805   3.580   6.510   5.526  0.3700 -1.0051  0.8273
   17MOL   C25411806   3.595   5.607   6.053 -0.4135 -0.3220 -0.8308
   17MOL   C25511807   3.664   5.737   6.021 -0.6375  0.4398 -0.1650
   17MOL   C25611808   3.601   5.801   5.893  0.0885 -0.2882 -0.6122
   17MOL   C25711809   3.666   5.928   5.854 -0.4346  0.2987 -0.7221
   17MOL   C25811810   3.641   5.957   5.706  0.5010  0.0627 -0.1460
   17MOL   C25911811   3.520   6.044   5.687 -0.3374  0.5449  0.1434
   17MOL   C26011812   3.501   6.089   5.539 -0.0189 -0.0178 -1.0944
   17MOL   C26111813   3.370   6.158   5.500 -0.7159 -0.2000  0.3339
   17MOL   O26211814   3.362   6.295   5.546 -0.3363 -0.0389 -0.0286
   17MOL   C26311815   3.370   6.391   5.463  0.2201 -0.4590 -0.8558
   17MOL   O26411816   3.392   6.380   5.342 -0.0761  0.5208  0.1065
   17MOL   C26511817   3.357   6.535   5.526  0.2627  0.0646  0.3194
   17MOL   C26611818   3.335   6.626   5.396 -0.0096  0.0762 -0.1941
   17MOL   C26711819   3.234   6.536   5.628  0.9724 -0.1527 -0.2896
   17MOL   H26811820   3.582   5.541   5.967  1.5330 -1.6904 -0.0905
   17MOL   H26911821   3.673   5.551   6.103  0.7500  0.8440 -1.2965
   17MOL   H27011822   3.499   5.611   6.105 -1.2502 -0.8246 -2.3050
   17MOL   H27111823   3.649   5.803   6.106 -0.4325  1.0596 -0.6032
   17MOL   H27211824   3.769   5.721   5.999 -0.9001 -1.7263  0.0609
   17MOL   H27311825   3.493   5.809   5.904  0.1265 -3.2655  3.0038
   17MOL   H27411826   3.603   5.722   5.818  0.4584 -1.7168  0.8550
   17MOL   H27511827   3.774   5.912   5.855 -0.6166 -1.2635 -2.6917
   17MOL   H27611828   3.652   6.015   5.918 -0.1851 -0.3351  0.2057
   17MOL   H27711829   3.725   5.998   5.651 -0.2139  1.0231 -0.5378
   17MOL   H27811830   3.626   5.861   5.657 -0.1941  0.3487 -0.5038
   17MOL   H27911831   3.545   6.128   5.751  0.5888 -0.5596  1.2611
   17MOL   H28011832   3.433   5.995   5.732  0.3118 -0.3896  0.4208
   17MOL   H28111833   3.584   6.158   5.521 -1.2680  1.7971 -0.0686
   17MOL   H28211834   3.504   5.999   5.477  1.0031 -1.2531  0.7024
   17MOL   H28311835   3.365   6.154   5.391  1.2379  1.2551  0.1619
   17MOL   H28411836   3.277   6.113   5.533 -0.7596 -0.1137  0.3312
   17MOL   H28511837   3.296   6.724   5.422  1.6907 -0.1302  3.5250
   17MOL   H28611838   3.432   6.646   5.350 -0.1361  1.7310  0.2320
   17MOL   H28711839   3.261   6.592   5.324 -1.7694  1.8624  0.7204
   17MOL   H28811840   3.242   6.627   5.689 -1.1404  0.6035 -1.0775
   17MOL   H28911841   3.247   6.448   5.691 -0.8212  1.4739  2.4489
   17MOL   C29011842   3.144   7.317   4.818  0.4087 -0.3300  0.4688
   17MOL   C29111843   3.135   7.176   4.752  0.2245 -0.3514  0.5896
   17MOL   C29211844   3.154   7.068   4.847  0.0563  0.3421 -0.1784
   17MOL   C29311845   3.045   7.059   4.954 -0.6843  0.7126  0.6754
   17MOL   C29411846   3.069   6.932   5.037  0.0557 -0.2712  0.4032
   17MOL   C29511847   2.984   6.927   5.161  0.0402 -0.5496  0.6288
   17MOL   C29611848   3.020   6.811   5.253  0.3041 -0.1662 -0.8723
   17MOL   C29711849   2.899   6.776   5.348  0.3426 -0.7568 -0.1416
   17MOL   O29811850   2.929   6.663   5.436  0.3347  0.1722 -0.1462
   17MOL   C29911851   3.032   6.676   5.526 -0.1687 -0.6093 -0.0608
   17MOL   O30011852   3.076   6.789   5.562  0.0357 -0.1796  0.1168
   17MOL   C30111853   3.083   6.538   5.580 -0.2001  0.0074  0.2724
   17MOL   C30211854   3.056   6.428   5.464 -0.2006 -0.5172  0.3703
   17MOL   C30311855   2.986   6.488   5.698  0.0107 -0.0154 -0.5225
   17MOL   H30411856   3.238   7.337   4.869 -0.3856  0.7087  1.5546
   17MOL   H30511857   3.064   7.355   4.881  0.3579  1.9182 -0.9054
   17MOL   H30611858   3.153   7.388   4.736  0.4723  1.1414  1.7317
   17MOL   H30711859   3.200   7.162   4.665  0.5656  0.0744  0.7717
   17MOL   H30811860   3.039   7.169   4.701  0.2650 -1.3928  0.6310
   17MOL   H30911861   3.250   7.061   4.897 -0.0271  0.4217 -0.0031
   17MOL   H31011862   3.147   6.972   4.796 -0.3234 -0.6515  1.6864
   17MOL   H31111863   3.051   7.145   5.021 -1.7587  0.3975  1.1800
   17MOL   H31211864   2.941   7.049   4.922 -0.3290  2.0192 -0.9586
   17MOL   H31311865   3.047   6.850   4.968 -2.9510  1.7391 -1.1420
   17MOL   H31411866   3.170   6.932   5.076  0.2306  1.1773 -0.0454
   17MOL   H31511867   2.881   6.906   5.132 -0.0241 -0.4652  0.7977
   17MOL   H31611868   2.998   7.019   5.217 -0.6695 -0.3948  0.5531
   17MOL   H31711869   3.119   6.828   5.296 -0.2716  2.4375 -0.4606
   17MOL   H31811870   3.034   6.726   5.187  3.4296 -0.8312  0.5653
   17MOL   H31911871   2.808   6.759   5.291 -0.3327  0.2479  0.6249
   17MOL   H32011872   2.881   6.865   5.408  0.0312  0.3534 -1.8577
   17MOL   H32111873   3.125   6.433   5.380 -0.3979 -1.0552  0.1787
   17MOL   H32211874   2.953   6.436   5.429 -0.2974  0.8212  0.8920
   17MOL   H32311875   3.070   6.326   5.498 -0.0144 -0.8321 -0.6334
   17MOL   H32411876   2.896   6.446   5.654  0.5442 -0.8409 -0.8481
   17MOL   H32511877   3.014   6.394   5.745 -0.0378  0.2505  0.0496
   17MOL   C32611878   2.493   5.667   6.208  0.0258 -0.8002  0.1893
   17MOL   C32711879   2.548   5.816   6.229 -0.2038  0.2542  0.3224
   17MOL   C32811880   2.704   5.817   6.230  0.2905  0.1576  0.6837
   17MOL   C32911881   2.753   5.955   6.258  0.2371 -1.0210 -0.2679
   17MOL   C33011882   2.900   5.977   6.234  0.3154 -0.0860  0.3284
   17MOL   C33111883   2.945   6.130   6.247 -0.5532 -0.2882  0.0521
   17MOL   C33211884   2.911   6.228   6.132 -0.1590  0.0570 -0.0972
   17MOL   C33311885   2.977   6.364   6.145  0.4588 -0.0937 -1.0948
   17MOL   O33411886   3.003   6.444   6.030  0.3510  0.2145  0.1795
   17MOL   C33511887   2.898   6.480   5.932 -0.6583  0.4134 -0.0713
   17MOL   O33611888   2.789   6.423   5.937  0.4568 -0.5812 -0.9761
   17MOL   C33711889   2.927   6.580   5.815  0.3394 -0.0002 -0.2314
   17MOL   C33811890   3.036   6.669   5.874 -0.6628  0.0877 -0.1201
   17MOL   C33911891   2.799   6.659   5.763 -0.9792  0.6250 -0.7358
   17MOL   H34011892   2.390   5.644   6.232 -0.9337  2.5397 -0.3981
   17MOL   H34111893   2.546   5.602   6.278 -0.2663 -0.1980  0.9933
   17MOL   H34211894   2.517   5.626   6.110  0.8501  1.0362 -0.4042
   17MOL   H34311895   2.510   5.840   6.328  0.5517 -0.9139  0.9024
   17MOL   H34411896   2.497   5.880   6.156 -1.0317 -0.4832  0.2470
   17MOL   H34511897   2.743   5.785   6.134  1.0900 -1.6029  1.5750
   17MOL   H34611898   2.742   5.757   6.312 -0.7972 -1.7736 -0.2051
   17MOL   H34711899   2.722   5.976   6.360  0.1577  0.3470 -0.5703
   17MOL   H34811900   2.713   6.023   6.183 -0.6439 -1.1733  0.0551
   17MOL   H34911901   2.958   5.928   6.313 -0.2472  0.8448  1.3339
   17MOL   H35011902   2.927   5.934   6.138  0.2094  1.1779 -0.2713
   17MOL   H35111903   2.897   6.172   6.336  0.9030  0.7961  0.3489
   17MOL   H35211904   3.048   6.128   6.284 -0.7576 -0.0290  0.6508
   17MOL   H35311905   2.804   6.246   6.121 -0.2121  1.3096  2.2206
   17MOL   H35411906   2.945   6.177   6.042 -1.3322  0.4147 -0.7571
   17MOL   H35511907   2.931   6.427   6.220  2.3982  1.9190 -1.5375
   17MOL   H35611908   3.078   6.349   6.183  1.2253  3.7841 -1.3664
   17MOL   H35711909   3.133   6.620   5.886 -0.2519  0.5111 -1.6203
   17MOL   H35811910   3.061   6.758   5.816  1.5862 -0.8164 -0.5973
   17MOL   H35911911   3.009   6.707   5.973  1.2753  0.6551  0.2141
   17MOL   H36011912   2.818   6.693   5.661  0.1927 -0.3932 -0.8561
   17MOL   H36111913   2.724   6.580   5.756 -0.4759  0.2279 -1.7624
   17MOL   C36211914   2.801   7.570   5.034 -0.1807  0.3253  0.5134
   17MOL   C36311915   2.807   7.535   5.190  0.3869  0.1931  0.0163
   17MOL   C36411916   2.815   7.384   5.216 -1.2088 -0.2280  0.2551
   17MOL   C36511917   2.815   7.345   5.363  0.3771 -0.7017  0.2169
   17MOL   C36611918   2.785   7.194   5.384  0.3832  0.4191 -0.0118
   17MOL   C36711919   2.778   7.137   5.529 -0.0440  0.3904 -0.4840
   17MOL   C36811920   2.919   7.116   5.580  0.0067 -0.6805  0.2341
   17MOL   C36911921   2.934   7.070   5.725  0.4605 -0.6823 -0.0393
   17MOL   O37011922   2.870   6.943   5.731 -0.1993 -0.2554  0.0313
   17MOL   C37111923   2.812   6.897   5.846  0.5604 -0.7601 -0.4346
   17MOL   O37211924   2.837   6.949   5.958 -0.0933  0.4289 -0.2000
   17MOL   C37311925   2.724   6.773   5.836  0.0634 -0.0426  0.0868
   17MOL   C37411926   2.680   6.728   5.981 -0.0535  0.0855  0.2265
   17MOL   C37511927   2.589   6.818   5.757 -0.2444  0.2843  0.0195
   17MOL   H37611928   2.730   7.500   4.990  0.4966 -0.3828  0.5386
   17MOL   H37711929   2.758   7.669   5.017 -0.6456  0.2042  0.9680
   17MOL   H37811930   2.900   7.574   4.989  0.6619 -1.8149  2.0610
   17MOL   H37911931   2.726   7.578   5.248  0.1995 -0.9333  0.6031
   17MOL   H38011932   2.893   7.589   5.229 -0.0581 -0.2280  1.6227
   17MOL   H38111933   2.904   7.339   5.171 -0.8340 -0.9326  1.6532
   17MOL   H38211934   2.733   7.329   5.172 -1.8478  0.4232  0.6284
   17MOL   H38311935   2.748   7.411   5.419  1.2588  1.2244 -0.9705
   17MOL   H38411936   2.912   7.354   5.411  0.1911 -0.3146  0.5227
   17MOL   H38511937   2.684   7.188   5.343  0.3416  3.0317 -0.3643
   17MOL   H38611938   2.839   7.124   5.321  2.2500  0.8408  1.0808
   17MOL   H38711939   2.718   7.047   5.523  1.3762 -0.6357  0.4336
   17MOL   H38811940   2.732   7.214   5.590  0.0688  0.7376 -0.8341
   17MOL   H38911941   2.975   7.207   5.560  1.9122 -2.4476 -2.6868
   17MOL   H39011942   2.963   7.035   5.523 -1.6038 -1.9787  0.7916
   17MOL   H39111943   3.040   7.056   5.749  0.7085  1.3789  0.1482
   17MOL   H39211944   2.904   7.147   5.795  1.4580  2.5503 -3.0124
   17MOL   H39311945   2.764   6.705   6.046  0.2328  0.7832  0.1061
   17MOL   H39411946   2.631   6.807   6.038 -0.5205  0.6392 -0.9166
   17MOL   H39511947   2.620   6.637   5.979 -0.0627  0.1143 -2.1809
   17MOL   H39611948   2.524   6.855   5.836  0.0661  1.9051 -0.4767
   17MOL   H39711949   2.603   6.917   5.715  2.3897  0.9699  2.4211
   17MOL   C39811950   3.115   6.031   5.733  0.3018 -1.0913  0.3152
   17MOL   C39911951   2.967   6.001   5.757  0.1682 -0.1874  0.6643
   17MOL   C40011952   2.882   6.057   5.641 -0.1716 -0.3764 -1.4673
   17MOL   C40111953   2.737   6.067   5.681  0.5150 -0.3515  0.2091
   17MOL   C40211954   2.649   6.116   5.567 -0.2112 -0.3334 -0.0504
   17MOL   C40311955   2.686   6.259   5.527 -0.2249  0.5723 -0.3753
   17MOL   C40411956   2.586   6.314   5.429  0.0969  0.2196  0.3741
   17MOL   C40511957   2.605   6.465   5.411  0.0382  0.3892  0.4540
   17MOL   O40611958   2.560   6.532   5.536 -0.3298 -0.2499 -0.3410
   17MOL   C40711959   2.563   6.663   5.554  0.5667 -0.3997 -0.0803
   17MOL   O40811960   2.613   6.736   5.475  0.0703  0.4844  0.4036
   17MOL   C40911961   2.490   6.723   5.679 -0.6679  0.0466  0.4504
   17MOL   C41011962   2.442   6.614   5.777  0.3673  0.4813  0.0225
   17MOL   C41111963   2.368   6.822   5.641 -0.3154  0.0605  0.2183
   17MOL   H41211964   3.139   6.137   5.734  1.0420 -1.2442 -0.0575
   17MOL   H41311965   3.142   5.991   5.635 -0.1243  0.9596 -0.6539
   17MOL   H41411966   3.176   5.980   5.808 -1.4261 -1.3804  1.5460
   17MOL   H41511967   2.945   6.049   5.853  2.1838 -2.5330  2.3695
   17MOL   H41611968   2.953   5.893   5.759 -0.3969 -0.1063  1.0996
   17MOL   H41711969   2.923   6.152   5.608  0.0803 -0.4681 -1.4232
   17MOL   H41811970   2.894   5.993   5.554  1.4035 -1.3759 -0.5585
   17MOL   H41911971   2.722   6.130   5.769  1.5746  1.0241 -0.5852
   17MOL   H42011972   2.690   5.973   5.711 -0.0982  0.7684  2.9142
   17MOL   H42111973   2.664   6.050   5.481 -0.3108 -0.5146  0.0699
   17MOL   H42211974   2.547   6.104   5.603  0.2173  1.6705  1.9184
   17MOL   H42311975   2.778   6.276   5.471  0.2021  0.9564  0.4274
   17MOL   H42411976   2.703   6.324   5.613  0.5820  1.4317 -1.1837
   17MOL   H42511977   2.573   6.255   5.338 -0.5104 -1.5128  1.5542
   17MOL   H42611978   2.489   6.289   5.473 -0.3638  0.0187 -0.7419
   17MOL   H42711979   2.708   6.486   5.383  0.0730 -0.5554 -0.1671
   17MOL   H42811980   2.554   6.502   5.322  0.9820 -0.3300 -0.3913
   17MOL   H42911981   2.532   6.564   5.813  1.6147  2.2409 -0.5743
   17MOL   H43011982   2.377   6.541   5.730 -1.0868  0.1059  2.5339
   17MOL   H43111983   2.396   6.663   5.863 -0.3878  1.1225 -0.7303
   17MOL   H43211984   2.413   6.880   5.561  1.1201  1.2425  1.8543
   17MOL   H43311985   2.353   6.910   5.703 -2.9411 -0.3345  0.2109
   17MOL   C43411986   1.853   6.844   6.635 -0.5251 -0.4665 -0.1097
   17MOL   C43511987   1.884   6.719   6.548  0.5348 -0.2311  0.2496
   17MOL   C43611988   1.997   6.739   6.453 -0.2723 -0.2073  0.4360
   17MOL   C43711989   2.058   6.608   6.394  0.8637 -0.2128  1.0030
   17MOL   C43811990   2.146   6.645   6.271  0.4574  0.2182 -0.9174
   17MOL   C43911991   2.072   6.663   6.147 -0.1235 -0.0900 -0.8738
   17MOL   C44011992   2.157   6.734   6.037 -0.6260  0.0697  0.4277
   17MOL   C44111993   2.087   6.721   5.907 -1.0688 -0.6302  0.3919
   17MOL   O44211994   2.165   6.786   5.802 -0.3795 -0.4767 -0.5951
   17MOL   C44311995   2.124   6.756   5.683 -0.0892 -0.4913  0.3687
   17MOL   O44411996   2.016   6.708   5.640  0.5137  0.2419  0.5226
   17MOL   C44511997   2.234   6.784   5.577 -0.0447  0.2960 -0.5315
   17MOL   C44611998   2.248   6.671   5.473 -0.5704  0.9489  0.2416
   17MOL   C44711999   2.180   6.903   5.486  0.1232 -0.5079 -0.1687
   17MOL   H44812000   1.934   6.917   6.639  0.9391 -1.8323 -3.3005
   17MOL   H44912001   1.828   6.826   6.739 -1.7666 -0.6805 -0.4378
   17MOL   H45012002   1.763   6.892   6.598 -0.4772 -0.3515 -0.0768
   17MOL   H45112003   1.791   6.695   6.498 -0.0396 -0.9933  1.6566
   17MOL   H45212004   1.904   6.628   6.604  3.0175  0.7092  0.9670
   17MOL   H45312005   2.074   6.789   6.510 -2.5191  2.2260  1.4446
   17MOL   H45412006   1.976   6.810   6.372  0.2587  1.6345  1.8788
   17MOL   H45512007   1.981   6.538   6.362  1.2655 -0.3275  0.2895
   17MOL   H45612008   2.104   6.559   6.480  1.3066 -1.5239  0.0264
   17MOL   H45712009   2.195   6.741   6.287  0.3269  0.2175 -0.4930
   17MOL   H45812010   2.222   6.569   6.256 -0.0078 -0.2358 -0.9764
   17MOL   H45912011   1.984   6.726   6.162  0.9842  1.5675 -1.1957
   17MOL   H46012012   2.027   6.571   6.111 -0.8762  0.1406 -0.5358
   17MOL   H46112013   2.170   6.840   6.056 -1.1191  0.2088 -0.0218
   17MOL   H46212014   2.255   6.685   6.037 -0.0262  1.2408 -0.8479
   17MOL   H46312015   1.985   6.759   5.909 -0.5103  0.8602  3.6688
   17MOL   H46412016   2.067   6.615   5.893 -2.0404 -0.5611  1.1740
   17MOL   H46512017   2.327   6.695   5.402  0.1516 -1.7818  0.0598
   17MOL   H46612018   2.280   6.578   5.521 -2.4220 -0.0242 -0.3736
   17MOL   H46712019   2.152   6.645   5.428 -0.2624 -1.8429  1.1335
   17MOL   H46812020   2.246   6.919   5.401  0.6972  2.7264  0.8205
   17MOL   H46912021   2.090   6.859   5.444  0.4891 -0.4177 -1.0615
   17MOL   C47012022   2.266   6.349   5.109  0.2543  0.1166  0.5845
   17MOL   C47112023   2.281   6.497   5.084  0.8412 -0.0147  0.0065
   17MOL   C47212024   2.162   6.581   5.122  0.4519  0.3401  0.0292
   17MOL   C47312025   2.163   6.726   5.064 -0.8971 -0.1633  0.3821
   17MOL   C47412026   2.037   6.796   5.091  0.3217  0.2901 -0.4722
   17MOL   C47512027   2.059   6.941   5.051 -0.1066 -0.0041 -0.1315
   17MOL   C47612028   1.955   7.027   5.118 -0.3757  0.3959  0.3953
   17MOL   C47712029   2.011   7.147   5.196  0.3786 -0.1192 -0.5673
   17MOL   O47812030   2.085   7.099   5.306  0.0257  0.1112 -0.1392
   17MOL   C47912031   2.037   7.102   5.430  0.1326 -0.2690  0.1842
   17MOL   O48012032   1.926   7.140   5.465 -0.6768  0.2509 -0.0427
   17MOL   C48112033   2.143   7.046   5.538 -0.3166 -0.0396  0.0400
   17MOL   C48212034   2.078   7.054   5.676 -0.0643 -0.6260  0.0690
   17MOL   C48312035   2.273   7.133   5.529 -0.2001 -0.4328  0.2878
   17MOL   H48412036   2.262   6.326   5.216  0.7734 -0.7317  0.4298
   17MOL   H48512037   2.353   6.302   5.064 -2.7939 -1.7554 -3.7744
   17MOL   H48612038   2.181   6.299   5.062  1.0647 -0.6308 -0.0991
   17MOL   H48712039   2.375   6.525   5.131  0.6482  0.3390  0.1894
   17MOL   H48812040   2.293   6.495   4.975 -0.7378 -1.7774 -0.1451
   17MOL   H48912041   2.077   6.535   5.071  1.9418 -0.3614 -1.8726
   17MOL   H49012042   2.128   6.570   5.225 -0.4136 -0.7539 -0.3615
   17MOL   H49112043   2.248   6.777   5.108 -0.0123 -0.2674 -1.1872
   17MOL   H49212044   2.187   6.717   4.958  0.5558  2.5175  0.4659
   17MOL   H49312045   1.961   6.745   5.031  0.5279 -0.2635 -0.2612
   17MOL   H49412046   2.012   6.782   5.196 -1.6146 -0.9909 -1.0647
   17MOL   H49512047   2.157   6.963   5.093 -0.8375  1.6461  0.7649
   17MOL   H49612048   2.062   6.953   4.943  0.8339 -1.1082 -0.2309
   17MOL   H49712049   1.885   7.074   5.049  0.0600  4.2388  2.4005
   17MOL   H49812050   1.899   6.962   5.185 -2.2170  1.7320  0.1828
   17MOL   H49912051   1.933   7.218   5.221  0.8560  0.1163  0.2913
   17MOL   H50012052   2.081   7.203   5.134 -0.2879 -0.7149 -1.8686
   17MOL   H50112053   2.041   7.156   5.682 -1.0923 -0.9987  0.1637
   17MOL   H50212054   2.139   7.033   5.764  0.8822 -1.6415 -0.8130
   17MOL   H50312055   1.985   6.996   5.677  0.5408 -1.5875  1.0829
   17MOL   H50412056   2.327   7.078   5.606 -2.1252  2.7290  4.1109
   17MOL   H50512057   2.323   7.113   5.434  1.4402 -0.7160  1.1991
   17MOL   C50612058   2.733   7.317   6.597  0.1462 -0.2597  0.4724
   17MOL   C50712059   2.647   7.234   6.499 -0.4167 -0.6876  0.4921
   17MOL   C50812060   2.681   7.260   6.352 -0.5529  0.2611 -0.2387
   17MOL   C50912061   2.588   7.187   6.254 -1.1449  0.0924 -0.9904
   17MOL   C51012062   2.611   7.230   6.107 -0.2166  0.2371  0.5484
   17MOL   C51112063   2.559   7.143   5.989  0.7267 -0.5722  0.1490
   17MOL   C51212064   2.406   7.128   5.973  0.2519 -0.0004 -0.1742
   17MOL   C51312065   2.319   7.251   5.936  0.1530  0.0713 -0.1720
   17MOL   O51412066   2.332   7.244   5.796 -0.2132 -0.2059  0.0242
   17MOL   C51512067   2.261   7.319   5.713  0.2303  0.1147 -0.2968
   17MOL   O51612068   2.164   7.384   5.751  0.2872 -0.1498 -0.1572
   17MOL   C51712069   2.291   7.288   5.559  0.5212 -0.5421  0.6563
   17MOL   C51812070   2.447   7.303   5.541 -0.2937  0.2082 -0.0030
   17MOL   C51912071   2.201   7.374   5.459 -0.0601 -0.5024  0.3870
   17MOL   H52012072   2.833   7.276   6.579 -0.2966 -0.3591 -2.0059
   17MOL   H52112073   2.692   7.288   6.694  0.5071  0.0123  0.7043
   17MOL   H52212074   2.734   7.423   6.574  0.4789  0.1328  2.2489
   17MOL   H52312075   2.544   7.264   6.520 -0.4719  0.9937 -1.9369
   17MOL   H52412076   2.638   7.130   6.527 -1.6099 -1.0077 -1.0030
   17MOL   H52512077   2.676   7.367   6.332  0.1203 -0.2119 -3.1330
   17MOL   H52612078   2.783   7.222   6.344 -0.5084  0.0745  1.1064
   17MOL   H52712079   2.610   7.081   6.269 -0.5851  0.3110 -0.2423
   17MOL   H52812080   2.484   7.207   6.281 -0.5040  1.1181  0.7588
   17MOL   H52912081   2.587   7.334   6.085  2.0449  0.3849 -1.5349
   17MOL   H53012082   2.720   7.220   6.105 -0.0973  1.3234  1.6201
   17MOL   H53112083   2.606   7.048   6.016 -0.3187 -0.7473  1.3894
   17MOL   H53212084   2.607   7.178   5.897  0.7350  0.4022  0.5151
   17MOL   H53312085   2.368   7.090   6.067  0.7230 -0.0074  0.0158
   17MOL   H53412086   2.384   7.044   5.907 -0.9968 -0.8324  1.2788
   17MOL   H53512087   2.354   7.347   5.976  0.5218 -0.2424  0.2690
   17MOL   H53612088   2.218   7.231   5.971  0.7783 -0.0561  1.6547
   17MOL   H53712089   2.489   7.232   5.613 -0.7829 -0.4032 -0.3121
   17MOL   H53812090   2.488   7.402   5.563 -1.0228  0.0246  2.3487
   17MOL   H53912091   2.483   7.272   5.443 -0.5588 -1.6953  0.4895
   17MOL   H54012092   2.198   7.316   5.367  3.4375 -0.9199  0.4993
   17MOL   H54112093   2.096   7.367   5.488 -0.2618 -2.1206 -0.6768
   17MOL   C54212094   2.099   7.198   4.574 -0.0551  0.4067 -0.1127
   17MOL   C54312095   2.210   7.097   4.538  0.3287  0.7102  0.5576
   17MOL   C54412096   2.317   7.077   4.646  0.0425 -0.0275 -0.2659
   17MOL   C54512097   2.352   7.201   4.720  0.5405  0.0898  0.5942
   17MOL   C54612098   2.468   7.176   4.816 -0.3393 -0.5764  0.2288
   17MOL   C54712099   2.507   7.293   4.901  0.2759 -0.5174 -0.0469
   17MOL   C54812100   2.408   7.322   5.014  0.6623  0.1309  0.2255
   17MOL   C54912101   2.447   7.426   5.118 -0.8478 -0.2819  0.4883
   17MOL   O55012102   2.338   7.450   5.203 -0.6449 -0.8000 -0.3555
   17MOL   C55112103   2.361   7.511   5.327  0.6187 -0.2090 -0.1080
   17MOL   O55212104   2.474   7.546   5.355 -0.0850  0.2095  0.0667
   17MOL   C55312105   2.233   7.522   5.419 -0.4154  0.5903 -0.3492
   17MOL   C55412106   2.262   7.615   5.544 -0.2874 -0.9850  0.3207
   17MOL   C55512107   2.109   7.573   5.341 -0.5216 -0.5088  0.6135
   17MOL   H55612108   2.019   7.223   4.504 -0.2239  0.8179  0.2208
   17MOL   H55712109   2.140   7.290   4.616 -1.6713  0.2618  1.8961
   17MOL   H55812110   2.052   7.144   4.656  1.9284 -0.9017  0.1700
   17MOL   H55912111   2.173   7.001   4.505 -0.7235  1.0921  0.6166
   17MOL   H56012112   2.261   7.144   4.454  0.6319 -3.6992 -1.8532
   17MOL   H56112113   2.403   7.045   4.587  1.1395 -0.5243  1.5475
   17MOL   H56212114   2.282   6.993   4.706  1.2685 -0.5277 -0.2358
   17MOL   H56312115   2.373   7.285   4.654 -0.5989 -0.3136 -0.2939
   17MOL   H56412116   2.274   7.244   4.782 -1.3632 -1.2791 -0.7855
   17MOL   H56512117   2.556   7.139   4.763 -0.7613 -0.2892 -0.6691
   17MOL   H56612118   2.440   7.096   4.885 -0.1149 -1.0853 -0.2599
   17MOL   H56712119   2.605   7.299   4.950  0.4959 -1.2553 -0.3980
   17MOL   H56812120   2.515   7.378   4.834  0.5376 -0.8215 -0.4017
   17MOL   H56912121   2.313   7.346   4.966  0.5178 -0.3260  0.2777
   17MOL   H57012122   2.401   7.235   5.080 -1.7095  0.7970  0.9066
   17MOL   H57112123   2.481   7.517   5.069 -0.3894 -1.4880 -1.4818
   17MOL   H57212124   2.533   7.391   5.176  1.2623 -0.4193 -2.6019
   17MOL   H57312125   2.289   7.718   5.523 -0.7735 -0.9876 -0.3048
   17MOL   H57412126   2.350   7.580   5.598 -0.4738 -0.8517  0.7112
   17MOL   H57512127   2.174   7.634   5.606 -0.5582 -1.1835 -0.0031
   17MOL   H57612128   2.023   7.536   5.397 -0.4818 -0.6643  0.5715
   17MOL   H57712129   2.103   7.502   5.258  1.8727  0.6829 -0.6361
   17MOL   C57812130   2.511   0.088   4.390 -0.3720 -0.8371 -0.7407
   17MOL   C57912131   2.526   7.716   4.385  0.2573  0.7717 -0.4624
   17MOL   C58012132   2.418   7.644   4.475  0.3306 -0.1113 -0.4617
   17MOL   C58112133   2.423   7.692   4.623  0.4979  0.4247  0.1049
   17MOL   C58212134   2.313   7.615   4.708  0.3122 -0.3165  0.7541
   17MOL   C58312135   2.340   7.646   4.856 -0.2551  0.2322  0.3145
   17MOL   C58412136   2.296   0.009   4.898  0.5855  0.0552 -0.6138
   17MOL   C58512137   2.322   0.036   5.047  0.4699 -0.3853 -0.6399
   17MOL   O58612138   2.224   7.738   5.116 -0.0203 -0.3962 -0.5670
   17MOL   C58712139   2.188   0.004   5.231  0.1322  0.4413 -0.0614
   17MOL   O58812140   2.236   0.105   5.291 -0.1639 -0.0459 -0.1971
   17MOL   C58912141   2.065   7.710   5.292  0.1576 -0.4773  0.5831
   17MOL   C59012142   2.010   0.013   5.416 -0.0668 -0.1834  0.2216
   17MOL   C59112143   1.952   7.682   5.184  0.0373 -0.2292 -0.1502
   17MOL   H59212144   2.414   0.112   4.346 -0.0205 -1.3360 -1.7992
   17MOL   H59312145   2.577   0.131   4.315 -2.1379 -0.9196 -2.4051
   17MOL   H59412146   2.540   0.132   4.485 -2.1045 -2.0798  0.3930
   17MOL   H59512147   2.619   7.676   4.424 -0.8059 -0.7896  0.5520
   17MOL   H59612148   2.512   7.686   4.281  1.0421  0.6082 -0.5187
   17MOL   H59712149   2.448   7.539   4.467  1.8397  0.2424  0.3217
   17MOL   H59812150   2.316   7.650   4.438  1.1569 -0.9876 -2.9956
   17MOL   H59912151   2.392   0.017   4.625 -0.5548  0.1002  1.2094
   17MOL   H60012152   2.526   7.674   4.654  0.7229 -0.5374 -1.1269
   17MOL   H60112153   2.318   7.509   4.686 -0.1890  0.2192 -2.2071
   17MOL   H60212154   2.210   7.643   4.686  0.5733 -0.3894 -0.6012
   17MOL   H60312155   2.447   7.628   4.873 -0.4444 -1.2088  0.0531
   17MOL   H60412156   2.284   7.574   4.916  0.5081 -2.7233 -2.3357
   17MOL   H60512157   2.192   0.022   4.869  0.3513 -0.3907  0.0058
   17MOL   H60612158   2.361   0.076   4.843  0.0830  1.5884  0.6263
   17MOL   H60712159   2.422   0.020   5.087  0.5287 -0.5711 -0.8604
   17MOL   H60812160   2.301   0.142   5.061 -0.3916 -0.3376 -2.1108
   17MOL   H60912161   1.984   0.115   5.389 -0.3227 -0.0520  0.9489
   17MOL   H61012162   1.917   7.755   5.459 -0.7221  0.5659 -0.5072
   17MOL   H61112163   2.078   0.038   5.497  2.2983  3.0880 -2.6232
   17MOL   H61212164   1.892   7.603   5.231  1.4204 -0.6187  1.0085
   17MOL   H61312165   1.999   7.615   5.112  0.7914 -1.3294  1.3370
   17MOL   C61412166   0.936   0.082   4.862  0.6648  0.2095 -0.1059
   17MOL   C61512167   1.062   0.023   4.933  0.2682  0.2896 -0.7172
   17MOL   C61612168   1.026   7.759   5.077  0.1533  0.1931 -0.5473
   17MOL   C61712169   1.141   7.705   5.153 -0.3410  0.0552  0.2880
   17MOL   C61812170   1.236   0.024   5.225 -0.1137  0.1795 -0.8314
   17MOL   C61912171   1.369   7.741   5.254  0.6330 -0.1507  0.5673
   17MOL   C62012172   1.458   0.051   5.340  0.8113 -0.0320  0.5243
   17MOL   C62112173   1.600   7.765   5.380  0.5967 -0.0601 -0.1534
   17MOL   O62212174   1.679   7.733   5.265 -0.0662 -1.0053 -0.4959
   17MOL   C62312175   1.762   0.057   5.219  0.3826 -0.3785 -0.2785
   17MOL   O62412176   1.758   0.170   5.263 -0.1915  0.0328 -0.1957
   17MOL   C62512177   1.868   0.010   5.114  0.3763  0.0483  0.7275
   17MOL   C62612178   1.951   0.132   5.075 -1.1501 -0.2827  0.3379
   17MOL   C62712179   1.785   7.740   4.992 -0.4906  0.0053 -0.2512
   17MOL   H62812180   0.878   7.778   4.821  3.1997 -2.5416  1.6693
   17MOL   H62912181   0.968   0.150   4.784  0.3615 -1.2252 -1.5092
   17MOL   H63012182   0.883   0.147   4.931 -0.5060 -0.3598 -0.4567
   17MOL   H63112183   1.118   7.730   4.875  0.6833 -0.1081  0.1657
   17MOL   H63212184   1.144   0.095   4.933 -1.4399  2.2600 -2.0136
   17MOL   H63312185   0.939   7.695   5.070 -0.2313  0.7648 -0.9715
   17MOL   H63412186   0.997   0.063   5.141  0.9785  1.3506 -1.6551
   17MOL   H63512187   1.200   7.649   5.080  1.1657 -0.0833  1.5859
   17MOL   H63612188   1.092   7.633   5.218  0.7991 -0.2085  0.8624
   17MOL   H63712189   1.250   0.116   5.168 -0.8666  1.5023  1.0813
   17MOL   H63812190   1.201   0.047   5.326 -2.0778 -0.1786 -1.4024
   17MOL   H63912191   1.350   7.643   5.299  1.3774 -1.1222 -1.1980
   17MOL   H64012192   1.417   7.727   5.157 -3.4428 -2.4178 -1.2394
   17MOL   H64112193   1.400   0.093   5.423 -0.8126  0.5689 -0.9035
   17MOL   H64212194   1.485   0.138   5.280  0.6813 -1.3679 -1.5057
   17MOL   H64312195   1.654   0.050   5.449 -2.1885  0.8533  1.2734
   17MOL   H64412196   1.579   7.663   5.412  1.4249 -0.5279 -1.1069
   17MOL   H64512197   1.986   0.184   5.165 -0.0412  1.3500 -1.0002
   17MOL   H64612198   1.890   0.203   5.018  1.7684 -0.4616 -3.1979
   17MOL   H64712199   2.033   0.109   5.007 -2.3741  1.2750 -1.7384
   17MOL   H64812200   1.769   0.042   4.921 -2.5290 -0.2324 -0.0988
   17MOL   H64912201   1.681   7.741   5.024 -0.1359  0.1524  0.9131
   17MOL   C65012202   0.958   7.464   5.442 -0.1951 -0.0598 -0.0956
   17MOL   C65112203   1.101   7.418   5.472  0.6511 -0.1902 -0.5493
   17MOL   C65212204   1.150   7.304   5.373  0.3929 -0.6083 -0.9359
   17MOL   C65312205   1.304   7.297   5.385 -0.1804  0.1359 -0.3191
   17MOL   C65412206   1.364   7.211   5.278  0.3470  0.1455  0.2017
   17MOL   C65512207   1.513   7.228   5.269  0.5166  0.4311 -0.2004
   17MOL   C65612208   1.546   7.360   5.203  0.1810  0.4551 -0.2154
   17MOL   C65712209   1.696   7.378   5.168  0.5883 -0.1225  0.6026
   17MOL   O65812210   1.712   7.484   5.078  0.5294 -0.2613  0.7479
   17MOL   C65912211   1.815   7.483   4.994  0.1587 -0.9457 -0.2260
   17MOL   O66012212   1.897   7.392   4.982  0.2937 -0.1552 -0.6989
   17MOL   C66112213   1.817   7.609   4.908 -0.0913  0.1623  0.4663
   17MOL   C66212214   1.944   7.628   4.838  0.3734 -0.2500  0.7015
   17MOL   C66312215   1.697   7.596   4.814 -0.2455 -0.5120 -0.2248
   17MOL   H66412216   0.958   7.496   5.338  2.9188  1.9883  0.4529
   17MOL   H66512217   0.951   7.559   5.495 -1.7736 -0.5953  0.6842
   17MOL   H66612218   0.877   7.399   5.476 -0.5914  1.4560  1.8872
   17MOL   H66712219   1.116   7.400   5.579  0.8818  0.4540 -0.4700
   17MOL   H66812220   1.162   7.507   5.451  0.9206 -0.6052 -1.5469
   17MOL   H66912221   1.129   7.333   5.270 -1.0658  2.1825  0.0898
   17MOL   H67012222   1.110   7.206   5.398 -2.1753 -0.3591 -3.7551
   17MOL   H67112223   1.344   7.262   5.480  1.4224 -2.0233 -1.7452
   17MOL   H67212224   1.332   7.401   5.372 -1.0775  0.4835  0.4426
   17MOL   H67312225   1.315   7.235   5.184  3.0283  0.1843 -1.2519
   17MOL   H67412226   1.355   7.104   5.293  2.0935  0.1152  1.2586
   17MOL   H67512227   1.567   7.216   5.362  0.2019  0.6752  0.0151
   17MOL   H67612228   1.545   7.146   5.204 -1.9105  1.2636 -2.5620
   17MOL   H67712229   1.517   7.436   5.275  0.7283  1.4016 -0.9860
   17MOL   H67812230   1.494   7.387   5.111 -0.8524 -2.1328 -0.4585
   17MOL   H67912231   1.738   7.285   5.131 -2.0095 -0.0555 -2.8014
   17MOL   H68012232   1.748   7.396   5.262 -0.7421 -1.8038  1.6811
   17MOL   H68112233   1.990   7.535   4.805 -0.4967  0.1103 -1.6028
   17MOL   H68212234   2.011   7.664   4.916 -0.5371  0.6493  1.0863
   17MOL   H68312235   1.947   7.692   4.750  0.1117 -1.3409 -0.1039
   17MOL   H68412236   1.607   7.582   4.873  0.3273  1.1131  1.0755
   17MOL   H68512237   1.667   7.683   4.755 -0.1816 -1.2148 -1.3063
   17MOL   C68612238   0.596   7.421   5.116 -0.2177  0.0008  0.2787
   17MOL   C68712239   0.705   7.477   5.033 -0.3785  0.1767 -0.0579
   17MOL   C68812240   0.709   7.418   4.892  0.5435  0.5867 -1.0050
   17MOL   C68912241   0.822   7.462   4.802  0.7039 -0.2320  0.2971
   17MOL   C69012242   0.959   7.433   4.860  0.5569 -0.2269  0.0180
   17MOL   C69112243   1.074   7.438   4.754  0.3837 -0.4883 -0.4598
   17MOL   C69212244   1.214   7.445   4.821  0.7122 -0.7438 -0.3921
   17MOL   C69312245   1.315   7.447   4.708 -0.5809 -0.9196  0.3214
   17MOL   O69412246   1.453   7.447   4.735 -0.4050 -0.3669  0.4126
   17MOL   C69512247   1.543   7.477   4.642  0.2232 -0.2920 -0.3750
   17MOL   O69612248   1.508   7.493   4.529  0.4590  0.6398  0.1138
   17MOL   C69712249   1.690   7.501   4.686 -0.1763  0.0123  0.0205
   17MOL   C69812250   1.753   7.366   4.713  0.4791  0.3719  0.0149
   17MOL   C69912251   1.767   7.569   4.565 -0.4545  0.0573  0.4534
   17MOL   H70012252   0.591   7.482   5.206 -2.4848 -0.7373  0.6877
   17MOL   H70112253   0.620   7.323   5.156  0.9492  1.0824  2.3275
   17MOL   H70212254   0.502   7.421   5.060 -2.3453  0.0815  3.6987
   17MOL   H70312255   0.799   7.467   5.087 -0.6288 -0.1244  0.3170
   17MOL   H70412256   0.677   7.582   5.025  0.5564  0.5513  1.4229
   17MOL   H70512257   0.624   7.464   4.841  0.7771  0.4218 -1.5387
   17MOL   H70612258   0.698   7.309   4.887 -3.7152  0.7727  1.4483
   17MOL   H70712259   0.824   7.569   4.781  2.4854 -0.2965  0.0792
   17MOL   H70812260   0.819   7.421   4.701 -0.8297 -0.0936  0.2626
   17MOL   H70912261   0.968   7.333   4.901 -0.2280  0.2943  1.4940
   17MOL   H71012262   0.968   7.501   4.946 -1.8733  0.7851 -0.4862
   17MOL   H71112263   1.068   7.358   4.680  0.7411 -1.7032  0.8040
   17MOL   H71212264   1.061   7.530   4.697  1.4582 -0.1647 -0.1923
   17MOL   H71312265   1.222   7.539   4.876 -0.5238 -0.5952 -0.4515
   17MOL   H71412266   1.231   7.356   4.881  1.1067  0.6005  1.5356
   17MOL   H71512267   1.307   7.543   4.657  2.0186 -2.3798 -3.0456
   17MOL   H71612268   1.292   7.371   4.633  0.0765  1.2308 -2.1341
   17MOL   H71712269   1.710   7.320   4.802  0.5473  0.9049  0.3227
   17MOL   H71812270   1.733   7.289   4.638  1.4539  2.6508 -2.6877
   17MOL   H71912271   1.862   7.368   4.717  0.4776  1.9308 -0.5717
   17MOL   H72012272   1.725   7.669   4.566  1.0183  0.7069 -0.4172
   17MOL   H72112273   1.745   7.534   4.465  2.4709  0.9678 -0.5578
   17MOL   H72212274   1.875   7.572   4.585  0.0140 -2.5894 -1.4734
   18MOL     C112275   5.724   0.378   7.745 -0.6028 -0.0153 -0.9908
   18MOL     C212276   5.860   0.374   7.670  0.0427  0.0002 -0.1470
   18MOL     C312277   5.873   0.464   7.547  1.0348 -0.2385  0.1576
   18MOL     C412278   5.943   0.401   7.423 -0.4919  0.4961 -0.7019
   18MOL     C512279   5.923   0.487   7.297 -0.4238 -0.0336  0.8169
   18MOL     C612280   6.007   0.431   7.183 -0.1054 -0.0874 -0.0386
   18MOL     C712281   6.013   0.534   7.063 -0.5069 -0.1351 -0.7764
   18MOL     C812282   6.101   0.484   6.960  0.1794 -0.0544  0.2859
   18MOL     O912283   6.023   0.383   6.888 -0.3056 -0.3082  0.4596
   18MOL    C1012284   6.003   0.386   6.757 -0.6829 -0.2152  0.9154
   18MOL    O1112285   6.025   0.490   6.685 -0.9338  0.0100  0.1441
   18MOL    C1212286   5.944   0.257   6.718 -0.0373 -0.1999 -0.1865
   18MOL    C1312287   5.801   0.266   6.663 -0.5147  0.0318 -0.8013
   18MOL    C1412288   6.034   0.177   6.618 -0.2631  0.6058 -0.1449
   18MOL    H1512289   5.644   0.325   7.692  0.5240 -2.9483  0.1810
   18MOL    H1612290   5.681   0.477   7.761  0.1226  0.2725 -0.8290
   18MOL    H1712291   5.742   0.327   0.060  3.0639 -0.4660 -1.8727
   18MOL    H1812292   5.883   0.272   7.639  0.2492  0.6141 -2.1248
   18MOL    H1912293   5.942   0.391   7.740 -0.5579 -3.1920  1.3924
   18MOL    H2012294   5.773   0.475   7.506  0.0669 -3.2916  1.5650
   18MOL    H2112295   5.914   0.562   7.570  1.6309 -0.2001 -1.0339
   18MOL    H2212296   6.049   0.398   7.447 -0.5432  0.4738 -0.4740
   18MOL    H2312297   5.917   0.300   7.389 -1.1581  0.8402 -1.2425
   18MOL    H2412298   5.937   0.591   7.327 -0.7101 -0.4575  2.4593
   18MOL    H2512299   5.817   0.483   7.275 -0.6616  3.8495  0.8506
   18MOL    H2612300   5.961   0.334   7.163 -0.2919 -0.2058  0.9284
   18MOL    H2712301   6.108   0.409   7.220 -0.8166 -0.1682  1.9285
   18MOL    H2812302   6.042   0.635   7.093  1.3857 -1.1192  0.8108
   18MOL    H2912303   5.915   0.537   7.016 -1.0292 -1.6728  0.1976
   18MOL    H3012304   6.189   0.428   6.993 -0.4325 -0.7718  0.7255
   18MOL    H3112305   6.132   0.559   6.887 -3.2480 -0.5423 -1.7930
   18MOL    H3212306   5.755   0.172   6.697  1.1659 -0.4854  0.0814
   18MOL    H3312307   5.751   0.351   6.710 -4.5735 -1.2362 -2.6008
   18MOL    H3412308   5.796   0.272   6.555 -1.8976  1.4209 -0.6894
   18MOL    H3512309   6.062   0.232   6.528 -1.4902 -0.3211 -1.0941
   18MOL    H3612310   5.967   0.101   6.578  0.3618  0.0055 -0.0751
   18MOL    H3712311   5.950   0.194   6.807  0.6177 -0.2293 -0.2478
   18MOL    C3812312   5.572   7.285   6.432  0.5831  0.4170 -0.2780
   18MOL    C3912313   5.562   7.310   6.578  0.4911 -0.2743  0.5121
   18MOL    C4012314   5.682   7.391   6.632 -0.1878 -0.3038 -0.1200
   18MOL    C4112315   5.691   7.393   6.786  0.1430 -0.5248 -0.1041
   18MOL    C4212316   5.811   7.465   6.838 -0.9425  0.2237  0.1414
   18MOL    C4312317   5.779   7.613   6.853 -0.1246  0.4084  0.5627
   18MOL    C4412318   5.866   7.693   6.949  0.3775  0.2814  0.1557
   18MOL    C4512319   6.020   7.663   6.938  0.7128 -0.2568  1.3133
   18MOL    O4612320   6.060   7.721   6.811  0.5714 -0.0161  0.2752
   18MOL    C4712321   6.139   0.052   6.807  0.0734  0.0273  0.1433
   18MOL    O4812322   6.169   0.121   6.903 -0.2325  0.1742  0.3966
   18MOL    C4912323   6.166   0.101   6.670  0.3856 -0.0817  0.2521
   18MOL    C5012324   6.281   0.203   6.689  1.0157 -0.7638  0.1447
   18MOL    C5112325   6.202   7.771   6.563  0.2718  0.3542 -0.1981
   18MOL    H5212326   5.579   7.384   6.386  0.0532  0.6993  0.2425
   18MOL    H5312327   5.486   7.238   6.384  0.2936  0.9216 -0.2586
   18MOL    H5412328   5.654   7.219   6.405  1.3836  1.1356  0.3813
   18MOL    H5512329   5.558   7.217   6.635 -3.1602 -1.4887 -1.5773
   18MOL    H5612330   5.478   7.376   6.597  0.3615 -0.0099 -0.9868
   18MOL    H5712331   5.766   7.346   6.578  0.1090  0.6044 -0.4183
   18MOL    H5812332   5.668   7.493   6.598 -0.9995 -0.8767 -1.5433
   18MOL    H5912333   5.717   7.289   6.809  0.1972 -0.3928  0.4370
   18MOL    H6012334   5.596   7.427   6.827 -0.0279 -0.1150 -0.8344
   18MOL    H6112335   5.843   7.430   6.936 -0.3472  1.7129  0.4791
   18MOL    H6212336   5.893   7.435   6.772 -0.9827 -1.0394  0.6423
   18MOL    H6312337   5.790   7.658   6.754  1.8468  0.0181  0.5802
   18MOL    H6412338   5.680   7.629   6.894 -0.3099 -1.4134  0.8374
   18MOL    H6512339   5.826   7.674   7.048 -1.4780 -1.3063 -0.8778
   18MOL    H6612340   5.856   0.022   6.941  0.6001  0.1637 -1.9035
   18MOL    H6712341   6.042   7.557   6.929  1.7105  0.0986 -0.7262
   18MOL    H6812342   6.076   7.701   7.023  0.6650 -0.8260  1.6026
   18MOL    H6912343   6.365   0.151   6.736  1.3863 -1.8948 -1.7283
   18MOL    H7012344   6.331   0.234   6.597 -0.5067 -2.5909 -1.3522
   18MOL    H7112345   6.260   0.292   6.747 -0.8353 -1.5429  0.6865
   18MOL    H7212346   6.188   0.034   6.463  0.5873 -1.0245 -0.8411
   18MOL    H7312347   6.113   7.711   6.582 -0.0632  0.8305 -0.2497
   18MOL    C7412348   7.252   0.034   5.961  0.3401 -0.7645 -0.3456
   18MOL    C7512349   7.155   0.036   6.083 -0.2614 -0.5268 -0.2852
   18MOL    C7612350   7.012   0.003   6.035  0.3144 -0.5415 -0.0322
   18MOL    C7712351   6.908   0.034   6.144  0.0214 -0.5712  0.1211
   18MOL    C7812352   6.795   7.711   6.146  1.0067 -0.5383 -0.1508
   18MOL    C7912353   6.684   7.743   6.254 -0.0315  0.3652 -0.2205
   18MOL    C8012354   6.601   0.093   6.235  0.2577  0.6799  0.2692
   18MOL    C8112355   6.530   0.149   6.365  0.0681 -0.5837 -0.5182
   18MOL    O8212356   6.428   0.058   6.412 -0.0594  0.2871 -0.8880
   18MOL    C8312357   6.458   7.764   6.524 -0.3081  0.3710  0.4226
   18MOL    O8412358   6.559   7.765   6.584  0.4813 -0.3374 -0.0929
   18MOL    C8512359   6.332   7.684   6.569  0.5323 -0.3251  0.3442
   18MOL    C8612360   6.372   7.627   6.707  0.4562  0.1238  0.4334
   18MOL    C8712361   6.326   7.568   6.462  0.2305 -0.1223  0.0635
   18MOL    H8812362   7.207   0.079   5.873  0.7756 -1.2306 -0.8109
   18MOL    H8912363   7.280   7.713   5.932  1.7650  0.3884 -3.1410
   18MOL    H9012364   7.342   0.089   5.989 -0.1576 -1.0913  2.0467
   18MOL    H9112365   7.159   0.132   6.134 -0.7830 -0.6477 -0.0162
   18MOL    H9212366   7.192   7.741   6.154 -1.4208 -1.1359 -0.3200
   18MOL    H9312367   6.987   0.068   5.951  1.2279  1.7480  1.4149
   18MOL    H9412368   7.013   7.679   5.999  1.8629 -0.8966  0.9943
   18MOL    H9512369   6.885   0.139   6.127 -0.9603 -0.8110 -0.0400
   18MOL    H9612370   6.951   0.029   6.244  1.5072  0.9747 -0.4139
   18MOL    H9712371   6.740   7.698   6.053  0.1604  1.2133  0.0824
   18MOL    H9812372   6.836   7.613   6.171 -1.6243 -1.1682  2.0088
   18MOL    H9912373   6.607   7.666   6.254  0.0401  0.2732 -2.0959
   18MOL   H10012374   6.738   7.744   6.349  0.2187 -3.9513 -0.2318
   18MOL   H10112375   6.674   0.173   6.231  0.3149  0.6516  0.6634
   18MOL   H10212376   6.535   0.103   6.149  0.7835 -1.1272 -0.3717
   18MOL   H10312377   6.480   0.242   6.338  1.9001  0.4724 -0.4019
   18MOL   H10412378   6.599   0.188   6.440 -0.1568  0.8537 -1.0386
   18MOL   H10512379   6.424   7.704   6.764  1.0286  1.8582 -2.3393
   18MOL   H10612380   6.445   7.546   6.698  1.2520  0.8131  0.6538
   18MOL   H10712381   6.283   7.588   6.757 -1.2420  0.0726 -2.5415
   18MOL   H10812382   6.375   7.605   6.372 -1.7551  2.1665 -0.1350
   18MOL   H10912383   6.393   7.494   6.504  0.0358 -0.0704  0.4736
   18MOL   C11012384   5.863   7.025   6.129 -0.1949  0.7833 -0.2767
   18MOL   C11112385   5.903   6.937   6.249 -0.0406 -0.2216 -0.1235
   18MOL   C11212386   6.057   6.922   6.267 -0.3808 -0.1169 -0.0737
   18MOL   C11312387   6.109   6.834   6.387  0.2993 -0.6211  0.0775
   18MOL   C11412388   6.075   6.896   6.522  0.0981 -0.0400  0.0430
   18MOL   C11512389   6.150   7.023   6.558 -0.0144  0.1082 -0.2812
   18MOL   C11612390   6.043   7.123   6.618  0.8998 -0.3759  0.5500
   18MOL   C11712391   6.109   7.237   6.697  0.2522 -0.2909  0.1015
   18MOL   O11812392   6.173   7.330   6.599  0.3585 -0.2474  0.9425
   18MOL   C11912393   6.110   7.432   6.539 -0.3744  0.2154 -0.9206
   18MOL   O12012394   6.003   7.478   6.571  0.0591  1.3001 -0.2231
   18MOL   C12112395   6.193   7.485   6.420  0.2011 -0.2072  0.8015
   18MOL   C12212396   6.252   7.371   6.330 -0.0758 -0.2483  0.0272
   18MOL   C12312397   6.104   7.580   6.322  0.1320  0.9315  0.3973
   18MOL   H12412398   5.760   6.995   6.109  0.3882 -1.1234 -0.5209
   18MOL   H12512399   5.858   7.127   6.168  0.4386  0.5391  0.4431
   18MOL   H12612400   5.924   7.017   6.039 -0.8422 -0.6604 -0.5989
   18MOL   H12712401   5.864   6.836   6.240 -0.4678 -0.0023 -0.8179
   18MOL   H12812402   5.863   6.979   6.341  1.3567 -1.9188  1.3112
   18MOL   H12912403   6.106   7.020   6.262 -0.0266 -0.3038 -0.2941
   18MOL   H13012404   6.098   6.871   6.180 -0.8267 -1.1450  0.3161
   18MOL   H13112405   6.062   6.735   6.384  1.5367 -1.1813 -1.3204
   18MOL   H13212406   6.214   6.808   6.380  0.6307  0.9340 -0.7630
   18MOL   H13312407   6.110   6.818   6.589  0.1159 -1.4125 -1.5520
   18MOL   H13412408   5.967   6.912   6.525 -0.0453 -1.1569  0.8239
   18MOL   H13512409   6.222   7.001   6.636 -1.1138 -1.6969  0.2469
   18MOL   H13612410   6.199   7.074   6.475 -3.1979  1.2161 -1.5678
   18MOL   H13712411   5.997   7.052   6.687  0.6444  0.6252  1.4333
   18MOL   H13812412   5.966   7.167   6.555  0.9005 -3.3002 -1.6208
   18MOL   H13912413   6.035   7.297   6.749  0.4103 -0.2368  0.2659
   18MOL   H14012414   6.179   7.186   6.764  0.7348  0.7719  0.4192
   18MOL   H14112415   6.280   7.418   6.236  0.4389  3.4965  1.9593
   18MOL   H14212416   6.335   7.317   6.375  0.7135  0.4963 -0.5111
   18MOL   H14312417   6.175   7.298   6.308 -0.8075  1.0061 -1.6723
   18MOL   H14412418   6.180   7.628   6.259 -0.7794  2.6044  0.5682
   18MOL   H14512419   6.063   7.662   6.380 -0.6201  1.6849 -1.1735
   18MOL   C14612420   6.881   7.640   5.665  0.3277 -0.1312 -0.0631
   18MOL   C14712421   6.777   7.727   5.592  0.5062  0.0410 -0.4900
   18MOL   C14812422   6.663   0.001   5.678  0.0624 -0.1759 -0.0630
   18MOL   C14912423   6.569   7.682   5.741  0.4302  0.2159  0.4828
   18MOL   C15012424   6.480   7.740   5.853 -0.1498  0.0496 -0.7586
   18MOL   C15112425   6.398   7.636   5.928  0.9026  0.8936 -0.3551
   18MOL   C15212426   6.278   7.590   5.847 -0.9434  0.0779 -0.5378
   18MOL   C15312427   6.190   7.484   5.906  0.4478 -0.2041  0.7853
   18MOL   O15412428   6.134   7.538   6.027  0.0575  0.0184  0.7085
   18MOL   C15512429   6.053   7.462   6.101  0.3231 -0.3075 -0.6610
   18MOL   O15612430   6.026   7.344   6.072  0.3438 -0.1896  0.0705
   18MOL   C15712431   5.989   7.530   6.221 -0.0958 -0.4643 -0.8645
   18MOL   C15812432   5.885   7.433   6.292 -0.6889  0.4589 -0.6151
   18MOL   C15912433   5.891   7.647   6.188  0.1296 -0.7426  0.2571
   18MOL   H16012434   6.942   7.601   5.585  1.2665  0.0087  0.5688
   18MOL   H16112435   6.844   7.550   5.714 -0.6789  0.1867 -0.2116
   18MOL   H16212436   6.931   7.715   5.726  0.6898  0.2275 -0.8018
   18MOL   H16312437   6.829   0.027   5.538  0.4902 -0.8423 -1.8214
   18MOL   H16412438   6.727   7.664   5.519 -2.3715 -0.4194  1.8233
   18MOL   H16512439   6.600   0.061   5.613  0.1644 -0.8708 -0.8106
   18MOL   H16612440   6.707   0.056   5.761 -0.8521  2.0977 -1.0471
   18MOL   H16712441   6.497   7.647   5.667 -0.7122  0.9903  1.2243
   18MOL   H16812442   6.620   7.594   5.782 -0.5908 -0.3680  0.5198
   18MOL   H16912443   6.418   0.043   5.817 -1.0573 -0.0088  0.6473
   18MOL   H17012444   6.553   7.779   5.923 -1.9006 -1.8406  2.2245
   18MOL   H17112445   6.363   7.667   6.026  0.1474 -2.1118  0.4008
   18MOL   H17212446   6.459   7.549   5.952  0.5868  0.4201 -1.2197
   18MOL   H17312447   6.216   7.674   5.815 -0.2791  0.5780 -0.5104
   18MOL   H17412448   6.313   7.539   5.756 -0.5690 -0.3768 -0.1406
   18MOL   H17512449   6.100   7.463   5.848 -0.8866 -0.3064  2.8698
   18MOL   H17612450   6.230   7.385   5.932  3.9917  1.1434  0.7160
   18MOL   H17712451   5.843   7.465   6.387 -2.0363 -3.0353  0.0426
   18MOL   H17812452   5.944   7.345   6.317  1.3554  2.0750  0.4305
   18MOL   H17912453   5.800   7.390   6.240 -1.2419  0.6750  0.1053
   18MOL   H18012454   5.871   7.698   6.282 -0.5383 -1.8767  0.7282
   18MOL   H18112455   5.796   7.605   6.153 -0.7724  0.9494  0.6190
   18MOL   C18212456   6.737   0.483   5.539 -0.5819  0.4988 -0.4731
   18MOL   C18312457   6.650   0.357   5.567 -0.1067  0.5294 -0.4218
   18MOL   C18412458   6.507   0.396   5.590  0.8099  0.4838 -0.4248
   18MOL   C18512459   6.418   0.281   5.633 -0.6386 -0.0689 -0.2695
   18MOL   C18612460   6.269   0.315   5.655 -0.3636 -0.2174 -0.1071
   18MOL   C18712461   6.180   0.189   5.694 -0.4446 -0.7517  0.5221
   18MOL   C18812462   6.026   0.207   5.689 -0.0218 -0.5924 -0.1400
   18MOL   C18912463   5.961   0.075   5.730  0.3727 -0.0331  0.3791
   18MOL   O19012464   5.959   0.068   5.870  0.3879  0.0395  0.7138
   18MOL   C19112465   5.916   7.741   5.941 -0.0250  0.6202  0.2182
   18MOL   O19212466   5.860   7.644   5.890  0.1851  0.2299 -0.4608
   18MOL   C19312467   5.922   7.774   6.092 -0.4385 -0.8651 -0.0161
   18MOL   C19412468   6.057   0.057   6.133  0.4586  0.1232 -0.0729
   18MOL   C19512469   5.821   0.112   6.131 -0.1461 -0.9314  0.1786
   18MOL   H19612470   6.739   0.504   5.432  0.8486  2.8491  0.0026
   18MOL   H19712471   6.684   0.564   5.589 -0.5158  0.3077 -0.0868
   18MOL   H19812472   6.839   0.462   5.570  0.2333  4.8678 -0.0176
   18MOL   H19912473   6.680   0.305   5.658 -1.4394 -1.2810 -0.9740
   18MOL   H20012474   6.656   0.288   5.483 -1.1555 -1.5614  1.1486
   18MOL   H20112475   6.495   0.465   5.674  0.5020  0.0712 -0.1311
   18MOL   H20212476   6.470   0.444   5.500  0.8253 -2.1354 -1.8652
   18MOL   H20312477   6.431   0.209   5.553  0.0924  0.1229 -0.3284
   18MOL   H20412478   6.461   0.234   5.722 -0.1822  1.4647  0.3438
   18MOL   H20512479   6.239   0.342   5.554 -1.6661  1.2519  0.6585
   18MOL   H20612480   6.268   0.390   5.733 -0.3911 -0.4097  0.0791
   18MOL   H20712481   6.219   0.165   5.793 -0.6704  1.5906  1.2007
   18MOL   H20812482   6.214   0.107   5.631  1.6666  0.9254 -0.5701
   18MOL   H20912483   5.994   0.290   5.752  0.7733  0.7293 -1.4407
   18MOL   H21012484   5.992   0.237   5.590 -1.7053  0.2584  0.6765
   18MOL   H21112485   6.015   7.772   5.683  0.5297 -0.2039  0.8546
   18MOL   H21212486   5.857   0.061   5.701  0.8226 -0.8958 -0.9070
   18MOL   H21312487   6.066   0.068   6.241  0.9382 -1.1554  0.0160
   18MOL   H21412488   6.135   7.773   6.092  2.1254  1.4962  0.9126
   18MOL   H21512489   6.067   0.150   6.077  2.6130 -0.5181 -0.7692
   18MOL   H21612490   5.846   0.151   6.230 -2.0168  1.6503 -0.2874
   18MOL   H21712491   5.846   0.192   6.062 -2.1256  0.6321  1.2092
   18MOL   C21812492   5.017   7.388   6.911  0.0955 -0.2917  0.1479
   18MOL   C21912493   5.141   7.482   6.900  0.2653 -0.0321 -0.1710
   18MOL   C22012494   5.163   7.545   6.759  0.2381 -0.1371 -0.1415
   18MOL   C22112495   5.276   7.645   6.763  0.0327 -0.3278 -0.3569
   18MOL   C22212496   5.337   7.683   6.624  0.0860  0.3117 -0.4022
   18MOL   C22312497   5.427   0.027   6.645 -0.1328  0.5834 -0.5974
   18MOL   C22412498   5.511   0.063   6.523  0.5348 -0.0422 -0.4108
   18MOL   C22512499   5.618   7.741   6.473  1.4246  0.2062 -0.9174
   18MOL   O22612500   5.676   0.024   6.360 -0.0916  0.3080  0.0482
   18MOL   C22712501   5.611   0.001   6.241  0.3465  0.4018  0.4921
   18MOL   O22812502   5.515   7.706   6.216 -0.1977 -0.6572 -0.0058
   18MOL   C22912503   5.658   0.106   6.129 -0.1703 -0.5058 -0.1203
   18MOL   C23012504   5.611   0.060   5.989 -0.3157 -0.0423  1.0795
   18MOL   C23112505   5.597   0.247   6.169  0.2616  0.2459  0.6219
   18MOL   H23212506   4.966   7.385   7.008 -0.6179 -2.7610 -0.2810
   18MOL   H23312507   5.045   7.286   6.885 -1.5660 -0.7570  0.0936
   18MOL   H23412508   4.947   7.414   6.831  0.6911  0.6468 -0.0760
   18MOL   H23512509   5.235   7.438   6.933  0.9358  1.0138 -0.6383
   18MOL   H23612510   5.122   7.568   6.964 -0.4671 -0.3090 -0.0165
   18MOL   H23712511   5.184   7.461   6.692 -1.1522 -2.0995  1.8219
   18MOL   H23812512   5.072   7.583   6.713  0.7252 -0.8188 -1.7370
   18MOL   H23912513   5.233   7.732   6.814  2.7338  1.6180 -1.2498
   18MOL   H24012514   5.357   7.608   6.827 -1.1921  0.2207  1.5439
   18MOL   H24112515   5.396   7.595   6.598 -1.0436 -0.1585 -1.4322
   18MOL   H24212516   5.261   7.708   6.550  0.5157  0.8811 -0.6458
   18MOL   H24312517   5.357   0.110   6.658 -1.1589 -0.3099 -0.3401
   18MOL   H24412518   5.488   0.023   6.736 -1.1412  0.4673  0.0786
   18MOL   H24512519   5.568   0.156   6.536  2.1014 -0.8562 -1.2447
   18MOL   H24612520   5.442   0.081   6.440 -0.5955 -3.0548 -0.1664
   18MOL   H24712521   5.574   7.642   6.456 -0.7653  1.1311 -0.7987
   18MOL   H24812522   5.688   7.732   6.556 -2.2821  0.0199  2.3618
   18MOL   H24912523   5.664   0.104   5.905 -1.3683  0.2479  0.5625
   18MOL   H25012524   5.505   0.083   5.989 -0.6129 -1.2579 -1.1717
   18MOL   H25112525   5.622   7.731   5.986 -3.0418 -0.2955 -2.0809
   18MOL   H25212526   5.490   0.231   6.159  0.4897 -0.1989 -1.3248
   18MOL   H25312527   5.598   0.255   6.277  0.0981  0.6063  0.5961
   18MOL   C25412528   4.957   0.907   5.493 -0.6697  0.8741 -0.1119
   18MOL   C25512529   5.056   0.857   5.598  0.2483  0.1185  0.1788
   18MOL   C25612530   5.102   0.710   5.565  0.4381 -0.1445  0.3065
   18MOL   C25712531   5.208   0.660   5.669  0.0449 -0.1307  0.4520
   18MOL   C25812532   5.262   0.522   5.630  0.4608 -0.6610 -0.0211
   18MOL   C25912533   5.386   0.486   5.695  0.0700  0.1062 -0.7189
   18MOL   C26012534   5.420   0.341   5.680 -0.3728  0.3365  0.0424
   18MOL   C26112535   5.551   0.315   5.733 -0.1344  0.2086 -0.2908
   18MOL   O26212536   5.552   0.325   5.877 -0.9883  0.4436 -0.1463
   18MOL   C26312537   5.660   0.366   5.951 -0.0873  0.1682 -0.4364
   18MOL   O26412538   5.767   0.379   5.896  0.1768 -0.7546  0.7794
   18MOL   C26512539   5.635   0.380   6.102  0.2640 -0.5886 -0.0006
   18MOL   C26612540   5.746   0.449   6.178  0.3892 -0.4868  0.1461
   18MOL   C26712541   5.511   0.472   6.116 -0.1480 -0.5346  0.2364
   18MOL   H26812542   4.887   0.828   5.466 -0.8180  0.8653  0.2959
   18MOL   H26912543   4.919   1.007   5.512  0.5485  0.8869  2.4075
   18MOL   H27012544   5.015   0.907   5.401 -0.2102  0.2159  0.1715
   18MOL   H27112545   5.146   0.918   5.588  1.5886 -1.5564  1.7170
   18MOL   H27212546   5.012   0.875   5.696  2.1668  0.7674  0.9449
   18MOL   H27312547   5.150   0.713   5.467 -1.1962 -1.5143 -0.5644
   18MOL   H27412548   5.028   0.631   5.555 -1.6555  1.7854  0.3512
   18MOL   H27512549   5.159   0.659   5.766 -0.4766 -1.3605  0.1853
   18MOL   H27612550   5.292   0.727   5.685 -0.7145  0.2041  3.2753
   18MOL   H27712551   5.180   0.455   5.657  0.4747 -0.3821  0.7138
   18MOL   H27812552   5.254   0.522   5.521 -0.0811 -2.9293  0.0010
   18MOL   H27912553   5.388   0.511   5.801 -1.9489 -0.5165 -0.5167
   18MOL   H28012554   5.464   0.545   5.647 -0.6996  0.4116 -1.6073
   18MOL   H28112555   5.339   0.281   5.722 -0.2391 -0.2785 -0.5686
   18MOL   H28212556   5.430   0.325   5.573 -1.5550  0.3632 -0.0794
   18MOL   H28312557   5.588   0.216   5.707 -1.5113 -0.0193 -1.4251
   18MOL   H28412558   5.627   0.385   5.697 -1.5791  1.6795 -0.5399
   18MOL   H28512559   5.772   0.546   6.134  1.2336 -0.7166  0.1150
   18MOL   H28612560   5.716   0.467   6.281 -0.9179  0.5013 -0.3925
   18MOL   H28712561   5.839   0.394   6.168  2.2630  2.4765  0.4209
   18MOL   H28812562   5.462   0.456   6.212  1.8919  0.6430  1.4987
   18MOL   H28912563   5.436   0.434   6.045 -0.2278  1.8126 -0.9889
   18MOL   C29012564   5.486   0.534   7.335 -0.2724  0.4736  0.8814
   18MOL   C29112565   5.521   0.630   7.221  0.7325 -0.3145  0.2004
   18MOL   C29212566   5.543   0.565   7.086  0.0520 -0.2593  0.2172
   18MOL   C29312567   5.580   0.669   6.980 -0.4960 -0.5003  0.8650
   18MOL   C29412568   5.579   0.602   6.844  0.2387  0.3195 -0.0351
   18MOL   C29512569   5.604   0.681   6.719 -0.1605  0.1393  0.2675
   18MOL   C29612570   5.572   0.608   6.589 -0.5945 -0.4252 -0.0763
   18MOL   C29712571   5.578   0.702   6.463  0.4892  0.3787 -0.4406
   18MOL   O29812572   5.532   0.640   6.345  0.4276  0.7234 -0.0362
   18MOL   C29912573   5.577   0.695   6.225  0.5914 -0.0469 -0.5993
   18MOL   O30012574   5.662   0.790   6.214 -0.0674 -0.1048 -0.1679
   18MOL   C30112575   5.518   0.631   6.099 -0.1303 -0.2487  0.3141
   18MOL   C30212576   5.597   0.676   5.971 -0.2087  0.1818  0.4106
   18MOL   C30312577   5.369   0.669   6.057  0.3251 -0.0807 -0.0257
   18MOL   H30412578   5.555   0.449   7.337 -1.1379 -0.2994 -0.7163
   18MOL   H30512579   5.385   0.493   7.333  0.4601 -1.3788  0.5051
   18MOL   H30612580   5.508   0.580   7.431  1.5422  0.8086  0.3383
   18MOL   H30712581   5.612   0.682   7.252  0.7955  0.3633 -1.0926
   18MOL   H30812582   5.444   0.707   7.220  1.2494  0.1968 -0.4110
   18MOL   H30912583   5.449   0.522   7.051  0.1524 -0.4146  0.1364
   18MOL   H31012584   5.613   0.483   7.104 -2.3324 -2.5081 -0.3574
   18MOL   H31112585   5.507   0.750   6.977  2.1261  1.8967 -0.8756
   18MOL   H31212586   5.674   0.713   7.014  0.1832 -0.1724 -1.3569
   18MOL   H31312587   5.654   0.524   6.859 -0.5494 -0.3873  0.2181
   18MOL   H31412588   5.483   0.557   6.819  0.1456  0.8905 -0.7255
   18MOL   H31512589   5.709   0.709   6.716 -0.2206  0.2680 -1.6303
   18MOL   H31612590   5.541   0.769   6.734 -0.2927  0.0717  0.1103
   18MOL   H31712591   5.474   0.562   6.596  0.1100 -2.1983 -1.4319
   18MOL   H31812592   5.642   0.525   6.579 -0.2436 -0.4444  2.3304
   18MOL   H31912593   5.682   0.732   6.455  0.7858 -0.9688 -1.6562
   18MOL   H32012594   5.522   0.795   6.475  1.0747  0.8018 -0.9585
   18MOL   H32112595   5.624   0.781   5.960  3.2387 -0.8109 -1.4732
   18MOL   H32212596   5.535   0.653   5.884  1.8512 -0.3494 -0.9605
   18MOL   H32312597   5.695   0.634   5.951 -0.6095 -1.2093  1.2697
   18MOL   H32412598   5.378   0.756   5.992  1.7014  1.1719  1.8170
   18MOL   H32512599   5.336   0.590   5.989  2.4282  0.9319 -2.2923
   18MOL   C32612600   5.094   7.392   6.310  0.2949  0.3556 -0.7477
   18MOL   C32712601   5.010   7.493   6.391 -0.3275 -0.0112  0.0953
   18MOL   C32812602   5.007   7.638   6.333 -0.0587  0.0508  0.0477
   18MOL   C32912603   4.932   7.740   6.432  0.0028 -0.0704  0.6683
   18MOL   C33012604   4.909   0.092   6.369  0.1392 -0.7319  0.3621
   18MOL   C33112605   5.044   0.163   6.341  0.0944 -0.1734 -0.3231
   18MOL   C33212606   5.048   0.303   6.289  0.1270 -0.4943 -0.0704
   18MOL   C33312607   5.189   0.363   6.301 -0.1497 -0.7760 -0.0917
   18MOL   O33412608   5.203   0.474   6.204  0.2349 -0.0580 -0.2244
   18MOL   C33512609   5.226   0.598   6.253 -0.4059  0.0741 -0.7246
   18MOL   O33612610   5.223   0.627   6.371 -0.3818 -0.3592  0.0494
   18MOL   C33712611   5.243   0.702   6.142 -0.4831  0.3782 -0.9853
   18MOL   C33812612   5.270   0.841   6.206 -0.5530 -0.5341 -0.5515
   18MOL   C33912613   5.116   0.707   6.046  0.0785 -0.8688  0.5124
   18MOL   H34012614   5.195   7.425   6.336  0.0963 -0.5778  1.3193
   18MOL   H34112615   5.065   7.401   6.206 -0.3440  1.3162 -0.4883
   18MOL   H34212616   5.067   7.295   6.352  0.4099  0.3960 -0.5790
   18MOL   H34312617   5.040   7.490   6.496 -0.0727  1.0599  0.0557
   18MOL   H34412618   4.909   7.454   6.391 -0.5693  0.6181 -0.1577
   18MOL   H34512619   4.955   7.623   6.239 -1.0444 -1.8308  0.8591
   18MOL   H34612620   5.110   7.666   6.315 -0.4138  1.5382  0.2466
   18MOL   H34712621   4.987   7.753   6.525  0.9830  1.3126 -0.0900
   18MOL   H34812622   4.832   7.706   6.457 -0.0320  1.0169  2.0375
   18MOL   H34912623   4.865   0.080   6.271  0.7622  1.0935 -0.1738
   18MOL   H35012624   4.852   0.160   6.433 -0.3666  0.7378 -1.5958
   18MOL   H35112625   5.091   0.177   6.439 -2.7532  1.5802  0.8707
   18MOL   H35212626   5.115   0.116   6.273  1.1323 -0.2420  0.7898
   18MOL   H35312627   4.966   0.355   6.340  0.0758 -0.4404 -0.2077
   18MOL   H35412628   5.034   0.306   6.181  1.2624 -0.5896 -0.2188
   18MOL   H35512629   5.216   0.391   6.402 -1.9912  0.2835  0.1258
   18MOL   H35612630   5.263   0.288   6.272 -0.0597 -0.2966 -1.1169
   18MOL   H35712631   5.373   0.855   6.239  0.3547 -2.0734 -2.6364
   18MOL   H35812632   5.256   0.918   6.131 -1.3322 -0.6487 -0.5323
   18MOL   H35912633   5.207   0.862   6.293 -0.5489 -1.0760 -0.4190
   18MOL   H36012634   5.146   0.781   5.972 -0.0099 -0.1444  1.2011
   18MOL   H36112635   5.124   0.614   5.990  0.0622  0.2564 -1.4001
   18MOL   C36212636   4.891   1.427   5.368 -0.1929 -0.3060  0.5997
   18MOL   C36312637   4.787   1.343   5.437 -0.2161 -0.0457  0.2762
   18MOL   C36412638   4.797   1.338   5.589  0.2822  0.2412  0.2549
   18MOL   C36512639   4.703   1.260   5.672  0.5239 -0.5169 -1.0679
   18MOL   C36612640   4.733   1.254   5.821  0.0251  0.1599 -0.8083
   18MOL   C36712641   4.864   1.178   5.853  0.5561 -0.0381  0.2373
   18MOL   C36812642   4.901   1.188   6.007 -0.2326  0.3363 -0.3767
   18MOL   C36912643   5.022   1.112   6.066  0.3967  0.1635  0.2954
   18MOL   O37012644   5.001   0.975   6.038  0.2358  0.7044 -0.2001
   18MOL   C37112645   4.953   0.889   6.126 -0.6872  0.0332 -0.1346
   18MOL   O37212646   4.914   0.920   6.242  0.4144 -0.5773  0.6534
   18MOL   C37312647   4.970   0.738   6.083 -0.4847  0.1014 -0.3314
   18MOL   C37412648   4.913   0.654   6.202  0.1131  0.2396  0.3034
   18MOL   C37512649   4.892   0.698   5.943  1.1034  0.7769 -0.4041
   18MOL   H37612650   4.988   1.386   5.397  0.3474 -0.1379 -0.8888
   18MOL   H37712651   4.878   1.427   5.259 -1.0160  2.4336  0.6582
   18MOL   H37812652   4.881   1.532   5.397  1.3628  0.1610 -0.4665
   18MOL   H37912653   4.796   1.241   5.400  2.4778 -0.3682  1.6919
   18MOL   H38012654   4.693   1.387   5.404  0.7032  1.3800 -0.4706
   18MOL   H38112655   4.805   1.439   5.630  2.8309  0.4043 -0.5252
   18MOL   H38212656   4.896   1.296   5.607  0.9233  0.8934 -1.6384
   18MOL   H38312657   4.665   1.164   5.637 -1.6244 -0.9117  2.0904
   18MOL   H38412658   4.606   1.310   5.671  0.3575 -0.7087  1.4257
   18MOL   H38512659   4.732   1.356   5.859 -2.6336 -0.2010  0.1941
   18MOL   H38612660   4.655   1.200   5.875 -0.8164  0.1392 -2.0274
   18MOL   H38712661   4.953   1.211   5.799  1.3572 -0.9837  0.9467
   18MOL   H38812662   4.859   1.072   5.829 -2.5105  0.3039 -0.7995
   18MOL   H38912663   4.813   1.162   6.066  0.4650 -2.1596 -0.3743
   18MOL   H39012664   4.926   1.293   6.023  2.5116 -0.1115 -1.4206
   18MOL   H39112665   5.107   1.150   6.010  0.1758 -1.5354 -1.2312
   18MOL   H39212666   5.034   1.145   6.170  3.1843 -0.1881  0.0977
   18MOL   H39312667   4.807   0.668   6.224 -0.0510 -0.7602  0.1601
   18MOL   H39412668   4.947   0.551   6.205 -1.0626 -0.2159 -1.2989
   18MOL   H39512669   4.959   0.689   6.295  2.6364  0.6015 -1.0373
   18MOL   H39612670   4.913   0.780   5.874 -0.3038 -0.0775 -1.8758
   18MOL   H39712671   4.926   0.608   5.893  0.3260  1.8849 -3.0282
   18MOL   C39812672   4.691   7.302   6.221 -0.3373 -0.1392  0.4617
   18MOL   C39912673   4.644   7.344   6.081 -0.0944 -0.3267 -0.2474
   18MOL   C40012674   4.709   7.476   6.026  0.3872 -0.4915 -0.4027
   18MOL   C40112675   4.649   7.615   6.072 -0.1400  0.0769  0.4363
   18MOL   C40212676   4.729   7.729   6.010  0.0970 -0.4225  0.6777
   18MOL   C40312677   4.665   0.091   6.031 -0.0077  0.0876 -0.1922
   18MOL   C40412678   4.727   0.204   5.948 -0.4389 -0.2551 -0.2281
   18MOL   C40512679   4.656   0.324   6.000  0.8189  0.2466 -0.4236
   18MOL   O40612680   4.708   0.445   5.941 -0.1722 -0.4345 -0.1089
   18MOL   C40712681   4.680   0.563   5.998  0.5785 -0.2070  0.2430
   18MOL   O40812682   4.611   0.572   6.098 -0.6553  0.6070 -0.0329
   18MOL   C40912683   4.736   0.696   5.931 -0.0926  0.5110 -0.1334
   18MOL   C41012684   4.674   0.823   5.997 -0.2666  1.1484  0.0512
   18MOL   C41112685   4.696   0.690   5.775  0.2128  0.2045  0.2378
   18MOL   H41212686   4.793   7.269   6.200  0.7674  1.5875  2.8632
   18MOL   H41312687   4.626   7.223   6.260 -0.7331 -0.0492 -0.0187
   18MOL   H41412688   4.691   7.377   6.300  0.5660 -0.5209  0.8399
   18MOL   H41512689   4.542   7.373   6.107  0.1095 -0.5130  0.7619
   18MOL   H41612690   4.649   7.263   6.009  0.0105 -0.1076 -0.4899
   18MOL   H41712691   4.807   7.500   6.068 -0.0489  0.9175 -0.1344
   18MOL   H41812692   4.708   7.476   5.917 -0.4255  3.1828 -0.4637
   18MOL   H41912693   4.660   7.634   6.179  1.1982 -1.0414  0.5229
   18MOL   H42012694   4.545   7.629   6.044 -0.4295  1.2301  2.0371
   18MOL   H42112695   4.829   7.732   6.052  1.3220  1.5321 -2.1757
   18MOL   H42212696   4.744   7.705   5.904 -2.8172  0.6323 -0.0187
   18MOL   H42312697   4.687   0.117   6.134  1.4438  2.7692 -1.1147
   18MOL   H42412698   4.557   0.090   6.021 -0.1598  1.6269  0.9835
   18MOL   H42512699   4.836   0.210   5.956 -0.3779 -2.3112  0.9652
   18MOL   H42612700   4.700   0.191   5.844 -1.9826  2.3027 -0.1790
   18MOL   H42712701   4.548   0.319   5.985  0.6119  0.3785  0.9471
   18MOL   H42812702   4.663   0.330   6.109 -2.4275  0.2969 -0.1649
   18MOL   H42912703   4.565   0.830   5.997 -0.1825  2.5540  1.0887
   18MOL   H43012704   4.692   0.916   5.943 -0.5515 -0.2913 -2.6477
   18MOL   H43112705   4.695   0.831   6.103  1.4934  1.4624 -0.3062
   18MOL   H43212706   4.741   0.600   5.732 -4.1708 -0.6106 -2.9784
   18MOL   H43312707   4.758   0.761   5.721 -1.5095  1.8621  0.3937
   18MOL   C43412708   3.619   0.473   6.355  0.6503  0.7975  0.1319
   18MOL   C43512709   3.761   0.408   6.353  0.5845  0.5138 -0.2449
   18MOL   C43612710   3.868   0.503   6.295 -0.5796  0.8696  0.2754
   18MOL   C43712711   4.006   0.435   6.281  0.1261 -0.1813 -0.0677
   18MOL   C43812712   4.119   0.527   6.212  0.0523 -0.2100 -0.2848
   18MOL   C43912713   4.106   0.513   6.058  0.3170 -0.0674  0.5042
   18MOL   C44012714   4.198   0.601   5.982 -0.2429  0.2067  0.0307
   18MOL   C44112715   4.320   0.521   5.950  0.1916  0.1308 -0.3362
   18MOL   O44212716   4.384   0.610   5.859  0.1988 -0.4502 -0.1859
   18MOL   C44312717   4.471   0.575   5.755  0.0118 -0.9825 -0.4895
   18MOL   O44412718   4.468   0.461   5.710 -0.1614  0.8029  0.2293
   18MOL   C44512719   4.548   0.692   5.710 -0.2169  0.1540  0.3513
   18MOL   C44612720   4.578   0.676   5.564  0.1212  0.4086  0.4705
   18MOL   C44712721   4.475   0.829   5.737 -0.2093  0.1334 -0.3175
   18MOL   H44812722   3.541   0.401   6.381  0.3356  1.8514  2.1942
   18MOL   H44912723   3.604   0.511   6.253  2.6107 -0.2355 -0.5699
   18MOL   H45012724   3.604   0.557   6.422  0.8623  2.2700 -1.6053
   18MOL   H45112725   3.752   0.308   6.311  0.6421  0.0842  0.7460
   18MOL   H45212726   3.787   0.394   6.458  0.1325  0.0796 -0.1912
   18MOL   H45312727   3.876   0.591   6.359  2.1866 -0.0047  1.2022
   18MOL   H45412728   3.841   0.539   6.195  0.4928  2.0486  0.3891
   18MOL   H45512729   3.996   0.341   6.225 -3.6114 -0.4425  0.9488
   18MOL   H45612730   4.023   0.410   6.386 -0.9316 -0.6669  0.0012
   18MOL   H45712731   4.112   0.632   6.239  0.4114 -0.4291  0.6588
   18MOL   H45812732   4.221   0.496   6.233  0.2146  0.6698  0.2267
   18MOL   H45912733   4.009   0.534   6.013  0.0145  1.3709  1.7822
   18MOL   H46012734   4.125   0.409   6.031 -0.6923  0.1608 -1.1971
   18MOL   H46112735   4.157   0.634   5.886 -0.5814  1.4505  0.5934
   18MOL   H46212736   4.225   0.693   6.032  0.8034 -0.5116  0.8048
   18MOL   H46312737   4.295   0.431   5.895  0.3864  0.8579 -1.6398
   18MOL   H46412738   4.391   0.497   6.029 -0.7314 -1.5309  0.0106
   18MOL   H46512739   4.491   0.674   5.499  0.4475  1.1281  0.0041
   18MOL   H46612740   4.651   0.749   5.528 -0.4995  1.1019  0.6160
   18MOL   H46712741   4.632   0.582   5.546  0.0452  0.3714  0.4357
   18MOL   H46812742   4.452   0.822   5.843 -1.1200  0.1953 -0.5125
   18MOL   H46912743   4.556   0.903   5.743 -0.2130  0.0279  1.1912
   18MOL   C47012744   3.749   0.467   5.320 -0.3333  0.2710  0.9433
   18MOL   C47112745   3.762   0.607   5.258 -0.7344 -0.0086  0.6181
   18MOL   C47212746   3.903   0.649   5.243  0.2896 -0.1682  0.4916
   18MOL   C47312747   3.919   0.756   5.136 -0.2645 -0.2254 -0.4153
   18MOL   C47412748   4.060   0.793   5.095 -0.1299  0.2824  0.9600
   18MOL   C47512749   4.128   0.878   5.202 -0.1168 -0.4919  0.2476
   18MOL   C47612750   4.281   0.884   5.179  0.1325 -0.3749  0.6168
   18MOL   C47712751   4.360   0.973   5.286  0.2920  0.0484 -0.5013
   18MOL   O47812752   4.331   0.926   5.420  0.5419 -0.1404 -0.2209
   18MOL   C47912753   4.414   0.939   5.519 -0.3847 -0.2771  0.2595
   18MOL   O48012754   4.524   0.992   5.511  0.5093 -0.2364 -0.0571
   18MOL   C48112755   4.362   0.895   5.659 -0.2662  0.5146  0.2838
   18MOL   C48212756   4.243   0.802   5.637 -0.3945 -0.1728  0.3130
   18MOL   C48312757   4.327   1.023   5.747  0.1833 -0.2057 -0.2308
   18MOL   H48412758   3.649   0.429   5.344  0.1563  0.4449  3.3619
   18MOL   H48512759   3.818   0.448   5.402  0.6204  0.9291  0.3027
   18MOL   H48612760   3.789   0.402   5.242 -0.1115 -1.0631  2.1609
   18MOL   H48712761   3.710   0.593   5.164  1.0220  0.8278 -0.4912
   18MOL   H48812762   3.704   0.679   5.316 -0.2688 -0.8351  2.1640
   18MOL   H48912763   3.932   0.677   5.344  0.8484 -2.2784  0.9358
   18MOL   H49012764   3.959   0.562   5.211  1.5528  1.3575 -1.5099
   18MOL   H49112765   3.860   0.743   5.046  0.6488  0.9680 -1.2067
   18MOL   H49212766   3.876   0.852   5.166  1.2600 -0.1921  1.7948
   18MOL   H49312767   4.121   0.704   5.081  0.5622  0.8071  0.6124
   18MOL   H49412768   4.055   0.839   4.997  2.3773 -5.1044 -1.8825
   18MOL   H49512769   4.091   0.980   5.190 -0.8538 -1.0059 -2.1742
   18MOL   H49612770   4.113   0.845   5.305 -2.5308 -1.4253 -0.3670
   18MOL   H49712771   4.326   0.785   5.175  2.2352  0.6051 -0.6598
   18MOL   H49812772   4.297   0.932   5.082  0.8399 -1.5521  0.1362
   18MOL   H49912773   4.329   1.077   5.293 -0.7106 -0.1533 -1.7570
   18MOL   H50012774   4.468   0.962   5.278  0.1898 -1.9249  0.4775
   18MOL   H50112775   4.194   0.791   5.734  3.3796  2.9609  2.7364
   18MOL   H50212776   4.279   0.706   5.602 -0.7021  0.4597 -1.8409
   18MOL   H50312777   4.167   0.837   5.567  2.1804  0.7441 -2.1233
   18MOL   H50412778   4.320   0.974   5.844  1.7765  0.8332  0.4298
   18MOL   H50512779   4.410   1.093   5.758 -0.3657  0.1703  1.6855
   18MOL   C50612780   3.955   1.707   6.532 -0.7572 -1.1463  0.5508
   18MOL   C50712781   3.894   1.624   6.423 -0.5522 -0.1012 -0.3713
   18MOL   C50812782   3.966   1.483   6.401 -0.0457  0.3847 -0.1501
   18MOL   C50912783   3.919   1.409   6.271 -0.2335  0.7343 -0.8392
   18MOL   C51012784   3.977   1.266   6.271  0.4266 -0.1885 -0.9873
   18MOL   C51112785   3.974   1.199   6.136  0.7064  0.2866  0.3771
   18MOL   C51212786   3.966   1.051   6.144  0.1236 -0.1569 -0.9684
   18MOL   C51312787   3.967   0.991   6.003  0.4843  0.2432 -0.3687
   18MOL   O51412788   4.079   1.035   5.932  0.3435  0.4557  0.3120
   18MOL   C51512789   4.081   1.029   5.803 -0.2362  0.1731  0.3728
   18MOL   O51612790   3.993   0.970   5.743  0.0265 -0.0358  0.2629
   18MOL   C51712791   4.192   1.110   5.741  0.1168 -0.0966  0.2116
   18MOL   C51812792   4.208   1.235   5.832  0.5474  0.0597  0.6730
   18MOL   C51912793   4.161   1.146   5.589  0.0971 -0.6610 -0.0728
   18MOL   H52012794   3.891   1.793   6.555  2.0508  1.2871 -0.4176
   18MOL   H52112795   4.056   1.733   6.501 -0.7539 -1.0488  0.6439
   18MOL   H52212796   3.966   1.646   6.622  2.2633 -1.1031  0.2570
   18MOL   H52312797   3.879   1.681   6.332 -1.3592  2.6465  1.4382
   18MOL   H52412798   3.794   1.602   6.460  0.6035  0.3580  3.1716
   18MOL   H52512799   4.073   1.479   6.384 -0.5312  0.7646 -3.6904
   18MOL   H52612800   3.934   1.423   6.486  0.8982  0.9646  0.6114
   18MOL   H52712801   3.811   1.403   6.259 -0.4173  3.2280 -0.8372
   18MOL   H52812802   3.954   1.475   6.192  2.2226 -0.3649 -0.7175
   18MOL   H52912803   4.083   1.268   6.297  0.9288 -0.4192 -2.9324
   18MOL   H53012804   3.930   1.206   6.349 -0.2858 -0.9051 -1.9597
   18MOL   H53112805   4.070   1.217   6.086  0.5880 -1.0732 -0.3888
   18MOL   H53212806   3.897   1.243   6.073  1.2714  1.7774  0.7179
   18MOL   H53312807   3.875   1.026   6.197  0.3623 -0.3315 -0.6387
   18MOL   H53412808   4.054   1.012   6.196 -0.4889  0.4829  0.5996
   18MOL   H53512809   3.874   1.023   5.956  0.8670  1.1139 -0.5486
   18MOL   H53612810   3.965   0.882   6.010 -1.3621  0.1636 -1.6696
   18MOL   H53712811   4.110   1.277   5.854  1.1527  0.9447  1.7415
   18MOL   H53812812   4.272   1.311   5.786  0.8741  0.6189  2.0483
   18MOL   H53912813   4.250   1.210   5.929 -1.3185  0.0251  1.4792
   18MOL   H54012814   4.260   1.169   5.550 -0.9267  2.5157 -0.9673
   18MOL   H54112815   4.142   1.050   5.541 -1.1212 -0.4256 -0.0754
   18MOL   C54212816   4.869   2.160   5.653 -0.0575 -0.5143  0.6637
   18MOL   C54312817   4.806   2.040   5.726  0.5279 -0.0369  0.6651
   18MOL   C54412818   4.762   1.936   5.623  0.1408 -0.2096 -0.5800
   18MOL   C54512819   4.711   1.805   5.672  0.4947 -0.0258 -0.6846
   18MOL   C54612820   4.649   1.713   5.567 -0.9318  0.3884 -0.4681
   18MOL   C54712821   4.504   1.684   5.611 -0.1563  0.9427  0.5459
   18MOL   C54812822   4.444   1.564   5.541  0.6423 -0.7000  0.7121
   18MOL   C54912823   4.301   1.539   5.586  0.2093 -0.0744  0.5467
   18MOL   O55012824   4.244   1.418   5.544 -0.4708 -0.0754 -0.4405
   18MOL   C55112825   4.120   1.393   5.583  0.2812  0.1762  0.2305
   18MOL   O55212826   4.053   1.476   5.642  0.3990 -0.4035  0.2058
   18MOL   C55312827   4.066   1.259   5.537  0.0231 -0.0012 -0.1427
   18MOL   C55412828   3.923   1.248   5.584  0.0790  1.0005 -0.1620
   18MOL   C55512829   4.077   1.240   5.381  0.3294  0.5965 -0.3685
   18MOL   H55612830   4.944   2.200   5.722 -0.7468  0.5551  0.8118
   18MOL   H55712831   4.792   2.234   5.635  0.6327 -0.1582 -0.9130
   18MOL   H55812832   4.909   2.119   5.561 -0.0348  1.7820 -0.3951
   18MOL   H55912833   4.878   1.999   5.797  1.9870  2.1096  0.4799
   18MOL   H56012834   4.721   2.080   5.781 -0.1230 -1.3795  0.6574
   18MOL   H56112835   4.848   1.902   5.566 -2.1762 -2.7102 -2.6769
   18MOL   H56212836   4.693   1.984   5.555  0.9780  1.0893 -0.5429
   18MOL   H56312837   4.775   1.754   5.744  0.4022 -0.7289 -1.0928
   18MOL   H56412838   4.635   1.836   5.745 -0.5699  0.9121 -2.1611
   18MOL   H56512839   4.710   1.624   5.559  0.0988  1.0766 -0.3507
   18MOL   H56612840   4.648   1.757   5.467  0.0714 -0.9901 -1.0894
   18MOL   H56712841   4.486   1.680   5.718 -2.1899 -1.2920  0.1588
   18MOL   H56812842   4.446   1.774   5.586 -3.1981 -0.6415  1.6380
   18MOL   H56912843   4.446   1.568   5.432  0.6584 -1.5116  0.6861
   18MOL   H57012844   4.494   1.476   5.580 -2.3408 -2.1387  1.3876
   18MOL   H57112845   4.233   1.616   5.548  1.0930  0.2532 -0.3962
   18MOL   H57212846   4.299   1.537   5.695 -2.1491 -1.3115  0.5333
   18MOL   H57312847   3.876   1.153   5.555  2.1142 -0.6374  1.6991
   18MOL   H57412848   3.860   1.327   5.544 -1.4037 -0.3649 -0.5788
   18MOL   H57512849   3.905   1.256   5.691  0.3838 -1.6324  0.1205
   18MOL   H57612850   4.027   1.147   5.355  2.3141 -0.4699 -0.4453
   18MOL   H57712851   4.178   1.203   5.362 -0.1699 -0.1244 -1.6673
   18MOL   C57812852   2.938   1.053   5.513 -0.3264 -0.2124  0.4049
   18MOL   C57912853   3.008   1.016   5.381  0.3972  0.3167  0.0056
   18MOL   C58012854   3.155   1.072   5.383 -0.5396  0.0792 -0.2255
   18MOL   C58112855   3.248   1.036   5.261  0.2565  0.3045 -0.8502
   18MOL   C58212856   3.388   1.017   5.301 -0.7377 -0.1518 -0.3482
   18MOL   C58312857   3.450   1.152   5.324  0.1035 -1.6465  0.2630
   18MOL   C58412858   3.603   1.142   5.310  0.7873  1.1102  0.4439
   18MOL   C58512859   3.659   1.278   5.312  0.0160  0.0125 -0.0903
   18MOL   O58612860   3.798   1.260   5.291  0.1705 -1.0171 -0.2209
   18MOL   C58712861   3.875   1.372   5.296  0.1173  0.2550 -0.0668
   18MOL   O58812862   3.826   1.481   5.329  0.3494  0.2026 -0.6255
   18MOL   C58912863   4.029   1.347   5.274  0.3334 -1.0685  0.7019
   18MOL   C59012864   4.045   1.263   5.144  0.2330  0.0366  0.9809
   18MOL   C59112865   4.123   1.469   5.277 -0.3651 -0.2404 -0.8779
   18MOL   H59212866   2.917   1.160   5.512 -2.2413 -0.5769 -0.3984
   18MOL   H59312867   2.999   1.022   5.598 -2.1295 -0.1481  1.7586
   18MOL   H59412868   2.836   1.018   5.533 -0.6627  1.5051  1.8580
   18MOL   H59512869   2.950   1.068   5.305  0.9322  1.8183  0.6039
   18MOL   H59612870   3.000   0.908   5.370 -0.6705  0.4554 -0.6003
   18MOL   H59712871   3.208   1.038   5.472 -0.0666  2.4957  0.4556
   18MOL   H59812872   3.152   1.181   5.391 -1.2548  0.1179 -0.8631
   18MOL   H59912873   3.247   1.106   5.178  0.1847  2.2096  0.7393
   18MOL   H60012874   3.214   0.938   5.227 -0.5723 -0.5569  2.3192
   18MOL   H60112875   3.441   0.960   5.225  1.3624  0.5653  0.5575
   18MOL   H60212876   3.398   0.956   5.391  0.0072 -0.4838 -0.6595
   18MOL   H60312877   3.420   1.202   5.416 -0.1536 -2.1087  0.4314
   18MOL   H60412878   3.414   1.223   5.250  2.0001 -0.1904  0.7132
   18MOL   H60512879   3.628   1.100   5.212  1.8465  0.0356  1.1595
   18MOL   H60612880   3.643   1.073   5.385  0.6281  1.0940  0.5151
   18MOL   H60712881   3.610   1.321   5.225 -2.3394 -1.3575  0.5167
   18MOL   H60812882   3.628   1.332   5.402 -1.1256  0.3075 -0.6587
   18MOL   H60912883   3.994   1.312   5.061 -0.0236  1.8551  2.1917
   18MOL   H61012884   4.148   1.245   5.112 -0.5891 -1.1476 -1.0951
   18MOL   H61112885   3.996   1.166   5.146 -0.5676  0.3842 -0.4748
   18MOL   H61212886   4.221   1.425   5.296  0.1770 -0.0018 -3.0747
   18MOL   H61312887   4.102   1.522   5.370 -0.2398  0.2808 -1.1457
   18MOL   C61412888   5.029   0.895   5.061  0.2452  0.6371  0.8789
   18MOL   C61512889   4.894   0.964   5.036  0.4478 -0.8004 -0.0923
   18MOL   C61612890   4.858   1.073   5.148  0.6498  0.2438  0.0055
   18MOL   C61712891   4.702   1.099   5.144  0.0133 -0.1665  0.0131
   18MOL   C61812892   4.672   1.212   5.042  0.3908 -0.7891 -0.5868
   18MOL   C61912893   4.530   1.270   5.045  0.6903 -0.2087  0.1830
   18MOL   C62012894   4.515   1.388   4.955 -0.4371 -0.3645  0.1663
   18MOL   C62112895   4.368   1.416   4.931 -0.3256  0.6565 -0.3386
   18MOL   O62212896   4.309   1.464   5.046 -0.0981  0.5437 -0.1909
   18MOL   C62312897   4.191   1.516   5.036 -0.0707  0.0901 -0.3164
   18MOL   O62412898   4.118   1.508   4.937 -0.3097  0.2230  0.0002
   18MOL   C62512899   4.138   1.580   5.168 -0.9956  0.1607  0.0603
   18MOL   C62612900   4.000   1.648   5.145 -0.7645 -0.3450 -0.1398
   18MOL   C62712901   4.253   1.677   5.215 -0.0788  0.5247 -0.7172
   18MOL   H62812902   5.112   0.961   5.035 -0.1198 -0.2205 -2.6286
   18MOL   H62912903   5.047   0.807   5.000  2.3433  1.0175  0.8913
   18MOL   H63012904   5.036   0.854   5.162 -3.1508 -0.7132  0.5950
   18MOL   H63112905   4.897   1.008   4.936 -1.0355  0.1796  0.2832
   18MOL   H63212906   4.813   0.892   5.017  0.6390 -0.4028 -2.6740
   18MOL   H63312907   4.901   1.172   5.134 -0.6236  0.9382  0.8097
   18MOL   H63412908   4.885   1.042   5.249  2.2600 -0.0607 -0.5058
   18MOL   H63512909   4.669   1.138   5.240  2.4277  2.0066  0.0274
   18MOL   H63612910   4.647   1.013   5.106  0.3567  0.0783 -1.0737
   18MOL   H63712911   4.744   1.292   5.064  1.8291 -2.6182  1.5338
   18MOL   H63812912   4.704   1.178   4.943 -2.2021  1.3541 -2.2455
   18MOL   H63912913   4.459   1.195   5.012 -0.8883  1.4234 -0.2556
   18MOL   H64012914   4.493   1.299   5.144  1.6609 -3.7976  1.6779
   18MOL   H64112915   4.566   1.378   4.859 -2.1979 -0.0859 -0.8289
   18MOL   H64212916   4.553   1.480   5.000  0.0009  0.2208 -1.3634
   18MOL   H64312917   4.358   1.484   4.846  0.1228 -1.0626 -1.8253
   18MOL   H64412918   4.319   1.323   4.901 -1.0701 -0.2060  3.3885
   18MOL   H64512919   3.929   1.579   5.099 -1.3032  0.2508 -0.2143
   18MOL   H64612920   3.999   1.722   5.065  0.2912  1.2244  1.2585
   18MOL   H64712921   3.956   1.684   5.238  1.7373  0.5421  0.7403
   18MOL   H64812922   4.344   1.617   5.220  0.4989  1.3982 -0.6997
   18MOL   H64912923   4.247   1.714   5.317  0.1867 -0.8836 -0.1800
   18MOL   C65012924   3.659   1.552   5.925  0.2839  0.0326 -0.2759
   18MOL   C65112925   3.768   1.598   5.836  0.3105  0.1033  0.1949
   18MOL   C65212926   3.795   1.749   5.809 -0.1408 -0.0265  0.2483
   18MOL   C65312927   3.914   1.751   5.713  0.6529 -0.2981  0.3209
   18MOL   C65412928   3.945   1.895   5.663  0.2478  0.3314  0.2601
   18MOL   C65512929   4.021   1.905   5.528 -0.0283 -0.1205  0.0785
   18MOL   C65612930   4.028   2.050   5.465 -0.2662  0.1725  0.0884
   18MOL   C65712931   4.060   2.047   5.314 -0.1700 -0.1139  0.0946
   18MOL   O65812932   4.151   1.942   5.283 -0.1430 -0.8300 -0.6341
   18MOL   C65912933   4.178   1.920   5.152 -0.3731  0.2489  0.1865
   18MOL   O66012934   4.125   1.979   5.058  0.0920 -0.2253  0.2005
   18MOL   C66112935   4.287   1.809   5.140 -0.7575 -0.1847 -0.0822
   18MOL   C66212936   4.318   1.796   4.989  0.6233  0.5588 -0.1623
   18MOL   C66312937   4.421   1.858   5.216  0.3900  0.5755  0.2665
   18MOL   H66412938   3.657   1.443   5.932  1.4978  0.0906  1.2761
   18MOL   H66512939   3.566   1.588   5.881  0.1366  0.5675  0.4729
   18MOL   H66612940   3.680   1.590   6.025 -1.2310 -0.5578  0.2768
   18MOL   H66712941   3.737   1.558   5.739 -1.3878 -1.1726  1.2439
   18MOL   H66812942   3.866   1.557   5.859  0.2536  0.8172  1.7484
   18MOL   H66912943   3.828   1.796   5.903  0.3258 -3.3207  1.7934
   18MOL   H67012944   3.712   1.801   5.761 -0.3290 -0.3539  0.2216
   18MOL   H67112945   3.888   1.687   5.629  3.5931 -1.0045 -0.0826
   18MOL   H67212946   3.999   1.709   5.767  0.7860  1.1851  1.3081
   18MOL   H67312947   3.995   1.960   5.734  2.2470  0.1797 -0.9670
   18MOL   H67412948   3.848   1.939   5.642 -0.0447 -0.4272 -0.0038
   18MOL   H67512949   4.118   1.856   5.527  0.0627 -0.0512  2.4661
   18MOL   H67612950   3.961   1.849   5.456 -1.0925 -0.2524  1.0407
   18MOL   H67712951   4.099   2.106   5.526  0.9653 -2.5917  1.2512
   18MOL   H67812952   3.942   2.111   5.491  0.2633  0.6564  0.7112
   18MOL   H67912953   4.105   2.144   5.295  2.5405 -1.3675  0.0102
   18MOL   H68012954   3.966   2.034   5.260 -0.3124 -1.9254  0.7555
   18MOL   H68112955   4.237   1.750   4.932 -0.2841  0.6918  0.9915
   18MOL   H68212956   4.404   1.735   4.961  0.5281  0.1978  0.3178
   18MOL   H68312957   4.337   1.892   4.941  0.0657  1.2313  0.9435
   18MOL   H68412958   4.402   1.860   5.323  0.2649 -0.5928  0.2790
   18MOL   H68512959   4.510   1.794   5.213 -0.3186 -0.5623  2.4887
   18MOL   C68612960   5.471   1.931   4.839 -0.2072  0.2676  0.2648
   18MOL   C68712961   5.407   2.075   4.847  0.3902 -0.0539  0.1636
   18MOL   C68812962   5.339   2.084   4.979 -0.1041 -0.3474  0.7000
   18MOL   C68912963   5.209   1.994   4.987  0.1542  0.5954  0.1656
   18MOL   C69012964   5.112   2.024   5.101  0.3686 -0.1367  0.1178
   18MOL   C69112965   4.987   1.940   5.111 -0.0671 -0.7124 -0.2129
   18MOL   C69212966   4.910   1.930   4.978  0.2774 -0.2336 -0.1100
   18MOL   C69312967   4.784   1.845   4.973 -0.2723  0.0351  0.6384
   18MOL   O69412968   4.688   1.876   5.078  0.5021  0.5152 -0.0844
   18MOL   C69512969   4.597   1.975   5.060  0.8124 -0.2275 -0.5912
   18MOL   O69612970   4.590   2.050   4.959  0.4113  0.6895  0.3168
   18MOL   C69712971   4.501   1.993   5.176  0.6832 -0.6703 -0.0649
   18MOL   C69812972   4.595   2.039   5.294  0.3011 -0.4098 -0.5903
   18MOL   C69912973   4.413   2.120   5.152 -0.4831  0.7748 -0.3434
   18MOL   H70012974   5.534   1.920   4.750  1.6593 -1.0377  1.7197
   18MOL   H70112975   5.404   1.845   4.836 -0.7027  0.6484  0.3222
   18MOL   H70212976   5.529   1.912   4.929  0.4735  0.8335 -0.0481
   18MOL   H70312977   5.346   2.112   4.765 -1.7312 -0.1749  1.6510
   18MOL   H70412978   5.479   2.157   4.853  2.5003 -1.9482  1.8710
   18MOL   H70512979   5.318   2.191   4.992  0.6646 -0.1389  0.2148
   18MOL   H70612980   5.415   2.047   5.047  0.0570 -1.7769 -0.2382
   18MOL   H70712981   5.242   1.892   5.004  1.1502  0.4779 -2.1960
   18MOL   H70812982   5.154   1.978   4.894 -1.2177 -3.3932  1.5742
   18MOL   H70912983   5.082   2.129   5.092  0.4191  0.1355  2.5747
   18MOL   H71012984   5.174   2.019   5.191  1.1909  1.4991 -0.3418
   18MOL   H71112985   5.010   1.837   5.138 -0.3711 -0.7909 -0.2540
   18MOL   H71212986   4.910   1.974   5.180  0.1371 -0.3463 -0.1630
   18MOL   H71312987   4.880   2.025   4.934 -0.4910 -0.6779 -0.5511
   18MOL   H71412988   4.972   1.889   4.899  0.3315 -0.0022 -0.1863
   18MOL   H71512989   4.797   1.739   4.992 -0.5632  0.3711  2.8061
   18MOL   H71612990   4.743   1.848   4.872 -0.9049 -0.1747  0.8811
   18MOL   H71712991   4.535   2.074   5.378  1.8483  0.0026  0.3770
   18MOL   H71812992   4.650   1.955   5.338  0.3259 -1.0597 -1.8518
   18MOL   H71912993   4.668   2.115   5.265 -0.1774  0.5318  0.6354
   18MOL   H72012994   4.359   2.111   5.058  2.1966  1.3003 -1.9658
   18MOL   H72112995   4.460   2.218   5.150 -0.9476  0.9917 -0.7499
   18MOL   H72212996   4.335   2.118   5.228  0.2944  0.7751  0.4619
   19MOL     C112997   1.521   0.922   4.748 -0.3249 -0.0478 -0.4675
   19MOL     C212998   1.390   0.856   4.705  0.6479  0.5886 -0.3181
   19MOL     C312999   1.375   0.705   4.731 -0.8989 -0.6618 -0.1231
   19MOL     C413000   1.251   0.638   4.695  0.1659 -0.0021  0.1678
   19MOL     C513001   1.246   0.492   4.736 -0.2070  0.3794  0.3708
   19MOL     C613002   1.104   0.436   4.727  0.4074  0.4805  0.3438
   19MOL     C713003   1.062   0.437   4.578 -0.7449 -0.3425  0.4697
   19MOL     C813004   0.925   0.370   4.567 -0.7793  0.3035  1.1244
   19MOL     O913005   0.819   0.420   4.651 -0.1672 -0.4678 -0.2686
   19MOL    C1013006   0.765   0.532   4.611 -0.1452  0.0572 -0.5491
   19MOL    O1113007   0.776   0.586   4.500  0.3064  0.1099  0.4380
   19MOL    C1213008   0.675   0.596   4.725 -0.5717  0.2120  0.3069
   19MOL    C1313009   0.741   0.716   4.784 -0.3206 -0.0204  0.5305
   19MOL    C1413010   0.539   0.630   4.661  0.1154 -0.6194  0.0082
   19MOL    H1513011   1.616   0.880   4.716  0.2593 -0.1069  1.3108
   19MOL    H1613012   1.529   0.931   4.856 -2.0928  1.5360 -0.4452
   19MOL    H1713013   1.512   1.024   4.710  2.1713 -0.1750 -1.4760
   19MOL    H1813014   1.366   0.868   4.599  0.1818  2.3907 -0.0286
   19MOL    H1913015   1.308   0.913   4.748  2.0544  1.3768  1.3643
   19MOL    H2013016   1.463   0.667   4.679 -0.0728  1.4356 -0.2957
   19MOL    H2113017   1.402   0.693   4.836  1.7124  0.6094 -0.6101
   19MOL    H2213018   1.173   0.687   4.752 -1.5131 -0.0353 -2.0431
   19MOL    H2313019   1.235   0.655   4.588 -0.3385 -0.5215  0.1627
   19MOL    H2413020   1.293   0.484   4.835  2.4123 -3.0814 -1.0353
   19MOL    H2513021   1.311   0.434   4.670 -0.6803  2.0507 -1.6255
   19MOL    H2613022   1.037   0.496   4.789  1.2141  2.4063 -0.6003
   19MOL    H2713023   1.109   0.337   4.771 -0.0689 -0.1910 -1.0651
   19MOL    H2813024   1.141   0.404   4.510  0.3428  1.9054  0.6009
   19MOL    H2913025   1.047   0.539   4.542  1.4742 -0.4690 -0.9437
   19MOL    H3013026   0.931   0.263   4.587  0.2559 -0.0014 -0.7226
   19MOL    H3113027   0.904   0.373   4.460  0.9242 -0.6242  0.7539
   19MOL    H3213028   0.661   0.776   4.826 -0.2105 -0.5591  1.5397
   19MOL    H3313029   0.803   0.667   4.860 -1.8638 -1.9801  0.5844
   19MOL    H3413030   0.798   0.781   4.718 -0.9845  1.4028  1.3322
   19MOL    H3513031   0.535   0.603   4.555  0.6529 -0.6924  0.0009
   19MOL    H3613032   0.543   0.737   4.644 -1.2421 -0.2182  2.1749
   19MOL    H3713033   0.649   0.529   4.807  1.1615 -1.0898 -0.1726
   19MOL    C3813034   0.684   0.749   5.794 -0.2459 -0.4032  0.3629
   19MOL    C3913035   0.810   0.738   5.716  0.2875  0.0416  0.3815
   19MOL    C4013036   0.796   0.695   5.567  0.0945 -0.7105 -0.1839
   19MOL    C4113037   0.733   0.804   5.478 -0.1950 -0.1737  0.2570
   19MOL    C4213038   0.725   0.770   5.325  0.1197 -0.2707  0.0421
   19MOL    C4313039   0.623   0.660   5.293 -0.1782  0.5672  0.7828
   19MOL    C4413040   0.595   0.658   5.140  0.5799 -0.1818 -0.5558
   19MOL    C4513041   0.478   0.575   5.094 -0.0842  0.3543 -0.1479
   19MOL    O4613042   0.481   0.558   4.959 -0.5602  0.2297  0.2428
   19MOL    C4713043   0.412   0.634   4.878 -0.0058  0.0043  0.0520
   19MOL    O4813044   0.367   0.745   4.908  0.2177  0.1645  0.3505
   19MOL    C4913045   0.408   0.590   4.735  0.1246  0.5238 -0.3820
   19MOL    C5013046   0.398   0.437   4.723 -0.4496 -0.5012  0.2079
   19MOL    C5113047   0.293   0.670   4.652  0.5887  0.3993 -0.0158
   19MOL    H5213048   0.633   0.654   5.809 -0.7774 -0.0480  0.7946
   19MOL    H5313049   0.604   0.803   5.742  2.0573  1.7656 -1.0655
   19MOL    H5413050   0.690   0.798   5.891 -1.2780 -0.2511  0.3554
   19MOL    H5513051   0.883   0.676   5.767  0.2727 -0.6222 -0.4040
   19MOL    H5613052   0.853   0.838   5.720  1.5997 -0.5087  0.2195
   19MOL    H5713053   0.895   0.669   5.531  0.3670  1.1679 -0.8436
   19MOL    H5813054   0.733   0.606   5.561  0.6327 -0.9611 -3.2675
   19MOL    H5913055   0.790   0.896   5.487 -0.7206  0.1476  0.3590
   19MOL    H6013056   0.631   0.833   5.502  0.3607  0.6455  1.6581
   19MOL    H6113057   0.706   0.865   5.274  1.2683 -0.2871 -0.4288
   19MOL    H6213058   0.826   0.748   5.291  0.9301 -0.8232  2.7194
   19MOL    H6313059   0.668   0.571   5.338 -3.5433 -0.8370  1.5473
   19MOL    H6413060   0.530   0.669   5.350  0.3579 -0.5187  1.8495
   19MOL    H6513061   0.681   0.608   5.096  0.4017 -0.5073 -0.5357
   19MOL    H6613062   0.587   0.763   5.110  2.9899 -0.2293 -1.4343
   19MOL    H6713063   0.386   0.610   5.142 -0.1203 -1.2543  0.9953
   19MOL    H6813064   0.487   0.471   5.124  0.0992  0.8815  1.7039
   19MOL    H6913065   0.488   0.380   4.745 -0.5370 -0.0562  1.8103
   19MOL    H7013066   0.323   0.384   4.782  1.1527 -0.6896  2.1393
   19MOL    H7113067   0.382   0.411   4.619 -0.0122  1.3554 -0.3433
   19MOL    H7213068   0.312   0.660   4.545 -3.9939 -2.8524 -0.6837
   19MOL    H7313069   0.301   0.776   4.674  0.1112  0.4940 -0.2855
   19MOL    C7413070   0.425   7.655   3.798  0.3716 -1.2160 -0.4585
   19MOL    C7513071   0.293   7.722   3.856 -0.5366 -0.0675 -0.7076
   19MOL    C7613072   0.333   0.066   3.937  0.1168  0.3254 -0.1903
   19MOL    C7713073   0.198   0.129   3.993 -0.4103 -0.3897 -0.1180
   19MOL    C7813074   0.223   0.260   4.068 -0.7813 -0.3210 -0.1022
   19MOL    C7913075   0.095   0.331   4.116 -0.1083 -0.1481 -0.5851
   19MOL    C8013076   0.115   0.445   4.215 -0.8645  0.6506 -0.8139
   19MOL    C8113077   0.133   0.404   4.363 -0.3222  0.1105  0.4379
   19MOL    O8213078   0.150   0.512   4.448 -0.4666 -0.4325  0.3124
   19MOL    C8313079   0.119   0.507   4.574  0.0540 -0.1218 -0.2724
   19MOL    O8413080   0.068   0.413   4.631 -0.4300 -0.4757  0.1086
   19MOL    C8513081   0.139   0.643   4.650  0.8109 -0.6392 -0.2346
   19MOL    C8613082   0.091   0.632   4.803 -0.6417  0.7377 -0.4293
   19MOL    C8713083   0.072   0.770   4.578  0.1054 -0.5149  0.5122
   19MOL    H8813084   0.482   7.615   3.883 -0.7940  0.2102  1.0324
   19MOL    H8913085   0.490   7.719   3.738  1.9652 -4.6513 -2.5533
   19MOL    H9013086   0.402   7.579   3.724 -3.1859  2.0509 -2.8833
   19MOL    H9113087   0.239   7.650   3.917  1.7839 -1.2051  0.0563
   19MOL    H9213088   0.226   7.751   3.775  1.4914  2.8395 -1.4444
   19MOL    H9313089   0.394   0.038   4.024 -2.1013 -0.4199  1.1621
   19MOL    H9413090   0.387   0.144   3.883  0.9899  0.6556  1.1099
   19MOL    H9513091   0.154   0.059   4.063 -2.9838  1.6666  0.4007
   19MOL    H9613092   0.124   0.140   3.914 -0.4459  1.7335  0.1832
   19MOL    H9713093   0.280   0.240   4.159 -0.5952  1.7847  0.2756
   19MOL    H9813094   0.279   0.319   3.995 -0.1423 -0.5598  0.1906
   19MOL    H9913095   0.022   0.363   4.041  0.2852 -1.0072 -1.3518
   19MOL   H10013096   0.037   0.251   4.163 -1.0052 -0.1002 -1.5891
   19MOL   H10113097   0.199   0.504   4.179  0.4064 -0.2753  0.5472
   19MOL   H10213098   0.031   0.513   4.209 -2.0402 -0.2704  3.3070
   19MOL   H10313099   0.206   0.325   4.382 -0.2402 -0.1700 -1.0031
   19MOL   H10413100   0.038   0.362   4.396  0.7981 -0.8295  2.5252
   19MOL   H10513101   0.092   0.728   4.855 -1.1618  0.7249 -0.3990
   19MOL   H10613102   0.149   0.557   4.856  0.0993 -0.2644 -2.5883
   19MOL   H10713103   7.774   0.586   4.818  0.7739 -1.9478  0.7782
   19MOL   H10813104   0.117   0.851   4.636  0.0593 -0.6089  0.6825
   19MOL   H10913105   0.116   0.776   4.479 -1.0427 -1.6118 -0.0878
   19MOL   C11013106   7.399   7.593   4.449 -0.4921 -0.2622  0.6218
   19MOL   C11113107   7.313   7.641   4.561 -0.0522  0.1438 -0.3285
   19MOL   C11213108   7.371   7.751   4.651  0.4372  0.4061  0.0502
   19MOL   C11313109   7.382   0.100   4.573 -0.3982  0.5385 -0.2287
   19MOL   C11413110   7.431   0.211   4.668 -0.1037  0.1128  0.0242
   19MOL   C11513111   7.463   0.348   4.598 -0.6034  0.0114  0.0493
   19MOL   C11613112   7.537   0.343   4.463 -0.7189 -0.1324 -0.0178
   19MOL   C11713113   7.560   0.481   4.399  0.2632  0.3402  0.0477
   19MOL   O11813114   7.608   0.581   4.498  0.1024  0.0583 -0.6118
   19MOL   C11913115   7.649   0.699   4.447  0.4344 -0.8904 -0.3178
   19MOL   O12013116   7.644   0.723   4.323  0.2535 -0.7296  0.1613
   19MOL   C12113117   7.698   0.799   4.556  0.2993  0.2833  0.0863
   19MOL   C12213118   7.699   0.942   4.498  0.4153  0.0790 -0.1373
   19MOL   C12313119   7.615   0.795   4.692  0.3225 -0.3738  0.4098
   19MOL   H12413120   7.488   7.543   4.488  2.0158  2.7408 -1.0742
   19MOL   H12513121   7.352   7.516   4.388  0.4476 -1.0057  0.8144
   19MOL   H12613122   7.433   7.673   4.383  0.7233 -1.4501 -0.2430
   19MOL   H12713123   7.284   7.560   4.628  1.0595 -1.2053 -1.4691
   19MOL   H12813124   7.216   7.675   4.524  1.1977 -0.0650 -3.9623
   19MOL   H12913125   7.473   7.722   4.677 -0.6243 -3.8609 -0.1076
   19MOL   H13013126   7.319   7.774   4.744 -2.6602 -0.5239 -1.3940
   19MOL   H13113127   7.443   0.087   4.483 -1.4266  2.6403 -1.2729
   19MOL   H13213128   7.285   0.124   4.529 -1.2884 -2.4669 -0.0194
   19MOL   H13313129   7.519   0.185   4.727 -0.3517  1.3737  0.9594
   19MOL   H13413130   7.346   0.221   4.735  0.6102  0.6982  0.8429
   19MOL   H13513131   7.367   0.396   4.580 -2.4999 -2.6351  2.7374
   19MOL   H13613132   7.520   0.409   4.668  0.3087 -2.4004  1.4622
   19MOL   H13713133   7.480   0.285   4.390 -2.0941  0.8656  0.2334
   19MOL   H13813134   7.636   0.304   4.486 -0.9663 -0.7103  0.0611
   19MOL   H13913135   7.612   0.478   4.304 -1.1314  1.3043 -0.7670
   19MOL   H14013136   7.465   0.523   4.364 -0.1326  0.3123  1.0436
   19MOL   H14113137   7.724   0.948   4.392 -0.6152 -0.5659 -0.4223
   19MOL   H14213138   7.611   1.004   4.517  0.1416 -0.2659 -0.2828
   19MOL   H14313139   7.775   1.000   4.551  0.4097  0.4132 -0.4907
   19MOL   H14413140   7.676   0.850   4.764 -0.6512 -0.3177  1.2154
   19MOL   H14513141   7.620   0.689   4.717  1.7541 -0.7090 -1.2461
   19MOL   C14613142   7.613   0.675   5.694  0.1029  0.3158 -0.4289
   19MOL   C14713143   7.519   0.727   5.586 -0.4390  0.1339  0.3944
   19MOL   C14813144   7.590   0.829   5.498  0.1516  0.1955  0.1750
   19MOL   C14913145   7.497   0.871   5.384 -1.2332  0.3411  0.5748
   19MOL   C15013146   7.580   0.972   5.294  0.5089 -0.7868  0.7334
   19MOL   C15113147   7.517   1.003   5.154  0.1661  0.2403 -0.3655
   19MOL   C15213148   7.607   1.097   5.068 -0.3115  0.2166  0.2067
   19MOL   C15313149   7.548   1.132   4.936  0.0431 -1.1172 -0.3993
   19MOL   O15413150   7.547   1.014   4.859  0.3409 -0.3966 -0.7377
   19MOL   C15513151   7.473   0.999   4.748  0.1652  0.0212 -0.1288
   19MOL   O15613152   7.417   1.087   4.685 -0.9707 -0.3188  0.0750
   19MOL   C15713153   7.469   0.849   4.707  0.5938 -0.4210 -0.0159
   19MOL   C15813154   7.386   0.805   4.579  0.3743  0.4606 -0.7629
   19MOL   C15913155   7.414   0.768   4.829  0.4063  0.6971  0.1098
   19MOL   H16013156   7.709   0.640   5.659  1.8803  2.1248  2.3666
   19MOL   H16113157   7.572   0.587   5.743  1.9258 -0.3015  0.0349
   19MOL   H16213158   7.635   0.752   5.769 -2.5355  2.0265 -1.3165
   19MOL   H16313159   7.491   0.640   5.525  2.6549  0.4617 -1.5875
   19MOL   H16413160   7.428   0.764   5.634  0.6500  0.7519  1.9979
   19MOL   H16513161   7.680   0.792   5.450 -0.6623  1.0877 -2.1155
   19MOL   H16613162   7.597   0.921   5.555 -1.7666 -1.5575  3.4710
   19MOL   H16713163   7.469   0.779   5.333  0.2209  0.6982 -0.9371
   19MOL   H16813164   7.409   0.914   5.431  0.6275  1.8905  2.7778
   19MOL   H16913165   7.674   0.921   5.276  1.4830  0.5450  1.9482
   19MOL   H17013166   7.610   1.059   5.353 -0.6267 -0.1884  0.4429
   19MOL   H17113167   7.417   1.041   5.175  0.3191 -0.3094  1.4506
   19MOL   H17213168   7.497   0.907   5.106 -1.3204  0.8212 -0.9269
   19MOL   H17313169   7.611   1.179   5.140 -3.1556 -1.1187  1.9428
   19MOL   H17413170   7.705   1.050   5.060 -0.8557 -1.1912  1.5306
   19MOL   H17513171   7.448   1.174   4.952  0.2575 -0.7286 -0.0791
   19MOL   H17613172   7.611   1.205   4.884  2.4136 -2.6313  0.2788
   19MOL   H17713173   7.290   0.854   4.569 -0.7741 -1.2205  1.6461
   19MOL   H17813174   7.370   0.698   4.564  0.1191  0.6829 -2.1236
   19MOL   H17913175   7.430   0.829   4.482 -0.0770  1.0151 -0.8303
   19MOL   H18013176   7.477   0.782   4.917 -1.3808  1.5884  1.2831
   19MOL   H18113177   7.431   0.666   4.795 -0.5091  0.1483  1.2465
   19MOL   C18213178   6.134   0.788   5.077  0.2119  0.2278  0.2359
   19MOL   C18313179   6.241   0.781   4.979 -0.7769  0.2473 -0.3752
   19MOL   C18413180   6.284   0.636   4.961 -0.8190 -0.5372  0.3577
   19MOL   C18513181   6.402   0.620   4.862  0.1171 -0.1342  0.4891
   19MOL   C18613182   6.540   0.660   4.924  0.4886 -0.4375  0.4565
   19MOL   C18713183   6.652   0.660   4.822  0.7247 -0.6773 -0.0886
   19MOL   C18813184   6.780   0.706   4.879 -0.4331 -0.3921  0.0788
   19MOL   C18913185   6.908   0.688   4.793  0.5139 -0.2457 -0.3269
   19MOL   O19013186   7.024   0.749   4.859  0.1531  0.4820  0.1749
   19MOL   C19113187   7.148   0.718   4.813  0.1338  0.3042  0.4651
   19MOL   O19213188   7.172   0.643   4.714  0.0364  0.3414 -0.0480
   19MOL   C19313189   7.266   0.776   4.897 -0.3457 -0.3383  0.3729
   19MOL   C19413190   7.231   0.919   4.925 -0.2432  0.0875 -0.0014
   19MOL   C19513191   7.273   0.708   5.038 -0.4064 -0.0002  0.1396
   19MOL   H19613192   6.058   0.712   5.059 -1.2963  1.8152 -0.3124
   19MOL   H19713193   6.166   0.771   5.180  0.5412 -0.3671  0.0324
   19MOL   H19813194   6.080   0.883   5.081 -0.2679 -0.1130  2.5813
   19MOL   H19913195   6.327   0.845   5.000  0.1062 -0.4293 -1.8280
   19MOL   H20013196   6.203   0.814   4.883  0.3653 -0.0507 -0.9408
   19MOL   H20113197   6.319   0.596   5.056 -0.5795 -1.9573 -0.3090
   19MOL   H20213198   6.197   0.575   4.936  0.7894 -2.9023  0.3721
   19MOL   H20313199   6.403   0.514   4.836  1.7441  0.5313 -2.4124
   19MOL   H20413200   6.389   0.681   4.772  0.6991  0.8698  1.0750
   19MOL   H20513201   6.553   0.604   5.017 -0.0031  0.7995  1.2812
   19MOL   H20613202   6.529   0.762   4.960 -1.5093 -0.8350  1.0751
   19MOL   H20713203   6.621   0.730   4.744  0.2633  1.5995  2.0672
   19MOL   H20813204   6.671   0.564   4.775  0.0782  0.5756 -3.0493
   19MOL   H20913205   6.757   0.809   4.905 -1.5736 -0.5725 -0.2038
   19MOL   H21013206   6.789   0.665   4.980  2.7861  1.7590  0.7622
   19MOL   H21113207   6.874   0.732   4.699 -1.0498  1.8155  1.1639
   19MOL   H21213208   6.916   0.580   4.777  2.8061 -0.0827 -0.4151
   19MOL   H21313209   7.141   0.936   4.983 -0.4050  1.6063 -0.6811
   19MOL   H21413210   7.311   0.969   4.979  1.1465 -0.6517 -1.3236
   19MOL   H21513211   7.207   0.981   4.838  0.3229  0.1002 -0.1489
   19MOL   H21613212   7.335   0.769   5.104  0.5406 -0.7954 -0.0090
   19MOL   H21713213   7.170   0.718   5.071 -0.3806 -2.5076  1.0570
   19MOL   C21813214   0.474   0.370   5.731 -0.2282 -0.1608 -0.5273
   19MOL   C21913215   0.450   0.460   5.607 -0.0924 -0.8013  0.5210
   19MOL   C22013216   0.305   0.438   5.566  0.1478 -0.4044  0.7414
   19MOL   C22113217   0.272   0.526   5.444 -0.3504 -0.0413  0.4217
   19MOL   C22213218   0.123   0.515   5.419  0.3837 -0.3639  0.6405
   19MOL   C22313219   0.082   0.570   5.282 -0.1645 -0.3857 -0.3318
   19MOL   C22413220   7.710   0.564   5.267 -0.1174  0.3216 -0.0902
   19MOL   C22513221   7.667   0.648   5.146 -0.6208  0.7315  0.1716
   19MOL   O22613222   7.527   0.650   5.137  0.1850 -0.4050  0.0786
   19MOL   C22713223   7.471   0.557   5.061  0.1403 -0.1165 -0.5414
   19MOL   O22813224   7.536   0.474   4.988 -0.2467  0.1290  0.0197
   19MOL   C22913225   7.315   0.557   5.070  0.3122  0.6083  0.8740
   19MOL   C23013226   7.260   0.457   4.970  0.0052 -0.3438 -0.2229
   19MOL   C23113227   7.282   0.526   5.226  0.6639  0.5373  0.7636
   19MOL   H23213228   0.399   0.380   5.809 -0.7796  1.6219 -1.2466
   19MOL   H23313229   0.562   0.402   5.787 -0.7059  0.1538  0.0420
   19MOL   H23413230   0.480   0.264   5.706 -1.0585 -0.0193 -1.3598
   19MOL   H23513231   0.513   0.419   5.528 -0.4336 -0.0003 -0.1800
   19MOL   H23613232   0.483   0.564   5.615  0.4377 -0.7042 -2.1850
   19MOL   H23713233   0.308   0.335   5.532 -0.8261  0.0197 -0.6841
   19MOL   H23813234   0.230   0.455   5.643 -2.4857 -0.3489 -1.7350
   19MOL   H23913235   0.298   0.630   5.461 -0.3573 -0.2851  2.0393
   19MOL   H24013236   0.329   0.500   5.355 -0.9911 -1.7577  0.4918
   19MOL   H24113237   0.101   0.409   5.427 -1.6544 -0.0123 -0.2155
   19MOL   H24213238   0.063   0.564   5.496  0.8064  2.5339 -0.7866
   19MOL   H24313239   0.112   0.673   5.269 -0.6116 -0.1460  0.4427
   19MOL   H24413240   0.128   0.503   5.209 -1.4387 -1.9747  0.2792
   19MOL   H24513241   7.674   0.617   5.355 -1.6903 -0.6391 -0.1353
   19MOL   H24613242   7.678   0.460   5.271 -1.6870  0.7600 -0.7183
   19MOL   H24713243   7.713   0.603   5.058 -2.4832  0.9513 -0.9682
   19MOL   H24813244   7.705   0.750   5.155 -0.7313  0.8489 -0.5893
   19MOL   H24913245   7.303   0.468   4.870 -0.7325  1.2599 -0.3877
   19MOL   H25013246   7.153   0.443   4.955  0.2794 -0.6775 -2.0530
   19MOL   H25113247   7.291   0.354   4.988 -0.8160 -0.6222 -0.3582
   19MOL   H25213248   7.367   0.465   5.255 -0.6613 -2.4885 -1.3201
   19MOL   H25313249   7.295   0.621   5.277  0.5009 -0.0859  1.9718
   19MOL   C25413250   6.731   1.425   5.273 -0.3442 -0.4113  0.4223
   19MOL   C25513251   6.843   1.441   5.378  0.4001 -0.2505  0.4211
   19MOL   C25613252   6.899   1.312   5.434 -0.6820  0.3422 -0.7933
   19MOL   C25713253   6.915   1.189   5.348  0.4799 -1.0238  0.0454
   19MOL   C25813254   7.001   1.081   5.430  0.5209  0.3693  0.3134
   19MOL   C25913255   7.015   0.949   5.353  0.5886  0.0009  0.1428
   19MOL   C26013256   6.891   0.867   5.332  0.3559 -0.0735 -0.2063
   19MOL   C26113257   6.908   0.743   5.250  0.0652  0.2399 -0.7268
   19MOL   O26213258   7.000   0.652   5.303 -0.1127  0.9123 -0.2297
   19MOL   C26313259   7.020   0.539   5.235 -0.1674 -0.6969 -0.7024
   19MOL   O26413260   6.970   0.521   5.127  0.1186  0.9601 -0.1433
   19MOL   C26513261   7.143   0.461   5.282 -0.4909  0.7874 -0.6195
   19MOL   C26613262   7.162   0.474   5.435  0.4863  0.5863 -0.3380
   19MOL   C26713263   7.148   0.310   5.237  0.1893 -0.0314 -0.0939
   19MOL   H26813264   6.666   1.343   5.306  0.8744 -1.8347 -0.6106
   19MOL   H26913265   6.684   1.521   5.254  2.6143  0.6616 -1.7369
   19MOL   H27013266   6.771   1.396   5.176  0.7291  1.9908  0.1278
   19MOL   H27113267   6.925   1.496   5.331 -1.1333  0.7968 -1.0770
   19MOL   H27213268   6.814   1.504   5.462  0.0719  0.7837 -0.4475
   19MOL   H27313269   6.840   1.286   5.522 -2.5589  3.4435 -1.0417
   19MOL   H27413270   6.992   1.334   5.488 -1.0509 -0.0708  0.0207
   19MOL   H27513271   6.969   1.204   5.254 -1.0222  1.9811 -0.4090
   19MOL   H27613272   6.817   1.146   5.329 -1.0474  1.5381  1.9017
   19MOL   H27713273   7.099   1.127   5.440  1.0141  0.6423 -4.7291
   19MOL   H27813274   6.973   1.062   5.534  0.3481  3.1257  0.8118
   19MOL   H27913275   7.080   0.878   5.404  1.1133 -0.7144 -1.4891
   19MOL   H28013276   7.058   0.978   5.257  1.3203 -0.4513  0.3352
   19MOL   H28113277   6.852   0.842   5.431  0.0525 -0.1741 -0.3504
   19MOL   H28213278   6.809   0.928   5.294  0.4158  0.0374 -0.1578
   19MOL   H28313279   6.812   0.699   5.221 -1.0279  1.3427  1.1570
   19MOL   H28413280   6.959   0.778   5.160  1.6014  0.4786  0.2152
   19MOL   H28513281   7.071   0.440   5.484  0.3112 -1.7224 -2.1571
   19MOL   H28613282   7.254   0.433   5.476 -0.5984 -3.4732 -1.6960
   19MOL   H28713283   7.157   0.580   5.460  0.5563  1.3540 -3.3246
   19MOL   H28813284   7.251   0.277   5.237  0.5423  1.0399  0.9691
   19MOL   H28913285   7.121   0.323   5.132 -2.0416  3.0357  0.7606
   19MOL   C29013286   0.039   0.173   5.887  0.3643  0.4209  0.0237
   19MOL   C29113287   0.109   0.175   5.754  0.4772 -0.1067 -0.0658
   19MOL   C29213288   0.023   0.176   5.633  0.0253  0.1408 -0.0768
   19MOL   C29313289   7.684   0.280   5.649 -0.4712  0.2365  0.3137
   19MOL   C29413290   7.595   0.281   5.524 -0.0149  0.1359 -0.0701
   19MOL   C29513291   7.478   0.181   5.497  0.7685 -0.4699 -0.0040
   19MOL   C29613292   7.367   0.183   5.603  0.1273  0.3884  0.0686
   19MOL   C29713293   7.270   0.075   5.563  0.1455  0.9154 -0.6027
   19MOL   O29813294   7.217   0.112   5.435 -0.5451 -0.4977  0.0429
   19MOL   C29913295   7.093   0.160   5.426  0.3325 -0.2642  0.1456
   19MOL   O30013296   7.017   0.183   5.521 -0.0413  0.2257 -0.1482
   19MOL   C30113297   7.052   0.192   5.282 -0.1553 -0.2078 -0.1426
   19MOL   C30213298   6.904   0.226   5.281  0.3873 -0.9286  0.5519
   19MOL   C30313299   7.093   0.080   5.181  0.6383  0.5407  0.0802
   19MOL   H30413300   7.754   0.085   5.881  1.1489 -0.2688  1.5005
   19MOL   H30513301   7.761   0.265   5.903  1.7085  1.2414  0.2175
   19MOL   H30613302   0.112   0.175   5.967  1.3505 -0.5106 -0.8338
   19MOL   H30713303   0.181   0.093   5.761  1.9687  0.9586 -2.1631
   19MOL   H30813304   0.172   0.264   5.749 -0.9465  0.8782 -0.5563
   19MOL   H30913305   7.765   0.077   5.607  0.7165 -0.1427 -0.0109
   19MOL   H31013306   0.078   0.208   5.545 -2.8824  1.6194 -1.4426
   19MOL   H31113307   7.624   0.256   5.737 -1.6822  0.5114 -0.4160
   19MOL   H31213308   7.737   0.374   5.664  0.2435  0.2137 -1.8569
   19MOL   H31313309   7.552   0.381   5.519 -0.6107 -0.1974 -1.7948
   19MOL   H31413310   7.662   0.285   5.438  0.4752  2.6081  0.3830
   19MOL   H31513311   7.529   0.085   5.488 -0.1475 -0.9515 -0.1279
   19MOL   H31613312   7.445   0.206   5.396 -0.9196  0.6775  0.8237
   19MOL   H31713313   7.321   0.280   5.623 -1.3973 -0.4316  0.6905
   19MOL   H31813314   7.399   0.145   5.700 -0.3633  0.5566  0.3009
   19MOL   H31913315   7.194   0.053   5.638  0.1762 -1.8101 -1.3517
   19MOL   H32013316   7.326   7.762   5.556 -0.9995  0.0908  0.8114
   19MOL   H32113317   6.863   0.305   5.344 -0.8949 -0.4575 -0.8419
   19MOL   H32213318   6.836   0.144   5.306  1.1951 -1.3614  1.3642
   19MOL   H32313319   6.869   0.263   5.185 -0.8225  1.5905  1.9295
   19MOL   H32413320   7.055   0.115   5.085  2.5953  0.4251 -0.7735
   19MOL   H32513321   7.201   0.082   5.163  0.4966  1.2654 -0.7214
   19MOL   C32613322   0.060   0.271   4.975 -0.0919 -0.6973  0.3298
   19MOL   C32713323   7.732   0.168   4.960  0.0935  0.5438  0.4575
   19MOL   C32813324   7.647   0.156   5.092  0.1065  0.5747  0.8785
   19MOL   C32913325   7.520   0.073   5.067  0.4250 -0.5444 -0.6096
   19MOL   C33013326   7.536   7.702   5.045 -0.3416 -0.1814 -0.0872
   19MOL   C33113327   7.592   7.632   5.170 -0.0304 -0.2837  0.4457
   19MOL   C33213328   7.502   7.529   5.232 -0.1635 -0.4715 -0.1785
   19MOL   C33313329   7.386   7.582   5.319 -0.2632  0.4978 -0.1207
   19MOL   O33413330   7.281   7.621   5.231  0.6350  0.8594 -0.5660
   19MOL   C33513331   7.154   7.635   5.287 -0.4681  0.6607  0.7095
   19MOL   O33613332   7.123   7.597   5.397  0.5714 -0.4466  0.0985
   19MOL   C33713333   7.056   7.705   5.184  0.5365  0.3445  0.6870
   19MOL   C33813334   6.909   7.692   5.220  0.7915 -0.7964 -0.4086
   19MOL   C33913335   7.078   7.651   5.040  0.4085  0.4713 -0.1562
   19MOL   H34013336   0.014   0.370   4.972 -0.4298 -0.8581  0.1791
   19MOL   H34113337   0.141   0.256   4.904 -2.2302 -1.4898 -2.0028
   19MOL   H34213338   0.102   0.249   5.073  2.1293 -0.8666 -0.6331
   19MOL   H34313339   0.009   0.075   4.947  0.5087  1.0576 -1.5268
   19MOL   H34413340   7.676   0.191   4.869  2.0173  2.0916 -0.3612
   19MOL   H34513341   7.607   0.256   5.107 -0.2302  0.7709 -1.2326
   19MOL   H34613342   7.702   0.131   5.183 -0.1996 -1.5325  0.5119
   19MOL   H34713343   7.472   0.117   4.979  0.4385  0.2312 -0.2321
   19MOL   H34813344   7.452   0.092   5.150  0.3985 -1.0246 -0.5169
   19MOL   H34913345   7.440   7.660   5.012 -0.7905 -0.5187  1.6094
   19MOL   H35013346   7.607   7.681   4.965 -1.4351  1.0311 -1.3904
   19MOL   H35113347   7.681   7.584   5.130 -1.4948 -1.4215 -1.5766
   19MOL   H35213348   7.638   7.703   5.238  1.8903 -1.6973  0.6685
   19MOL   H35313349   7.555   7.460   5.297  0.3903 -0.8949 -1.0669
   19MOL   H35413350   7.452   7.470   5.155 -0.3765  0.8275 -1.0717
   19MOL   H35513351   7.344   7.504   5.384 -1.1646 -0.8823 -2.3100
   19MOL   H35613352   7.429   7.656   5.386 -1.4917  1.0783  0.0386
   19MOL   H35713353   6.890   7.735   5.319 -1.6911 -1.2385 -0.6739
   19MOL   H35813354   6.850   7.747   5.147 -0.5573 -1.2827  0.3140
   19MOL   H35913355   6.882   7.587   5.224 -1.1413 -0.2984  0.2268
   19MOL   H36013356   7.037   7.715   4.963  0.3372  1.9108  1.0602
   19MOL   H36113357   7.184   7.665   5.021  0.0673  0.1459 -2.4716
   19MOL   C36213358   7.091   6.444   5.028  0.0493  0.1229 -0.6808
   19MOL   C36313359   7.072   6.586   4.972 -0.1496  0.1861  0.4958
   19MOL   C36413360   7.173   6.688   5.026  0.0217 -0.0816  0.0533
   19MOL   C36513361   7.138   6.831   5.005 -0.5143 -0.5048  0.0475
   19MOL   C36613362   7.248   6.916   5.080  0.1383  0.4934 -0.1534
   19MOL   C36713363   7.206   7.062   5.080  0.3063 -0.2692 -0.0937
   19MOL   C36813364   7.301   7.149   5.162  0.2578 -0.0510 -0.6613
   19MOL   C36913365   7.244   7.279   5.212 -0.1268 -0.0631 -0.2155
   19MOL   O37013366   7.201   7.381   5.123  0.3306 -0.2042 -0.1298
   19MOL   C37113367   7.071   7.391   5.090 -0.0878  0.2250  0.3598
   19MOL   O37213368   6.985   7.325   5.145 -0.1030 -0.2499 -0.8155
   19MOL   C37313369   7.037   7.502   4.990 -1.1415 -0.0592  0.0810
   19MOL   C37413370   7.127   7.478   4.863  0.4222 -0.2764 -0.9615
   19MOL   C37513371   6.888   7.502   4.950 -0.1199  0.0831  0.1873
   19MOL   H37613372   7.194   6.435   4.993  0.7103  0.0329  1.2684
   19MOL   H37713373   7.091   6.443   5.137 -1.9625 -0.2183 -0.6507
   19MOL   H37813374   7.035   6.363   4.982 -1.1372  0.1964  0.5935
   19MOL   H37913375   6.971   6.618   4.996 -0.9034 -0.8935 -1.2002
   19MOL   H38013376   7.079   6.585   4.864  2.1284  2.5778  0.5582
   19MOL   H38113377   7.275   6.668   4.996  0.4167 -1.3481  2.1267
   19MOL   H38213378   7.174   6.662   5.132 -1.2472  0.7147  0.2746
   19MOL   H38313379   7.034   6.852   5.030 -0.8146 -1.8725 -0.0414
   19MOL   H38413380   7.142   6.861   4.900 -0.6582 -0.3330  0.0918
   19MOL   H38513381   7.262   6.869   5.177  0.0374 -0.6272 -0.6718
   19MOL   H38613382   7.344   6.899   5.031 -0.3741 -0.8943 -0.7042
   19MOL   H38713383   7.108   7.060   5.129 -0.6459  1.4993 -1.8374
   19MOL   H38813384   7.190   7.099   4.979 -0.2823 -1.4662 -0.4455
   19MOL   H38913385   7.395   7.183   5.118 -0.0146  1.3030 -0.2294
   19MOL   H39013386   7.323   7.091   5.252  1.6173  0.6718 -0.5104
   19MOL   H39113387   7.163   7.274   5.285  1.3294 -1.2688  1.3449
   19MOL   H39213388   7.326   7.319   5.270 -1.3035  0.6203  0.9988
   19MOL   H39313389   7.233   7.479   4.887 -0.0829  0.1985  1.2799
   19MOL   H39413390   7.125   7.374   4.831 -0.2204 -0.6764  0.3563
   19MOL   H39513391   7.098   7.533   4.773 -1.2945  1.3240  0.5305
   19MOL   H39613392   6.833   7.491   5.043  1.4399  0.0127  1.1136
   19MOL   H39713393   6.855   7.600   4.914  0.4513 -0.1201 -0.9192
   19MOL   C39813394   6.528   0.567   4.477 -0.7967 -0.3513 -0.4287
   19MOL   C39913395   6.639   0.463   4.463 -0.0176  0.2747 -0.1753
   19MOL   C40013396   6.602   0.329   4.398  0.3853 -0.7720  0.4684
   19MOL   C40113397   6.704   0.217   4.416  0.1957 -0.0098  0.5156
   19MOL   C40213398   6.653   0.086   4.351  0.0236  0.6318  0.4797
   19MOL   C40313399   6.746   7.748   4.376  0.4897 -1.0066 -0.1445
   19MOL   C40413400   6.739   7.702   4.525  0.7565  0.0731 -0.2030
   19MOL   C40513401   6.840   7.594   4.557  0.4588  0.2850 -0.2594
   19MOL   O40613402   6.818   7.551   4.688 -0.1500  0.0153 -0.1644
   19MOL   C40713403   6.848   7.425   4.716 -0.1501  0.3965 -0.3167
   19MOL   O40813404   6.905   7.346   4.641 -0.2147  0.6174  0.1069
   19MOL   C40913405   6.819   7.392   4.860  0.3706 -0.4246 -0.1337
   19MOL   C41013406   6.859   7.247   4.889 -0.4458 -0.1527  0.5908
   19MOL   C41113407   6.661   7.400   4.889 -0.5130  0.3929 -0.0652
   19MOL   H41213408   6.559   0.668   4.503 -0.3724 -1.0468  1.8903
   19MOL   H41313409   6.447   0.542   4.547 -0.1203  0.9250  0.8352
   19MOL   H41413410   6.470   0.569   4.385  1.1407  0.9909 -1.6382
   19MOL   H41513411   6.678   0.445   4.564 -0.3963  2.5383  0.3955
   19MOL   H41613412   6.716   0.522   4.413  0.5057 -1.1636 -1.0900
   19MOL   H41713413   6.509   0.296   4.443 -0.2552 -0.8120 -0.8727
   19MOL   H41813414   6.580   0.339   4.292 -0.8867 -1.4705  0.6679
   19MOL   H41913415   6.723   0.206   4.523  1.0875  1.0178  0.4759
   19MOL   H42013416   6.795   0.243   4.361 -0.8711 -0.5456 -1.5550
   19MOL   H42113417   6.556   0.054   4.387  1.1671 -2.0524  1.3061
   19MOL   H42213418   6.645   0.088   4.242  3.9492  0.2508  0.0974
   19MOL   H42313419   6.847   7.777   4.345 -0.0622  1.3873  0.1642
   19MOL   H42413420   6.712   7.668   4.311  3.1203 -0.5083 -2.2176
   19MOL   H42513421   6.765   7.778   4.598  1.1190 -2.2551  2.1961
   19MOL   H42613422   6.642   7.663   4.555  2.0783 -1.9105  1.6174
   19MOL   H42713423   6.825   7.512   4.487 -1.4540  2.4885 -2.5163
   19MOL   H42813424   6.942   7.627   4.535  2.1547 -3.3582  1.8213
   19MOL   H42913425   6.810   7.180   4.818 -0.0513  0.8163 -0.6169
   19MOL   H43013426   6.846   7.217   4.993  1.2324 -1.5884  0.4049
   19MOL   H43113427   6.965   7.235   4.869  0.0976  1.2599  2.5188
   19MOL   H43213428   6.636   7.505   4.874  1.0543  0.7746 -0.1797
   19MOL   H43313429   6.637   7.379   4.993  0.6073 -0.2117  0.0873
   19MOL   C43413430   6.895   6.297   5.384 -0.6856 -0.0078  0.8012
   19MOL   C43513431   6.795   6.380   5.294 -0.1579 -0.3266  0.2035
   19MOL   C43613432   6.817   6.535   5.296  0.5649 -0.3218  0.3432
   19MOL   C43713433   6.709   6.618   5.212  0.2238 -0.1072 -0.6938
   19MOL   C43813434   6.756   6.760   5.184  0.4052  0.0031 -0.1555
   19MOL   C43913435   6.631   6.833   5.146  0.1775 -0.1624  0.3817
   19MOL   C44013436   6.653   6.971   5.087  0.0428  0.0997 -0.6312
   19MOL   C44113437   6.514   7.035   5.053  0.1021 -0.5052 -0.0015
   19MOL   O44213438   6.519   7.165   4.993  0.3119 -0.4229  0.1724
   19MOL   C44313439   6.551   7.170   4.866  0.6204  0.2110  0.2321
   19MOL   O44413440   6.586   7.072   4.797  0.3165 -0.5490 -0.5676
   19MOL   C44513441   6.554   7.313   4.812 -0.8129 -0.4916  0.0154
   19MOL   C44613442   6.568   7.310   4.651 -0.1619  0.5982  0.5282
   19MOL   C44713443   6.409   7.377   4.847  0.1075 -0.2347 -0.4897
   19MOL   H44813444   6.870   6.191   5.392 -2.5750  0.5350  2.5170
   19MOL   H44913445   6.912   6.338   5.484 -0.2179  2.8907 -0.4191
   19MOL   H45013446   6.989   6.300   5.330 -0.9713  2.9969  0.3621
   19MOL   H45113447   6.694   6.368   5.333 -0.5528  0.6572 -0.4961
   19MOL   H45213448   6.799   6.341   5.192 -0.8439  0.3965 -0.1077
   19MOL   H45313449   6.918   6.564   5.267  0.5333  0.0223  0.5633
   19MOL   H45413450   6.802   6.566   5.400  0.4493  0.1794  0.1793
   19MOL   H45513451   6.615   6.618   5.267  1.2025 -1.3843  1.0618
   19MOL   H45613452   6.689   6.568   5.117 -2.2799 -1.6121  0.5702
   19MOL   H45713453   6.806   6.793   5.275 -0.4676 -0.1628  0.3853
   19MOL   H45813454   6.831   6.767   5.105  1.5960 -1.2645  0.8372
   19MOL   H45913455   6.573   6.848   5.237  0.3728  0.0626  0.4698
   19MOL   H46013456   6.562   6.767   5.093 -1.0361  0.0667  1.6588
   19MOL   H46113457   6.711   7.032   5.157  0.0400  0.6276 -1.0886
   19MOL   H46213458   6.723   6.967   5.003  1.3243  0.5227  0.3947
   19MOL   H46313459   6.469   7.048   5.151  1.1202  1.8274  0.1755
   19MOL   H46413460   6.445   6.968   5.001  0.0440 -0.2613 -0.2436
   19MOL   H46513461   6.577   7.402   4.592  0.8511 -1.0175 -1.9077
   19MOL   H46613462   6.661   7.257   4.630 -0.2457  0.6006  0.1543
   19MOL   H46713463   6.482   7.254   4.615 -0.4075  1.2564  0.0697
   19MOL   H46813464   6.415   7.395   4.954 -0.7255 -0.6724 -0.3690
   19MOL   H46913465   6.428   7.476   4.806 -2.0952  0.9635  1.2652
   19MOL   C47013466   5.821   7.528   3.945  0.0854  0.3914 -0.2289
   19MOL   C47113467   5.726   7.608   4.035 -0.1626  0.4810 -0.6315
   19MOL   C47213468   5.795   7.631   4.166 -0.4539 -0.1737 -0.2509
   19MOL   C47313469   5.897   7.745   4.166 -0.1220 -0.4863  0.7114
   19MOL   C47413470   5.969   7.766   4.302 -0.0773 -0.5225  0.9132
   19MOL   C47513471   6.081   7.659   4.322 -0.0912  0.0149 -0.4310
   19MOL   C47613472   6.125   7.647   4.470  0.0716 -0.4515  0.0533
   19MOL   C47713473   6.258   7.570   4.489  0.5248 -0.4889  0.0788
   19MOL   O47813474   6.263   7.506   4.623 -0.7194 -0.2032  0.3547
   19MOL   C47913475   6.255   7.377   4.647  0.1073  0.3007 -0.0814
   19MOL   O48013476   6.239   7.295   4.557  0.1480  0.3849 -0.1595
   19MOL   C48113477   6.267   7.336   4.797  0.3451  0.4900  0.4183
   19MOL   C48213478   6.235   7.178   4.811  0.0581 -0.1438 -0.0017
   19MOL   C48313479   6.160   7.420   4.877 -0.2241  0.3937 -0.2379
   19MOL   H48413480   5.786   7.505   3.845  1.7315 -0.6332 -0.5750
   19MOL   H48513481   5.827   7.434   4.000 -0.2534  0.4676 -0.0585
   19MOL   H48613482   5.922   7.566   3.935 -0.2798  2.2421  2.4828
   19MOL   H48713483   5.712   7.701   3.980  1.9845  0.0461 -1.9876
   19MOL   H48813484   5.628   7.568   4.060  0.5566 -1.2280 -0.4659
   19MOL   H48913485   5.713   7.656   4.235  0.8923  0.0290  1.3082
   19MOL   H49013486   5.834   7.534   4.198  0.0052 -0.5387 -1.8788
   19MOL   H49113487   5.974   7.740   4.089  0.4235  0.8992  1.1604
   19MOL   H49213488   5.846   0.061   4.155 -0.9175 -1.0996 -1.2237
   19MOL   H49313489   6.011   0.087   4.305 -0.3210 -0.4624  2.5886
   19MOL   H49413490   5.907   7.763   4.391  0.7941 -3.8910  1.4423
   19MOL   H49513491   6.048   7.559   4.296 -1.5369  1.0737 -2.8182
   19MOL   H49613492   6.163   7.688   4.257  1.1534  3.2984  2.4314
   19MOL   H49713493   6.131   7.748   4.511 -0.0048 -1.2382  2.0248
   19MOL   H49813494   6.044   7.602   4.526  0.6613 -0.8296  0.6100
   19MOL   H49913495   6.341   7.638   4.469 -1.6797  2.1777 -0.2556
   19MOL   H50013496   6.257   7.499   4.406  2.8650 -1.3452  0.7215
   19MOL   H50113497   6.142   7.137   4.773  1.2626 -1.4065 -1.6504
   19MOL   H50213498   6.241   7.147   4.916 -1.5245 -0.5317 -0.0160
   19MOL   H50313499   6.321   7.128   4.765  1.1933  1.1394  0.6834
   19MOL   H50413500   6.186   7.526   4.868  2.4726 -0.2729 -0.5975
   19MOL   H50513501   6.067   7.418   4.819 -1.6507 -2.8165  2.0106
   19MOL   C50613502   5.428   6.710   4.351  0.6192 -0.3719  0.6414
   19MOL   C50713503   5.463   6.814   4.451  0.3004 -0.2160 -0.3169
   19MOL   C50813504   5.591   6.766   4.517 -0.8044 -0.1974  0.1583
   19MOL   C50913505   5.636   6.866   4.631 -0.0127  0.1174 -0.0322
   19MOL   C51013506   5.742   6.817   4.730  0.2897  0.2785 -0.0530
   19MOL   C51113507   5.763   6.908   4.856  0.2444  0.2047  0.0233
   19MOL   C51213508   5.849   7.035   4.829  0.0020  0.1307 -0.2453
   19MOL   C51313509   5.881   7.097   4.962 -0.2390  0.4468  0.6912
   19MOL   O51413510   5.952   7.223   4.947  0.1912  0.5542  0.0567
   19MOL   C51513511   6.038   7.261   5.046 -0.2612  0.2816 -0.2054
   19MOL   O51613512   6.070   7.201   5.148  0.0476 -0.2978  0.4468
   19MOL   C51713513   6.103   7.401   5.015 -0.1704  0.8709 -0.2920
   19MOL   C51813514   6.212   7.429   5.114  0.0877 -0.2122 -0.0186
   19MOL   C51913515   5.985   7.503   5.021 -0.2323 -0.1995  1.1656
   19MOL   H52013516   5.338   6.737   4.295  1.1508  0.5224  0.2030
   19MOL   H52113517   5.419   6.628   4.422 -2.5451  0.4905  1.3163
   19MOL   H52213518   5.507   6.688   4.279  1.0013  1.2435  0.5400
   19MOL   H52313519   5.382   6.808   4.523  1.3981 -0.0716  0.9600
   19MOL   H52413520   5.480   6.910   4.402  1.4026 -1.0081 -1.5481
   19MOL   H52513521   5.585   6.667   4.562 -0.0813 -0.8057 -1.0587
   19MOL   H52613522   5.674   6.757   4.447 -0.3368 -2.7413  1.0056
   19MOL   H52713523   5.661   6.960   4.582  2.0352 -0.5364 -0.2685
   19MOL   H52813524   5.545   6.883   4.689 -0.4280  0.8959 -0.8992
   19MOL   H52913525   5.705   6.720   4.764 -0.9015  0.2337 -1.4243
   19MOL   H53013526   5.836   6.795   4.679 -0.3259 -0.3123 -0.9559
   19MOL   H53113527   5.791   6.851   4.945  0.9962 -0.8607 -0.8892
   19MOL   H53213528   5.662   6.938   4.884  0.7614  1.2927  0.7307
   19MOL   H53313529   5.802   7.116   4.773 -0.1876  1.0990  1.2815
   19MOL   H53413530   5.932   6.988   4.777 -0.8298 -0.7294 -0.8279
   19MOL   H53513531   5.942   7.027   5.020  0.8887 -0.2333 -1.2647
   19MOL   H53613532   5.789   7.113   5.018 -0.8748  1.5679 -0.6488
   19MOL   H53713533   6.254   7.528   5.097  2.2002 -0.9482  0.6244
   19MOL   H53813534   6.285   7.348   5.110 -2.4707 -2.6096  0.1163
   19MOL   H53913535   6.169   7.423   5.214 -1.6427  0.1562 -0.7295
   19MOL   H54013536   6.009   7.598   4.974 -1.4125 -0.9337 -0.9608
   19MOL   H54113537   5.906   7.478   4.950  1.0450 -0.0884 -0.3055
   19MOL   C54213538   5.097   7.016   5.017 -0.0334  0.6415  0.0654
   19MOL   C54313539   5.251   7.020   4.989 -0.4402 -0.4361  0.4743
   19MOL   C54413540   5.288   7.150   4.924  0.2026 -0.2154  0.2396
   19MOL   C54513541   5.432   7.153   4.870  0.6098  0.2991  0.7770
   19MOL   C54613542   5.471   7.301   4.833  0.0450  0.0835 -0.0337
   19MOL   C54713543   5.518   7.377   4.958  0.3861  0.8322 -0.1171
   19MOL   C54813544   5.539   7.525   4.909  0.3861 -0.9065  0.1159
   19MOL   C54913545   5.586   7.624   5.014 -0.4784  0.2614 -0.4276
   19MOL   O55013546   5.700   7.574   5.077  0.4008  0.3008  0.5056
   19MOL   C55113547   5.801   7.646   5.113  0.1324  0.1922  0.8751
   19MOL   O55213548   5.813   7.766   5.106 -0.2891  0.0776 -0.1993
   19MOL   C55313549   5.922   7.557   5.158 -0.1669  0.3178 -0.4441
   19MOL   C55413550   6.027   7.655   5.220 -0.0806  0.2647  0.1844
   19MOL   C55513551   5.868   7.442   5.253 -0.1200 -0.4534 -0.7145
   19MOL   H55613552   5.036   7.024   4.927 -0.8021  1.2081  0.6303
   19MOL   H55713553   5.068   7.105   5.073  0.8223 -0.1183  1.7436
   19MOL   H55813554   5.072   6.930   5.079  0.0384  1.4514  1.2271
   19MOL   H55913555   5.311   6.983   5.072 -2.2382 -1.8711  1.1711
   19MOL   H56013556   5.277   6.941   4.918 -1.2141 -0.7495  0.5384
   19MOL   H56113557   5.271   7.223   5.003  0.7371  0.3068 -0.1230
   19MOL   H56213558   5.221   7.180   4.843  1.8872 -1.9837 -1.9015
   19MOL   H56313559   5.496   7.111   4.947  0.1843 -0.3198  0.7895
   19MOL   H56413560   5.435   7.094   4.778  2.7838  0.5886  0.6207
   19MOL   H56513561   5.391   7.343   4.773 -0.2205 -0.9155 -0.3847
   19MOL   H56613562   5.556   7.298   4.765 -0.6905 -1.0146 -0.9199
   19MOL   H56713563   5.440   7.363   5.033  0.6935 -1.6277 -0.2185
   19MOL   H56813564   5.613   7.337   4.992  0.3667  0.4651 -0.4846
   19MOL   H56913565   5.618   7.523   4.834  0.2830 -0.5628 -0.0028
   19MOL   H57013566   5.448   7.561   4.861  1.1633  0.4678 -0.3334
   19MOL   H57113567   5.513   7.638   5.094 -1.3415 -4.6267 -0.2355
   19MOL   H57213568   5.600   7.719   4.961  0.3137  2.1250  2.9730
   19MOL   H57313569   6.105   7.605   5.278  0.7604  1.1072 -0.2086
   19MOL   H57413570   5.985   7.726   5.292 -1.3249 -0.7649  0.4841
   19MOL   H57513571   6.076   7.713   5.142  1.7139 -0.4573  0.7397
   19MOL   H57613572   5.944   7.364   5.254  0.9834  0.5878 -2.0145
   19MOL   H57713573   5.792   7.385   5.199  0.2035 -1.3974 -0.1866
   19MOL   C57813574   5.186   0.130   5.996 -0.3647  0.3478 -0.2725
   19MOL   C57913575   5.151   7.764   5.972  0.1369  0.4856 -0.5628
   19MOL   C58013576   5.263   7.667   5.919  0.2997 -0.2759  0.3257
   19MOL   C58113577   5.304   7.690   5.774 -0.4442 -0.5704  0.2954
   19MOL   C58213578   5.381   7.577   5.709  0.3372 -0.2515  0.5639
   19MOL   C58313579   5.413   7.619   5.565 -0.7071  0.3704  0.3212
   19MOL   C58413580   5.510   7.739   5.551  0.3358  0.5954 -0.0695
   19MOL   C58513581   5.584   7.745   5.420  0.2578 -0.2223 -0.0155
   19MOL   O58613582   5.650   7.625   5.381 -0.1355  0.2365  0.0559
   19MOL   C58713583   5.776   7.603   5.437 -0.0644 -0.6929 -0.0128
   19MOL   O58813584   5.838   7.678   5.517  0.2289 -0.2968 -0.7661
   19MOL   C58913585   5.828   7.464   5.404 -0.8869  0.9621  0.5372
   19MOL   C59013586   5.962   7.451   5.482  0.2956 -0.0546 -0.4096
   19MOL   C59113587   5.719   7.355   5.445  0.3790  0.0770 -0.0641
   19MOL   H59213588   5.102   0.190   6.030 -0.2661 -0.5080  1.5114
   19MOL   H59313589   5.222   0.159   5.897 -0.3228 -0.6395 -0.5567
   19MOL   H59413590   5.272   0.136   6.063 -0.4996  1.1454 -0.1632
   19MOL   H59513591   5.066   7.765   5.904  0.1608 -1.0519 -0.6268
   19MOL   H59613592   5.113   7.713   6.061  0.6538 -0.5210 -0.9174
   19MOL   H59713593   5.224   7.565   5.927  3.4706 -1.5643  0.0684
   19MOL   H59813594   5.347   7.657   5.987  1.0917 -2.9092 -0.9405
   19MOL   H59913595   5.354   0.006   5.763  0.6261 -1.1419  0.2018
   19MOL   H60013596   5.222   7.716   5.706 -0.5643 -2.0582 -0.1552
   19MOL   H60113597   5.310   7.494   5.703 -1.0676  1.0723 -1.4582
   19MOL   H60213598   5.459   7.533   5.771  1.8816 -0.1300 -1.2718
   19MOL   H60313599   5.317   7.646   5.519 -0.9071  0.4184  0.7610
   19MOL   H60413600   5.452   7.529   5.518  1.7151  1.7869 -0.4620
   19MOL   H60513601   5.576   7.729   5.637 -0.3909 -1.3884  0.2689
   19MOL   H60613602   5.467   0.059   5.565  0.1587  0.9655 -2.7875
   19MOL   H60713603   5.499   7.760   5.353 -1.4059 -1.9136  1.6379
   19MOL   H60813604   5.651   0.047   5.394  1.0374 -1.4920 -2.0804
   19MOL   H60913605   6.023   7.541   5.475  2.0493 -1.0436  1.7309
   19MOL   H61013606   5.932   7.428   5.584  2.9958 -2.1936 -0.0454
   19MOL   H61113607   6.031   7.375   5.446 -0.6867 -1.5628  0.7755
   19MOL   H61213608   5.653   7.347   5.358  1.6697 -0.4181 -1.0175
   19MOL   H61313609   5.654   7.399   5.521 -1.9962 -1.4135 -1.1715
   19MOL   C61413610   5.047   6.938   5.930 -0.0934 -0.0898  0.2378
   19MOL   C61513611   5.100   7.084   5.931  0.2872 -0.2353 -0.2423
   19MOL   C61613612   5.232   7.098   6.005 -0.6655  0.0687  0.3377
   19MOL   C61713613   5.276   7.246   6.003  0.8374 -0.4792  0.6022
   19MOL   C61813614   5.416   7.280   6.067 -0.2895 -0.1893  0.2638
   19MOL   C61913615   5.532   7.239   5.971  0.7405 -0.1244 -0.3616
   19MOL   C62013616   5.674   7.307   5.970 -0.4600  0.2560  0.0102
   19MOL   C62113617   5.766   7.240   5.870 -0.0927 -0.0462  0.6518
   19MOL   O62213618   5.720   7.253   5.740  0.0809  0.1492  0.6201
   19MOL   C62313619   5.804   7.209   5.642 -0.5161 -0.2708  0.6363
   19MOL   O62413620   5.927   7.191   5.662  0.1183  0.5826  0.1334
   19MOL   C62513621   5.747   7.207   5.494  0.2735 -0.3902 -0.0667
   19MOL   C62613622   5.604   7.147   5.506 -0.5782  0.2796 -0.4814
   19MOL   C62713623   5.841   7.127   5.404 -0.0450 -0.8666  0.4230
   19MOL   H62813624   5.019   6.905   6.030  0.8416  1.2996  0.9807
   19MOL   H62913625   5.132   6.877   5.896 -0.4599  1.2414 -3.2662
   19MOL   H63013626   4.969   6.921   5.856 -0.2626  2.4208 -0.2182
   19MOL   H63113627   5.108   7.110   5.825 -0.5027 -1.2667 -0.5585
   19MOL   H63213628   5.020   7.149   5.965 -1.4607 -2.1781 -0.5740
   19MOL   H63313629   5.309   7.044   5.950 -1.5834  0.2966 -1.1809
   19MOL   H63413630   5.249   7.055   6.104  1.2970 -0.2148 -0.0892
   19MOL   H63513631   5.210   7.315   6.056  0.6116 -0.2614  0.0367
   19MOL   H63613632   5.272   7.287   5.902 -4.1419  0.9951  1.2767
   19MOL   H63713633   5.427   7.385   6.093  0.3454 -0.4722  1.1402
   19MOL   H63813634   5.427   7.223   6.159 -0.7189 -0.4294  0.1701
   19MOL   H63913635   5.542   7.132   5.984  0.5394 -0.0658  0.2881
   19MOL   H64013636   5.495   7.243   5.868  2.4618 -1.7764 -1.0758
   19MOL   H64113637   5.735   7.292   6.059  1.7607  1.5839 -1.2501
   19MOL   H64213638   5.662   7.415   5.958 -0.0652  0.4139  0.9788
   19MOL   H64313639   5.864   7.286   5.879  1.2165 -2.7584  0.9328
   19MOL   H64413640   5.781   7.133   5.885 -2.2700 -0.2605  1.4719
   19MOL   H64513641   5.595   7.065   5.577  0.6646  1.4857  1.1103
   19MOL   H64613642   5.553   7.126   5.412  1.7594  0.1395 -1.7434
   19MOL   H64713643   5.545   7.220   5.562  2.7590  1.5401  1.5061
   19MOL   H64813644   5.941   7.169   5.417  1.4380 -3.4075 -2.2530
   19MOL   H64913645   5.821   7.149   5.299  3.7855  0.0678 -0.1946
   19MOL   C65013646   6.541   7.670   5.165 -0.3667  0.2620 -0.1370
   19MOL   C65113647   6.491   7.633   5.310  0.6593  0.6139 -0.2171
   19MOL   C65213648   6.504   7.479   5.330 -0.3951 -0.1105  0.3598
   19MOL   C65313649   6.415   7.405   5.437 -0.5867 -0.9059  0.7799
   19MOL   C65413650   6.406   7.260   5.397  0.2197  0.2649  0.1959
   19MOL   C65513651   6.345   7.173   5.500  0.1110 -0.5884  0.3018
   19MOL   C65613652   6.337   7.020   5.461  0.4606 -0.4943 -0.4342
   19MOL   C65713653   6.232   6.989   5.353  0.0321  0.2292  0.3603
   19MOL   O65813654   6.102   6.988   5.408 -0.6073 -0.3170 -0.4821
   19MOL   C65913655   5.992   6.950   5.338  0.3226 -0.4357  0.4416
   19MOL   O66013656   5.996   6.896   5.223  0.3596 -0.3797 -0.0555
   19MOL   C66113657   5.856   6.977   5.402 -0.5825  0.6050 -0.0736
   19MOL   C66213658   5.739   6.908   5.313 -0.5089  0.0354  0.1923
   19MOL   C66313659   5.855   6.911   5.547 -0.2175 -0.4092  0.0892
   19MOL   H66413660   6.633   7.622   5.130  0.9787  1.3984  1.7251
   19MOL   H66513661   6.551   7.778   5.154 -0.9010  0.2474 -0.8103
   19MOL   H66613662   6.459   7.636   5.102  1.0140  0.5849 -2.1905
   19MOL   H66713663   6.387   7.662   5.319  0.9585  1.9338 -0.8964
   19MOL   H66813664   6.541   7.675   5.397 -3.2732  0.5061  2.2308
   19MOL   H66913665   6.608   7.446   5.327 -1.1121 -2.4622  0.1985
   19MOL   H67013666   6.465   7.441   5.235 -0.4386 -0.2918  0.4504
   19MOL   H67113667   6.315   7.448   5.449 -0.3751 -0.1989  0.0335
   19MOL   H67213668   6.465   7.406   5.534 -1.9386 -1.3215  1.4979
   19MOL   H67313669   6.502   7.214   5.370 -0.7490 -1.3463 -0.6018
   19MOL   H67413670   6.351   7.242   5.305  0.1401 -1.6300  0.5805
   19MOL   H67513671   6.387   7.186   5.600  0.3258 -1.9327  0.4046
   19MOL   H67613672   6.240   7.199   5.512  0.3924  0.6443  0.0825
   19MOL   H67713673   6.309   6.967   5.552 -1.4437  0.5398 -0.3989
   19MOL   H67813674   6.427   6.983   5.412 -0.2646 -2.4068 -0.3326
   19MOL   H67913675   6.258   6.895   5.305  1.0141  0.5258  0.3050
   19MOL   H68013676   6.247   7.066   5.278  0.4882  0.2110  0.4282
   19MOL   H68113677   5.767   6.810   5.274 -0.3755  0.7417 -1.5168
   19MOL   H68213678   5.726   6.970   5.225  2.6239  1.8667  0.9265
   19MOL   H68313679   5.642   6.900   5.362  0.0681 -1.3769  1.1300
   19MOL   H68413680   5.939   6.949   5.605  0.9113 -0.7190 -1.3384
   19MOL   H68513681   5.769   6.952   5.601  0.2989  3.5259 -1.8991
   19MOL   C68613682   6.774   6.922   5.867  0.2945  0.4996  0.3837
   19MOL   C68713683   6.819   6.894   5.725 -0.6071 -0.1893 -0.1570
   19MOL   C68813684   6.740   6.782   5.644 -0.1164 -0.2304  0.3098
   19MOL   C68913685   6.581   6.796   5.646  0.3029 -0.1506 -0.4699
   19MOL   C69013686   6.508   6.672   5.594 -0.2401  0.0844  0.6525
   19MOL   C69113687   6.358   6.699   5.557 -0.5568  0.2022  0.1297
   19MOL   C69213688   6.280   6.569   5.537  0.3770  0.0614 -0.3436
   19MOL   C69313689   6.151   6.571   5.450 -0.0963 -0.3851  0.6640
   19MOL   O69413690   6.067   6.671   5.512  0.1928  0.2951  0.0101
   19MOL   C69513691   5.934   6.673   5.483  0.3833  0.3965 -0.1881
   19MOL   O69613692   5.885   6.616   5.382 -0.5564  0.4444 -0.1928
   19MOL   C69713693   5.845   6.756   5.581  0.1550 -0.4627 -0.6861
   19MOL   C69813694   5.697   6.706   5.580  1.2206 -0.2010  0.2054
   19MOL   C69913695   5.889   6.736   5.725 -0.5777  0.0581 -0.1992
   19MOL   H70013696   6.726   6.836   5.913 -0.0401 -0.6676 -2.0484
   19MOL   H70113697   6.693   6.994   5.868 -0.0045  0.1470  1.4221
   19MOL   H70213698   6.854   6.951   5.936 -0.1221  1.2733  0.5412
   19MOL   H70313699   6.927   6.879   5.720 -0.6786 -0.5145 -0.8513
   19MOL   H70413700   6.797   6.980   5.661  0.7778  1.6520  1.7619
   19MOL   H70513701   6.776   6.687   5.683  0.5170 -0.7664 -1.5757
   19MOL   H70613702   6.758   6.784   5.537 -3.2301 -1.1595 -0.2849
   19MOL   H70713703   6.556   6.884   5.585  1.3629  0.4663 -0.0327
   19MOL   H70813704   6.538   6.820   5.743  0.9841 -0.1670 -0.1659
   19MOL   H70913705   6.517   6.593   5.669 -1.9768  0.9345  1.7849
   19MOL   H71013706   6.549   6.630   5.502  0.6714  1.0039  0.6292
   19MOL   H71113707   6.295   6.762   5.620 -1.0219 -0.4657  0.3434
   19MOL   H71213708   6.358   6.755   5.463 -1.0056 -0.5037 -0.2920
   19MOL   H71313709   6.343   6.490   5.495 -1.3172 -0.2313 -2.4220
   19MOL   H71413710   6.249   6.539   5.637  0.9338 -0.8543 -0.4452
   19MOL   H71513711   6.095   6.479   5.436  0.4943 -0.3492 -2.4391
   19MOL   H71613712   6.183   6.594   5.348  1.5078 -1.4786  0.8989
   19MOL   H71713713   5.637   6.716   5.490  1.4511 -1.0856 -0.0462
   19MOL   H71813714   5.700   6.605   5.620 -0.4705 -0.4473 -0.2685
   19MOL   H71913715   5.635   6.758   5.654  0.2434 -1.5179  0.3311
   19MOL   H72013716   5.826   6.791   5.796  0.2898 -1.4175  1.7377
   19MOL   H72113717   5.987   6.778   5.750  0.5689 -1.4151 -2.1666
   19MOL   H72213718   5.892   6.632   5.758  0.4532  0.1235 -0.0689
   20MOL     C113719   4.121   4.682   2.441 -0.7126  0.5354 -0.5772
   20MOL     C213720   4.215   4.701   2.322 -0.1704  0.5960  0.2651
   20MOL     C313721   4.370   4.686   2.361  0.6864 -0.1878  0.1613
   20MOL     C413722   4.463   4.679   2.236 -0.4351  0.0840  0.0518
   20MOL     C513723   4.611   4.676   2.271 -0.2264  0.6381 -0.8134
   20MOL     C613724   4.657   4.549   2.338 -0.1349  0.2729  0.1774
   20MOL     C713725   4.796   4.560   2.398 -0.0309 -0.3242 -1.4267
   20MOL     C813726   4.844   4.433   2.471 -0.5358  0.1515  0.3130
   20MOL     O913727   4.868   4.334   2.371 -0.5964 -0.2330 -0.1065
   20MOL    C1013728   4.787   4.231   2.328 -0.2282  0.9143 -0.4738
   20MOL    O1113729   4.683   4.194   2.375  0.1553 -0.4284  0.3834
   20MOL    C1213730   4.849   4.157   2.213 -0.0726 -0.7637 -1.0603
   20MOL    C1313731   4.957   4.062   2.274  0.1574 -0.1131  0.2262
   20MOL    C1413732   4.754   4.087   2.123  0.6885 -0.6072 -0.2256
   20MOL    H1513733   4.147   4.761   2.512 -1.0621  1.0103 -0.9710
   20MOL    H1613734   4.150   4.591   2.494 -2.4512  1.6534  2.3877
   20MOL    H1713735   4.013   4.683   2.428 -0.6093  2.4197 -1.5664
   20MOL    H1813736   4.191   4.795   2.272 -0.2376 -0.0632 -0.9413
   20MOL    H1913737   4.184   4.634   2.242 -1.2003 -0.3333  1.4248
   20MOL    H2013738   4.395   4.784   2.400 -0.4350  0.0606  0.2906
   20MOL    H2113739   4.390   4.614   2.441 -1.2832 -2.0556 -0.9552
   20MOL    H2213740   4.433   4.586   2.188 -0.4727  2.2153 -4.3147
   20MOL    H2313741   4.444   4.765   2.172 -3.5778 -1.0827 -0.6722
   20MOL    H2413742   4.629   4.764   2.333 -2.0828  1.0036 -0.7609
   20MOL    H2513743   4.668   4.697   2.180 -1.2901  2.6395 -1.0577
   20MOL    H2613744   4.670   4.476   2.258 -2.5920 -1.2248  1.0979
   20MOL    H2713745   4.588   4.502   2.407  0.3081 -0.1975  0.3077
   20MOL    H2813746   4.794   4.643   2.468  1.6048 -0.4807 -1.1805
   20MOL    H2913747   4.858   4.587   2.312  2.6883  0.0769  0.6086
   20MOL    H3013748   4.772   4.394   2.542  0.1793 -1.1072  0.3639
   20MOL    H3113749   4.930   4.463   2.531 -0.6968  0.9294  0.1669
   20MOL    H3213750   4.920   3.998   2.353 -0.7555 -0.6939 -0.6616
   20MOL    H3313751   4.993   3.985   2.205  0.7560  1.0703 -0.8245
   20MOL    H3413752   5.046   4.116   2.309  0.6274  0.8675 -2.3180
   20MOL    H3513753   4.666   4.055   2.179  1.4192 -0.7215  0.8670
   20MOL    H3613754   4.810   4.000   2.090  0.5315 -0.2260 -1.5389
   20MOL    H3713755   4.902   4.233   2.155  0.7619  0.4123  1.1825
   20MOL    C3813756   5.331   5.189   1.666  0.1699  0.3996  0.7436
   20MOL    C3913757   5.329   5.039   1.694 -0.0312 -0.5570 -0.1437
   20MOL    C4013758   5.187   4.996   1.745  0.1871  0.2153 -0.0918
   20MOL    C4113759   5.190   4.844   1.746  0.0878  0.4253 -0.3972
   20MOL    C4213760   5.059   4.767   1.794 -0.4577 -0.5304 -0.4737
   20MOL    C4313761   5.085   4.619   1.800  0.2137  0.0181 -0.3177
   20MOL    C4413762   4.969   4.540   1.862 -1.0410  0.0009  0.8244
   20MOL    C4513763   4.986   4.384   1.857 -0.3972  0.1137  0.7246
   20MOL    O4613764   4.867   4.333   1.916  0.2310 -0.3364  0.8051
   20MOL    C4713765   4.839   4.201   1.904  0.1366 -0.2515 -0.2720
   20MOL    O4813766   4.910   4.114   1.854 -0.2179  1.0617  0.0638
   20MOL    C4913767   4.715   4.152   1.988  0.7826 -0.0257 -0.7362
   20MOL    C5013768   4.623   4.272   2.021 -0.1284 -0.1274 -0.1791
   20MOL    C5113769   4.636   4.037   1.915 -0.1698 -1.1817  0.2426
   20MOL    H5213770   5.244   5.227   1.614  0.0502  0.4659  0.9906
   20MOL    H5313771   5.421   5.211   1.608  1.3757 -2.6732  1.3451
   20MOL    H5413772   5.340   5.238   1.763  1.5128  0.4083  0.6196
   20MOL    H5513773   5.419   5.013   1.750 -1.8099  0.4964  3.2901
   20MOL    H5613774   5.345   4.992   1.597  2.4372  1.6990 -0.9013
   20MOL    H5713775   5.166   5.039   1.843  0.2051 -0.3323  0.1536
   20MOL    H5813776   5.098   5.031   1.693 -1.4758 -2.9891  0.4273
   20MOL    H5913777   5.266   4.809   1.816 -0.5297  1.8583  1.0227
   20MOL    H6013778   5.216   4.804   1.648 -0.2151  1.1598 -0.7801
   20MOL    H6113779   5.031   4.795   1.896 -0.2137  0.9379 -0.7897
   20MOL    H6213780   4.974   4.791   1.730 -0.3158  0.0347 -0.4561
   20MOL    H6313781   5.098   4.595   1.695  2.1320 -1.5292  0.2405
   20MOL    H6413782   5.171   4.591   1.861  1.1628  1.5901 -0.9229
   20MOL    H6513783   4.888   4.575   1.797  1.2701  1.0467 -1.6138
   20MOL    H6613784   4.953   4.572   1.964  2.5295 -2.9037  2.4290
   20MOL    H6713785   5.082   4.370   1.908  0.8291  1.0311 -1.2465
   20MOL    H6813786   4.999   4.347   1.756 -0.8411 -0.8280  1.0089
   20MOL    H6913787   4.671   4.332   2.098  0.2108  0.7492 -1.0561
   20MOL    H7013788   4.596   4.338   1.938 -1.4626  1.7184  1.6694
   20MOL    H7113789   4.527   4.246   2.065 -1.1441 -0.5490 -2.5428
   20MOL    H7213790   4.567   3.988   1.984 -0.7112 -2.3632 -1.1161
   20MOL    H7313791   4.707   3.959   1.888  0.8050  0.1008 -0.9757
   20MOL    C7413792   4.736   5.104   1.870 -0.0284 -0.4819 -0.3032
   20MOL    C7513793   4.698   4.977   1.801 -0.4550  0.0525 -0.7467
   20MOL    C7613794   4.597   4.894   1.874 -0.1287 -0.2690 -0.0844
   20MOL    C7713795   4.547   4.766   1.795 -0.1557 -0.4280 -0.6511
   20MOL    C7813796   4.470   4.662   1.875  0.2849  0.3725 -0.0054
   20MOL    C7913797   4.393   4.562   1.788  0.1491 -0.1377 -0.3002
   20MOL    C8013798   4.323   4.453   1.868 -0.0134  0.1280  0.0137
   20MOL    C8113799   4.279   4.329   1.784 -0.1476  0.2349  0.7143
   20MOL    O8213800   4.382   4.236   1.755 -0.7028 -0.3453 -0.3798
   20MOL    C8313801   4.416   4.138   1.829  0.9256  0.0754 -0.1956
   20MOL    O8413802   4.337   4.098   1.917 -0.1431 -0.5134 -0.3982
   20MOL    C8513803   4.543   4.062   1.782  0.3773 -0.3306 -0.3472
   20MOL    C8613804   4.621   4.143   1.684 -0.5132  0.9374  0.6988
   20MOL    C8713805   4.505   3.921   1.726 -0.1395 -0.2460 -0.0687
   20MOL    H8813806   4.657   5.159   1.920 -1.3135  0.0958 -2.8818
   20MOL    H8913807   4.791   5.181   1.816  0.6070  1.0860  2.4900
   20MOL    H9013808   4.803   5.078   1.951 -0.3332  1.5235  0.6227
   20MOL    H9113809   4.782   4.910   1.786 -0.2608 -0.1233  1.0048
   20MOL    H9213810   4.666   5.001   1.700  0.6008 -0.3651 -1.1767
   20MOL    H9313811   4.640   4.857   1.967  0.2698 -1.1877 -0.6191
   20MOL    H9413812   4.505   4.948   1.896  0.8479  2.6209 -2.6549
   20MOL    H9513813   4.617   4.708   1.734 -1.7164  0.1526 -3.0531
   20MOL    H9613814   4.484   4.800   1.713 -0.9107 -3.5632 -1.4429
   20MOL    H9713815   4.541   4.612   1.940  0.1717  0.2727  0.0437
   20MOL    H9813816   4.410   4.706   1.956  2.4235 -0.3629  2.0387
   20MOL    H9913817   4.306   4.605   1.739 -0.0599 -0.0260  0.1641
   20MOL   H10013818   4.460   4.515   1.716  0.4631  2.0237 -1.4556
   20MOL   H10113819   4.390   4.425   1.949 -0.9918  1.1224  1.1871
   20MOL   H10213820   4.242   4.501   1.922  0.7448  0.3566  0.9714
   20MOL   H10313821   4.250   4.369   1.687 -0.3907 -0.9717  0.2705
   20MOL   H10413822   4.192   4.276   1.824 -0.1676 -1.0174 -0.9118
   20MOL   H10513823   4.718   4.097   1.662  0.1404  1.9325  1.4212
   20MOL   H10613824   4.645   4.238   1.733  0.3542  1.1042 -0.0472
   20MOL   H10713825   4.576   4.163   1.587  0.3007  1.3510  0.3973
   20MOL   H10813826   4.600   3.879   1.694  0.9106  0.4426  2.0749
   20MOL   H10913827   4.467   3.866   1.812 -2.1726  2.5494  0.9059
   20MOL   C11013828   3.741   4.407   2.289  0.0780  0.1801  0.6725
   20MOL   C11113829   3.754   4.265   2.253  0.2491  0.3237  0.0544
   20MOL   C11213830   3.817   4.246   2.114  0.0366  0.1737 -0.5443
   20MOL   C11313831   3.805   4.100   2.065  1.0654 -0.2847  0.3756
   20MOL   C11413832   3.901   4.059   1.956  0.8205 -0.1948  0.5936
   20MOL   C11513833   3.890   3.907   1.929  0.5244 -0.9040 -0.4116
   20MOL   C11613834   4.025   3.858   1.888  0.0580  0.7503 -0.3594
   20MOL   C11713835   4.074   3.922   1.758  0.0140 -0.2907 -0.3773
   20MOL   O11813836   4.202   3.873   1.718  0.1863 -0.1340  0.1188
   20MOL   C11913837   4.268   3.940   1.629  0.3973  0.7713  0.3454
   20MOL   O12013838   4.227   4.039   1.575  0.0120  0.4494  0.4146
   20MOL   C12113839   4.409   3.889   1.598 -0.2921  0.6710  0.0768
   20MOL   C12213840   4.412   3.731   1.589 -0.1242  0.1404 -0.0530
   20MOL   C12313841   4.463   3.940   1.458  0.1415 -1.1630  0.0330
   20MOL   H12413842   3.835   4.454   2.259 -0.3441  1.1406  0.8200
   20MOL   H12513843   3.664   4.460   2.231 -0.2502  1.5663  2.3440
   20MOL   H12613844   3.740   4.420   2.397  2.4783 -0.5130  0.7926
   20MOL   H12713845   3.666   4.202   2.243 -1.6572  2.7933  0.8112
   20MOL   H12813846   3.823   4.213   2.320  1.9580  1.0820 -1.0843
   20MOL   H12913847   3.921   4.276   2.127 -0.6237  2.5552 -0.4062
   20MOL   H13013848   3.781   4.317   2.039 -0.4170 -1.6227 -2.0574
   20MOL   H13113849   3.810   4.037   2.154  0.9966  1.4605  1.6415
   20MOL   H13213850   3.705   4.089   2.023  0.9720  1.2479  0.1762
   20MOL   H13313851   3.997   4.089   1.998  0.3296  2.3967 -0.0915
   20MOL   H13413852   3.902   4.113   1.861 -2.3191  0.2724  0.7547
   20MOL   H13513853   3.847   3.854   2.013 -3.1674 -0.0016 -1.6546
   20MOL   H13613854   3.819   3.894   1.847 -0.2271  0.5913 -0.0058
   20MOL   H13713855   4.026   3.751   1.863 -1.6927  0.3975  1.0340
   20MOL   H13813856   4.095   3.865   1.972  2.0509 -3.1011 -1.5458
   20MOL   H13913857   4.011   3.905   1.670 -0.8391 -0.1925  0.2079
   20MOL   H14013858   4.092   4.027   1.776  2.5845 -0.7494 -0.1369
   20MOL   H14113859   4.327   3.689   1.535  0.1702  0.8826 -1.1112
   20MOL   H14213860   4.504   3.693   1.544  0.9457  2.3656  0.1632
   20MOL   H14313861   4.399   3.692   1.690  0.7055  0.6173  0.2467
   20MOL   H14413862   4.572   3.933   1.458  0.2529  0.3521  1.3139
   20MOL   H14513863   4.444   4.047   1.457  1.9753 -0.8352 -1.0284
   20MOL   C14613864   5.527   3.640   1.287  0.4901 -0.2378  0.5439
   20MOL   C14713865   5.395   3.569   1.305 -0.4406 -0.1626  0.1317
   20MOL   C14813866   5.338   3.512   1.172  0.3955  0.6145 -0.0907
   20MOL   C14913867   5.188   3.476   1.171  0.4844  0.5157 -0.4184
   20MOL   C15013868   5.090   3.584   1.213 -0.4546  0.0578 -0.3601
   20MOL   C15113869   4.942   3.568   1.199  0.4227 -0.4898  0.5564
   20MOL   C15213870   4.862   3.684   1.249 -0.7751  0.1138 -0.3545
   20MOL   C15313871   4.708   3.654   1.237 -0.1164  0.4276  0.6167
   20MOL   O15413872   4.623   3.757   1.286 -0.0184 -0.4840 -0.6851
   20MOL   C15513873   4.492   3.749   1.269 -0.7342 -0.4796  0.3419
   20MOL   O15613874   4.434   3.651   1.223 -0.7605 -0.4590 -0.4858
   20MOL   C15713875   4.421   3.882   1.318  0.2298  0.1469  0.1841
   20MOL   C15813876   4.262   3.864   1.317  0.5854 -0.3533  0.3151
   20MOL   C15913877   4.446   4.005   1.217  0.3964  0.4161 -0.1950
   20MOL   H16013878   5.528   3.739   1.240  0.1916 -1.2274 -1.6194
   20MOL   H16113879   5.592   3.575   1.228  2.2127  0.2543  1.8657
   20MOL   H16213880   5.576   3.652   1.384 -0.4054 -0.8069  1.0708
   20MOL   H16313881   5.409   3.493   1.381 -1.0725 -2.1866 -1.7217
   20MOL   H16413882   5.322   3.643   1.337 -1.3789 -1.6302  1.4048
   20MOL   H16513883   5.397   3.424   1.145 -0.5180 -0.7247  2.0975
   20MOL   H16613884   5.359   3.584   1.093 -0.5253  1.1478  0.1500
   20MOL   H16713885   5.155   3.440   1.073  0.4876 -0.3663 -0.0947
   20MOL   H16813886   5.181   3.383   1.226 -0.3115  0.6193 -0.3352
   20MOL   H16913887   5.110   3.676   1.159  1.4037 -0.4051 -0.5146
   20MOL   H17013888   5.109   3.617   1.315 -1.2149  1.3638 -0.6392
   20MOL   H17113889   4.916   3.486   1.267  1.9147 -0.7916  0.7845
   20MOL   H17213890   4.922   3.527   1.100 -0.5484  2.9489 -0.7187
   20MOL   H17313891   4.892   3.716   1.349  0.8355 -3.3620  0.3235
   20MOL   H17413892   4.889   3.779   1.204  0.9712 -0.4108 -0.4223
   20MOL   H17513893   4.699   3.645   1.129  2.8725  0.1516  0.3252
   20MOL   H17613894   4.678   3.558   1.279 -0.5860  1.7394  3.3930
   20MOL   H17713895   4.206   3.954   1.345 -1.3408 -1.6560  0.7394
   20MOL   H17813896   4.231   3.780   1.379  0.1454 -1.2092 -1.0427
   20MOL   H17913897   4.229   3.825   1.221  1.9574 -2.4543  0.6633
   20MOL   H18013898   4.389   4.088   1.259 -0.0790  0.7856 -1.5366
   20MOL   H18113899   4.385   3.986   1.128 -2.0124  0.6404  1.3651
   20MOL   C18213900   3.970   3.580   0.349 -0.3133  0.3974  0.0250
   20MOL   C18313901   4.090   3.583   0.442  0.2379  0.0080  0.4677
   20MOL   C18413902   4.090   3.692   0.550 -1.2231  0.0452  0.0850
   20MOL   C18513903   4.199   3.665   0.658  0.3786  0.0181  0.2209
   20MOL   C18613904   4.194   3.771   0.777 -0.0781 -0.4612 -0.3679
   20MOL   C18713905   4.325   3.774   0.854 -0.4615 -1.1311 -0.2733
   20MOL   C18813906   4.447   3.828   0.774  0.1609  0.3696 -0.5591
   20MOL   C18913907   4.569   3.814   0.870 -0.4542  0.0634 -0.1972
   20MOL   O19013908   4.545   3.898   0.991 -0.0023 -0.1808  0.7375
   20MOL   C19113909   4.646   3.968   1.057 -0.2448  0.2486 -0.1286
   20MOL   O19213910   4.764   3.952   1.039 -0.6053  0.2457 -0.4884
   20MOL   C19313911   4.583   4.061   1.164 -0.5879  0.1246 -0.3998
   20MOL   C19413912   4.686   4.080   1.277  0.6318  0.1663  1.2806
   20MOL   C19513913   4.563   4.212   1.113  0.2193 -0.2849  0.5279
   20MOL   H19613914   3.885   3.587   0.417 -2.0872 -1.6309 -1.9123
   20MOL   H19713915   3.957   3.658   0.275 -0.9018 -0.8987 -1.2647
   20MOL   H19813916   3.961   3.481   0.304 -0.3460  0.5344 -0.2722
   20MOL   H19913917   4.178   3.589   0.379 -1.7261 -0.3209 -2.3624
   20MOL   H20013918   4.092   3.487   0.493 -2.3615  0.5405  1.7085
   20MOL   H20113919   4.108   3.782   0.492  1.2090 -1.1456 -1.0878
   20MOL   H20213920   3.992   3.702   0.597 -0.6947  0.0025  1.2321
   20MOL   H20313921   4.183   3.566   0.701  0.5526 -0.2858 -0.4072
   20MOL   H20413922   4.302   3.655   0.625  0.0888  0.1931 -0.7443
   20MOL   H20513923   4.106   3.752   0.839 -1.2063  2.9002 -0.8354
   20MOL   H20613924   4.181   3.867   0.727 -0.1762  0.1408  0.7979
   20MOL   H20713925   4.335   3.681   0.910 -1.4373 -0.3573  1.2269
   20MOL   H20813926   4.304   3.848   0.931  0.2776 -1.0441 -0.1507
   20MOL   H20913927   4.470   3.757   0.695  2.8257 -0.2188  0.6963
   20MOL   H21013928   4.434   3.927   0.731  1.3698  0.7863  0.0348
   20MOL   H21113929   4.653   3.859   0.818 -0.8984 -0.0590 -1.0271
   20MOL   H21213930   4.587   3.707   0.881  1.6221  0.3738 -0.4640
   20MOL   H21313931   4.725   3.985   1.312 -1.1673  0.0305  2.9409
   20MOL   H21413932   4.772   4.135   1.238 -0.8373 -1.1847 -4.3207
   20MOL   H21513933   4.636   4.135   1.357 -0.1916 -0.5982  1.2935
   20MOL   H21613934   4.508   4.260   1.195 -1.2700  0.1433 -0.6848
   20MOL   H21713935   4.659   4.263   1.109  0.4344 -0.5852  1.6169
   20MOL   C21813936   3.713   4.564   1.689 -0.0582  0.2473  0.2317
   20MOL   C21913937   3.829   4.480   1.727 -0.4428  0.2061  0.0038
   20MOL   C22013938   3.953   4.497   1.639  0.0137 -0.1248 -0.2590
   20MOL   C22113939   3.940   4.447   1.501  0.0479 -0.0709  0.2409
   20MOL   C22213940   4.060   4.475   1.407  0.5739 -1.0075 -0.6227
   20MOL   C22313941   4.056   4.417   1.271  0.4807 -0.5655  0.4280
   20MOL   C22413942   4.093   4.269   1.272  0.2929 -0.3560  0.0780
   20MOL   C22513943   4.139   4.226   1.137  0.2871  0.9941 -0.4395
   20MOL   O22613944   4.270   4.273   1.109  0.0786  0.0488  0.4007
   20MOL   C22713945   4.333   4.229   0.992  0.8223 -0.3534 -0.2829
   20MOL   O22813946   4.276   4.161   0.911 -0.3109 -0.5780  0.0504
   20MOL   C22913947   4.482   4.256   0.986  0.1181  0.6879  0.5060
   20MOL   C23013948   4.548   4.191   0.859  0.2884  0.9298 -0.0055
   20MOL   C23113949   4.491   4.417   0.980  0.5410  0.1823  0.1151
   20MOL   H23213950   3.731   4.671   1.676  1.9797  0.1480  1.9175
   20MOL   H23313951   3.633   4.555   1.762 -0.3983  1.7556  0.0530
   20MOL   H23413952   3.661   4.530   1.600  0.2589  2.5829 -0.8881
   20MOL   H23513953   3.803   4.374   1.735 -0.3127  0.3503  2.6844
   20MOL   H23613954   3.845   4.506   1.832 -1.4719 -2.4017  0.8343
   20MOL   H23713955   3.978   4.602   1.626 -1.6598  0.5150  1.3875
   20MOL   H23813956   4.045   4.462   1.686 -0.7831  0.2653  1.6646
   20MOL   H23913957   3.938   4.338   1.512 -2.4552  0.0733  1.6413
   20MOL   H24013958   3.849   4.462   1.444  0.5487 -0.0530 -0.5647
   20MOL   H24113959   4.076   4.583   1.406 -0.1489 -0.9038 -3.1951
   20MOL   H24213960   4.154   4.447   1.454  0.0179  1.8930  2.4051
   20MOL   H24313961   3.967   4.444   1.213 -1.8217 -3.6730  2.3195
   20MOL   H24413962   4.128   4.476   1.215 -0.6275 -1.4298 -1.9889
   20MOL   H24513963   4.007   4.213   1.309 -1.7524  1.9873 -1.0168
   20MOL   H24613964   4.172   4.260   1.347 -0.8079 -0.0068  1.2967
   20MOL   H24713965   4.061   4.264   1.071 -0.9158 -1.7402 -0.6336
   20MOL   H24813966   4.141   4.118   1.124  2.1419  1.0207 -0.6169
   20MOL   H24913967   4.514   4.251   0.774  2.5097  1.6669 -0.4119
   20MOL   H25013968   4.517   4.089   0.838 -0.8367  1.1086  0.7254
   20MOL   H25113969   4.654   4.212   0.844  0.2829  1.4295  0.6301
   20MOL   H25213970   4.473   4.448   1.083  1.1415  0.9572 -0.0115
   20MOL   H25313971   4.597   4.440   0.969  0.2487  1.3685 -0.2656
   20MOL   C25413972   3.542   4.254   0.466  1.1447  0.1435  0.1031
   20MOL   C25513973   3.637   4.177   0.563  0.0302  0.5727 -0.6351
   20MOL   C25613974   3.780   4.188   0.541  0.3432 -0.1890  0.6666
   20MOL   C25713975   3.861   4.081   0.615 -0.1252  0.0163 -0.2669
   20MOL   C25813976   4.007   4.100   0.585  0.8756  0.1857  0.7714
   20MOL   C25913977   4.087   4.220   0.641  0.4471 -0.4199  0.0929
   20MOL   C26013978   4.216   4.218   0.560 -0.1786 -0.1595 -0.7147
   20MOL   C26113979   4.303   4.351   0.556  0.5725  0.0954 -0.4259
   20MOL   O26213980   4.330   4.377   0.691 -0.6448 -0.2973  0.0201
   20MOL   C26313981   4.419   4.473   0.728  0.3848 -0.0308 -0.2950
   20MOL   O26413982   4.500   4.531   0.653  0.4719  0.5820 -0.1491
   20MOL   C26513983   4.423   4.516   0.879  0.7464 -0.1345 -0.5456
   20MOL   C26613984   4.505   4.647   0.895  0.3309 -0.0365  0.4118
   20MOL   C26713985   4.269   4.552   0.925  0.7216 -0.0240  0.1020
   20MOL   H26813986   3.568   4.359   0.466  0.4502  0.3159  0.6072
   20MOL   H26913987   3.552   4.211   0.366 -0.2109 -1.1523  0.5143
   20MOL   H27013988   3.441   4.253   0.505  0.8581  1.0877 -0.6076
   20MOL   H27113989   3.607   4.188   0.667 -0.2284  2.0511 -0.8516
   20MOL   H27213990   3.618   4.069   0.558  0.5866  0.4040  0.6929
   20MOL   H27313991   3.807   4.288   0.576 -0.6896 -0.5321  2.4892
   20MOL   H27413992   3.791   4.170   0.434 -0.8475  0.3582  0.4423
   20MOL   H27513993   3.830   3.979   0.593 -3.0473  0.4020  1.8838
   20MOL   H27613994   3.847   4.104   0.721 -1.8176 -0.5331 -0.3558
   20MOL   H27713995   4.055   4.007   0.615  3.3021  0.9534 -0.5403
   20MOL   H27813996   4.017   4.097   0.476 -1.0585  0.5506  0.5746
   20MOL   H27913997   4.121   4.203   0.743  3.0688 -1.8689 -0.9884
   20MOL   H28013998   4.037   4.317   0.635  2.3979  0.7237  1.5979
   20MOL   H28113999   4.276   4.142   0.610  0.1145  0.0232 -0.7845
   20MOL   H28214000   4.210   4.190   0.455  0.8796  0.3054 -0.9150
   20MOL   H28314001   4.394   4.332   0.498  0.4525  0.0734 -0.6049
   20MOL   H28414002   4.256   4.439   0.513  1.0680  0.3155 -0.5267
   20MOL   H28514003   4.469   4.726   0.829 -0.9949  0.7282  2.0196
   20MOL   H28614004   4.511   4.675   1.000 -2.9439  0.7792  0.4154
   20MOL   H28714005   4.608   4.643   0.858  1.7028  0.7143  4.0172
   20MOL   H28814006   4.258   4.557   1.034 -3.0186  0.7359 -0.2362
   20MOL   H28914007   4.222   4.456   0.903  0.4936  0.2779 -0.7481
   20MOL   C29014008   3.464   4.084   1.512  0.4681 -0.2661 -0.2690
   20MOL   C29114009   3.455   4.165   1.387  0.3644 -0.6664 -0.4040
   20MOL   C29214010   3.590   4.171   1.307 -0.3373  0.4540  0.1985
   20MOL   C29314011   3.565   4.231   1.163 -0.7938  1.1279  0.0425
   20MOL   C29414012   3.704   4.272   1.112  0.3122  0.4006  0.1967
   20MOL   C29514013   3.696   4.308   0.958  0.1857  0.2703  0.4346
   20MOL   C29614014   3.827   4.372   0.913 -0.2044  0.2180  0.1935
   20MOL   C29714015   3.846   4.528   0.928 -0.5855  0.0941 -0.1329
   20MOL   O29814016   3.981   4.564   0.896  0.1262  0.1717  0.2820
   20MOL   C29914017   4.043   4.674   0.943  0.7207 -0.7333 -0.6057
   20MOL   O30014018   3.995   4.749   1.034  0.5797  0.2715 -0.0700
   20MOL   C30114019   4.184   4.683   0.887 -0.4148 -0.0303  0.9549
   20MOL   C30214020   4.248   4.800   0.953  0.3548  0.1440 -0.5877
   20MOL   C30314021   4.187   4.697   0.732  0.3417 -0.1919 -0.4188
   20MOL   H30414022   3.364   4.048   1.538  1.0054 -1.5672 -0.0007
   20MOL   H30514023   3.483   4.158   1.590 -3.5655  1.1711 -0.5085
   20MOL   H30614024   3.533   4.000   1.513  1.2035  0.2662 -3.0571
   20MOL   H30714025   3.419   4.267   1.404  1.3903 -0.4400  0.4711
   20MOL   H30814026   3.380   4.123   1.320 -4.0650  4.1123  1.1872
   20MOL   H30914027   3.605   4.064   1.291 -0.9095  0.5847 -1.3267
   20MOL   H31014028   3.668   4.213   1.371  0.9294 -0.7807 -0.5269
   20MOL   H31114029   3.523   4.152   1.101  1.4506 -0.1791  0.1246
   20MOL   H31214030   3.502   4.320   1.163 -0.4271  1.4056  1.2602
   20MOL   H31314031   3.737   4.361   1.166 -0.1747 -0.7329  2.4176
   20MOL   H31414032   3.769   4.189   1.138 -2.3925 -1.2988  1.7619
   20MOL   H31514033   3.615   4.380   0.945 -0.8005 -1.1059 -1.1975
   20MOL   H31614034   3.680   4.220   0.896  0.2589 -0.4109  1.3796
   20MOL   H31714035   3.828   4.364   0.805  1.2083  0.7823  0.1517
   20MOL   H31814036   3.914   4.321   0.955 -1.2383 -0.5238  1.4662
   20MOL   H31914037   3.833   4.569   1.028 -0.4750 -0.7581  0.2384
   20MOL   H32014038   3.784   4.590   0.863  2.0947  1.6796 -1.2477
   20MOL   H32114039   4.184   4.888   0.947  0.4733  0.1963 -1.0668
   20MOL   H32214040   4.340   4.839   0.909  0.6397  0.2651  0.0912
   20MOL   H32314041   4.266   4.790   1.060 -2.3166 -1.6248 -0.2563
   20MOL   H32414042   4.291   4.674   0.710 -0.1158 -1.6783 -1.1261
   20MOL   H32514043   4.138   4.613   0.683 -1.9459  1.7380 -1.5376
   20MOL   C32614044   3.099   4.597   0.318  0.7856 -0.4649  0.8619
   20MOL   C32714045   3.118   4.538   0.460 -0.0818  0.0168  0.6119
   20MOL   C32814046   3.259   4.507   0.500 -0.1452 -0.7608  0.1742
   20MOL   C32914047   3.324   4.637   0.546  0.0508 -0.2829 -0.0436
   20MOL   C33014048   3.474   4.614   0.562 -0.1383 -0.0359 -0.5444
   20MOL   C33114049   3.553   4.745   0.603  0.8672  0.1137 -0.4627
   20MOL   C33214050   3.704   4.724   0.597 -0.7128 -0.0423 -0.3993
   20MOL   C33314051   3.785   4.837   0.674 -0.0474  0.9436  0.4483
   20MOL   O33414052   3.916   4.797   0.664 -0.2804 -0.2684  0.0901
   20MOL   C33514053   4.017   4.883   0.682  0.0226  0.1146  0.7539
   20MOL   O33614054   4.010   4.994   0.734  0.4301  0.7727 -0.2330
   20MOL   C33714055   4.157   4.826   0.650  0.2421 -0.8225 -0.2856
   20MOL   C33814056   4.266   4.942   0.664 -0.2351  0.2941 -0.3597
   20MOL   C33914057   4.161   4.772   0.501 -0.0342 -0.0501  1.0159
   20MOL   H34014058   3.170   4.556   0.246 -2.2414 -1.4545 -1.6758
   20MOL   H34114059   3.126   4.703   0.319  1.1159 -0.5166 -1.0231
   20MOL   H34214060   2.997   4.594   0.277  1.2215  2.9539 -0.6388
   20MOL   H34314061   3.058   4.448   0.446  0.5888 -0.1404 -1.2701
   20MOL   H34414062   3.078   4.606   0.536  0.0603 -0.1174  0.8085
   20MOL   H34514063   3.314   4.463   0.417 -0.1899  0.4011 -0.4863
   20MOL   H34614064   3.256   4.428   0.574 -0.0720 -2.2902 -1.4325
   20MOL   H34714065   3.300   4.678   0.644 -1.0249  1.0645 -0.8533
   20MOL   H34814066   3.303   4.722   0.481  0.6404  1.0373  1.4570
   20MOL   H34914067   3.479   4.552   0.651 -2.2949 -0.9023 -0.9989
   20MOL   H35014068   3.511   4.555   0.478  0.7577 -3.4097  2.0956
   20MOL   H35114069   3.517   4.829   0.543 -1.3163  0.6532  1.5150
   20MOL   H35214070   3.526   4.770   0.706  2.0071 -1.3160  0.1901
   20MOL   H35314071   3.737   4.719   0.493  4.1764 -0.1960  1.0083
   20MOL   H35414072   3.729   4.629   0.646 -2.1922  0.4298  1.3140
   20MOL   H35514073   3.771   4.939   0.639  1.1208  1.9690  2.8083
   20MOL   H35614074   3.751   4.839   0.778 -0.4781 -1.1861  0.3603
   20MOL   H35714075   4.284   4.982   0.764  1.1243 -1.0707 -0.0389
   20MOL   H35814076   4.355   4.894   0.625 -0.6778 -1.8527  1.2016
   20MOL   H35914077   4.247   5.032   0.606  0.9358  0.7838  0.0006
   20MOL   H36014078   4.254   4.716   0.490 -0.1074 -0.0855  0.5967
   20MOL   H36114079   4.087   4.692   0.492  1.1101 -0.8542 -1.5954
   20MOL   C36214080   4.621   4.154   0.465 -0.4061 -0.5988 -0.5641
   20MOL   C36314081   4.748   4.217   0.405  1.2365  0.3980  0.7009
   20MOL   C36414082   4.770   4.362   0.433  0.1334  0.1309 -0.4196
   20MOL   C36514083   4.667   4.451   0.369 -0.1314  0.0151 -0.0553
   20MOL   C36614084   4.691   4.602   0.394  0.9424  0.7588  0.7360
   20MOL   C36714085   4.598   4.700   0.310 -0.4839  0.1545  0.3597
   20MOL   C36814086   4.612   4.848   0.335 -0.0013  1.0270 -0.1716
   20MOL   C36914087   4.500   4.936   0.274  0.0523  0.2833 -0.0210
   20MOL   O37014088   4.379   4.872   0.320  0.0516 -0.0153 -0.0253
   20MOL   C37114089   4.266   4.942   0.340 -0.4656  0.4639  0.8323
   20MOL   O37214090   4.259   5.061   0.329 -0.5052  0.1954  0.3399
   20MOL   C37314091   4.140   4.860   0.366 -0.2705  0.8434 -0.5490
   20MOL   C37414092   4.023   4.955   0.387 -0.0808  0.4851  0.0844
   20MOL   C37514093   4.120   4.751   0.247 -0.4551 -0.1697 -0.7035
   20MOL   H37614094   4.590   4.199   0.559  0.5705  1.0720 -1.0136
   20MOL   H37714095   4.539   4.162   0.394 -0.4275  1.7159 -0.3197
   20MOL   H37814096   4.641   4.048   0.477 -0.6532 -0.7438 -1.4035
   20MOL   H37914097   4.752   4.199   0.298 -1.1285  1.9658  0.3092
   20MOL   H38014098   4.836   4.159   0.433  1.6730 -0.8026 -2.8801
   20MOL   H38114099   4.870   4.392   0.402  0.6069 -1.7994 -0.8255
   20MOL   H38214100   4.774   4.367   0.541 -1.0799 -1.1228 -0.3183
   20MOL   H38314101   4.574   4.419   0.416  0.4980 -0.9187  0.5812
   20MOL   H38414102   4.643   4.438   0.263 -2.9491  1.2530  0.3743
   20MOL   H38514103   4.694   4.627   0.500 -4.4020  0.6217  1.0478
   20MOL   H38614104   4.793   4.623   0.360  0.5476 -0.7740 -1.5154
   20MOL   H38714105   4.494   4.673   0.332 -1.0053  1.9325  0.1202
   20MOL   H38814106   4.620   4.676   0.206  0.5416  0.9298  0.3925
   20MOL   H38914107   4.711   4.877   0.300  1.0033  0.1138  1.8349
   20MOL   H39014108   4.610   4.871   0.442  0.2646  0.1515  0.0222
   20MOL   H39114109   4.516   5.038   0.309 -1.2544  0.1541  1.0100
   20MOL   H39214110   4.502   4.935   0.165  0.2839  0.9851 -0.0277
   20MOL   H39314111   3.932   4.898   0.407 -0.3962  0.6665 -0.7777
   20MOL   H39414112   4.040   5.035   0.458  0.8605  1.4018 -1.1644
   20MOL   H39514113   4.000   5.007   0.294 -0.2249 -1.1256 -0.8162
   20MOL   H39614114   4.208   4.687   0.248  1.3467  2.2536  1.5269
   20MOL   H39714115   4.039   4.687   0.282  1.4217 -1.8728  0.5928
   20MOL   C39814116   4.205   4.772   7.059 -0.6643  0.0015 -0.9043
   20MOL   C39914117   4.174   4.733   7.197  0.0347 -0.4134 -0.4467
   20MOL   C40014118   4.039   4.673   7.225 -0.1484  0.7095 -0.9847
   20MOL   C40114119   4.029   4.632   7.367  0.6384  0.3984  0.6982
   20MOL   C40214120   3.902   4.679   7.429  0.0488 -0.0826 -0.0047
   20MOL   C40314121   3.900   4.839   7.433 -0.0416  0.8461  0.3383
   20MOL   C40414122   3.787   4.899   7.516 -0.2457  0.2960 -0.0599
   20MOL   C40514123   3.786   4.857   7.665 -0.2736  0.3727 -0.4037
   20MOL   O40614124   3.916   4.858   7.723 -0.4043 -0.0833  0.8374
   20MOL   C40714125   3.943   4.816   0.067 -0.3171  0.3650  0.0016
   20MOL   O40814126   3.853   4.808   0.151  0.0657  0.1710 -0.1164
   20MOL   C40914127   4.090   4.787   0.097 -0.2846 -0.4618  0.2604
   20MOL   C41014128   4.169   4.898   0.040  0.2453  0.0944 -0.4065
   20MOL   C41114129   4.130   4.666   0.005  0.1582  0.3157  0.3303
   20MOL   H41214130   4.302   4.729   7.034  0.6256  0.3276  3.1516
   20MOL   H41314131   4.209   4.881   7.052 -2.3431  0.5044  3.8053
   20MOL   H41414132   4.131   4.730   6.991 -2.8122  2.9781 -0.5248
   20MOL   H41514133   4.167   4.821   7.261  2.0100 -0.8146  0.3579
   20MOL   H41614134   4.252   4.670   7.239  1.7991  0.1436 -2.7972
   20MOL   H41714135   3.950   4.731   7.200 -0.1580  0.4750 -1.5221
   20MOL   H41814136   4.040   4.584   7.162 -2.0836  0.3552 -0.5643
   20MOL   H41914137   4.120   4.644   7.426  1.9841  0.9925 -1.4349
   20MOL   H42014138   4.037   4.523   7.363  1.3263  0.4564  0.2635
   20MOL   H42114139   3.822   4.641   7.366  0.2607  0.9486 -0.9151
   20MOL   H42214140   3.897   4.633   7.527  1.4165 -1.3805 -0.5274
   20MOL   H42314141   3.901   4.882   7.333 -1.2280 -0.2197 -0.1474
   20MOL   H42414142   3.993   4.865   7.483 -0.1521 -1.8860  2.0798
   20MOL   H42514143   3.795   5.008   7.516 -2.4526  0.4882 -0.7559
   20MOL   H42614144   3.684   4.881   7.484 -0.2600 -0.5454  0.4504
   20MOL   H42714145   3.719   4.900   7.741  1.0655  0.6354  0.6449
   20MOL   H42814146   3.763   4.751   7.668  3.2202 -0.4263  0.0925
   20MOL   H42914147   4.159   4.925   7.715  0.0463  1.1685 -0.1176
   20MOL   H43014148   4.277   4.885   0.047  0.2023  0.2054  0.5623
   20MOL   H43114149   4.149   4.997   0.081 -1.7952 -0.9356  1.1872
   20MOL   H43214150   4.236   4.658   7.763  0.2450 -2.7145  1.6694
   20MOL   H43314151   4.092   4.696   7.687 -0.2438 -0.6279  0.1868
   20MOL   C43414152   5.055   4.227   7.746 -0.7808  0.4706  0.1221
   20MOL   C43514153   4.921   4.160   7.770 -0.5571 -0.3060 -0.3640
   20MOL   C43614154   4.804   4.260   7.739 -0.4400  0.2641  0.4427
   20MOL   C43714155   4.667   4.183   7.767  0.2549 -0.3227 -0.3936
   20MOL   C43814156   4.538   4.250   7.722  0.9281  0.3283 -0.9037
   20MOL   C43914157   4.412   4.172   7.743 -0.6290 -0.8108 -0.1339
   20MOL   C44014158   4.372   4.174   0.110 -0.6204  0.5919  0.3339
   20MOL   C44114159   4.360   4.306   0.175  0.7539 -0.6129 -0.1494
   20MOL   O44214160   4.280   4.398   0.101  0.0507  0.3094  0.0305
   20MOL   C44314161   4.161   4.449   0.148 -0.0279 -0.3812  0.4692
   20MOL   O44414162   4.111   4.433   0.258  0.3693 -0.0277  0.2089
   20MOL   C44514163   4.086   4.513   0.029 -0.5167  0.3729  0.1074
   20MOL   C44614164   4.129   4.441   7.677  0.6740 -0.3675  0.7648
   20MOL   C44714165   3.926   4.510   0.048  0.0160 -0.2044 -0.0549
   20MOL   H44814166   5.137   4.156   7.739  0.0949  1.6513 -1.9367
   20MOL   H44914167   5.079   4.300   0.044 -1.2555  1.9714 -1.1197
   20MOL   H45014168   5.050   4.280   7.651  1.8471 -0.2820 -0.4778
   20MOL   H45114169   4.898   4.125   0.091 -1.1371  2.1373  0.3872
   20MOL   H45214170   4.911   4.081   7.695 -2.0315  1.1104 -1.6954
   20MOL   H45314171   4.813   4.296   7.636 -1.3198 -0.0105  0.2667
   20MOL   H45414172   4.799   4.347   0.024  0.2134  1.4786 -1.0939
   20MOL   H45514173   4.667   4.165   0.095  0.4377 -2.7080 -0.7754
   20MOL   H45614174   4.666   4.085   7.720  1.3622 -0.1348 -0.8363
   20MOL   H45714175   4.530   4.349   7.767 -0.1787  0.5719 -1.6249
   20MOL   H45814176   4.548   4.255   7.614  0.5617 -0.8262 -0.9870
   20MOL   H45914177   4.408   4.070   7.703  1.3719 -1.5904  1.5276
   20MOL   H46014178   4.334   4.225   7.690 -1.0684 -2.6590 -1.3706
   20MOL   H46114179   4.284   4.110   0.122  0.6076 -1.1602  0.0396
   20MOL   H46214180   4.443   4.121   0.173  0.4494 -0.2134 -1.5113
   20MOL   H46314181   4.456   4.358   0.175 -0.1842  1.2048 -1.7234
   20MOL   H46414182   4.339   4.296   0.281  1.2438  0.0499  0.0156
   20MOL   H46514183   4.059   4.476   7.601  1.3369 -0.2531  0.2092
   20MOL   H46614184   4.227   4.474   7.643  1.1979 -1.1657  1.4735
   20MOL   H46714185   4.128   4.332   7.676  1.9335 -0.3772  0.6838
   20MOL   H46814186   3.909   4.550   0.148 -2.2950 -0.7022 -0.2320
   20MOL   H46914187   3.888   4.572   7.746 -2.0217 -0.7940  0.4410
   20MOL   C47014188   2.876   5.143   7.605 -0.1248 -0.1237 -0.4947
   20MOL   C47114189   2.943   5.060   7.712  0.1038 -0.2206 -0.3383
   20MOL   C47214190   3.077   5.015   7.680  0.0495  0.0504  0.2168
   20MOL   C47314191   3.135   4.916   0.005  0.8000 -0.0483  0.1370
   20MOL   C47414192   3.269   4.848   7.734  0.7525  0.5085  0.3168
   20MOL   C47514193   3.324   4.738   0.057  0.1744 -0.4799  0.5900
   20MOL   C47614194   3.461   4.683   0.016  0.9592 -0.9202  0.9918
   20MOL   C47714195   3.521   4.571   0.108  0.4349  0.1286  0.5663
   20MOL   O47814196   3.636   4.515   0.044  0.3874 -0.1900 -0.0858
   20MOL   C47914197   3.708   4.415   0.105 -0.2112 -0.4333 -0.4028
   20MOL   O48014198   3.683   4.366   0.213 -0.3439  0.3625 -0.4066
   20MOL   C48114199   3.847   4.377   0.031  0.5278 -0.9353  0.0669
   20MOL   C48214200   3.810   4.359   7.660  0.1017  0.4763  0.2472
   20MOL   C48314201   3.908   4.245   0.094  0.9484  0.2508  0.3264
   20MOL   H48414202   2.915   5.123   7.506  1.2869 -1.0413  0.2320
   20MOL   H48514203   2.908   5.246   7.616 -0.4649  0.1081 -1.5986
   20MOL   H48614204   2.767   5.140   7.611 -0.0545  0.3877  1.3086
   20MOL   H48714205   2.949   5.110   0.029 -3.4535 -1.3491  0.5547
   20MOL   H48814206   2.883   4.976   7.746  0.0517  0.0104  0.1426
   20MOL   H48914207   3.068   4.954   7.590 -0.4482 -0.8029  0.8367
   20MOL   H49014208   3.139   5.103   7.669  0.9782 -0.6876 -0.5563
   20MOL   H49114209   3.144   4.966   0.102 -2.7363 -1.8479  1.4780
   20MOL   H49214210   3.066   4.838   0.039  0.8015  0.4792  1.3697
   20MOL   H49314211   3.254   4.807   7.634  1.3643 -1.2080  0.9099
   20MOL   H49414212   3.339   4.931   7.723  0.4960  0.7862  0.7478
   20MOL   H49514213   3.333   4.783   0.156  1.6277  1.4286 -0.3778
   20MOL   H49614214   3.250   4.658   0.061 -0.6854  0.0953 -2.7936
   20MOL   H49714215   3.457   4.663   7.688  1.3939  0.6646  0.6673
   20MOL   H49814216   3.532   4.765   0.022 -1.3350  1.5034 -2.5501
   20MOL   H49914217   3.448   4.491   0.119 -1.0297  1.1996 -1.0366
   20MOL   H50014218   3.554   4.604   0.206 -1.0389  2.2234  0.3796
   20MOL   H50114219   3.786   4.450   7.605  4.0858  2.4876  1.6798
   20MOL   H50214220   3.734   4.288   7.627  0.6230  0.7778 -1.6987
   20MOL   H50314221   3.898   4.322   7.607 -1.8986 -2.4182 -1.2363
   20MOL   H50414222   4.014   4.244   0.066  0.7473 -0.1744 -0.4516
   20MOL   H50514223   3.911   4.259   0.202  1.6452  0.7375  0.2488
   20MOL   C50614224   4.397   4.299   6.808  0.5250  0.3867 -0.4510
   20MOL   C50714225   4.264   4.367   6.849  0.2905  0.1135  0.3097
   20MOL   C50814226   4.244   4.388   7.002  0.2507 -0.5535 -0.0416
   20MOL   C50914227   4.212   4.250   7.069 -0.1241 -0.3797 -0.1239
   20MOL   C51014228   4.162   4.276   7.219 -0.8812  0.3616  0.1166
   20MOL   C51114229   4.146   4.153   7.309 -0.0013 -0.1247  0.3090
   20MOL   C51214230   4.093   4.180   7.444 -0.2221  1.0410 -0.4720
   20MOL   C51314231   4.082   4.047   7.525 -0.2581  0.0873  0.0254
   20MOL   O51414232   4.037   4.072   7.662  0.0302 -0.0589 -0.4327
   20MOL   C51514233   3.905   4.075   7.693 -0.6943  0.0558 -0.2303
   20MOL   O51614234   3.825   4.055   7.601 -0.0899  0.1882 -0.3254
   20MOL   C51714235   3.862   4.094   0.063 -0.5399 -0.4533  0.1363
   20MOL   C51814236   3.950   3.998   0.146  0.5976 -0.5173  0.6223
   20MOL   C51914237   3.708   4.075   0.085  0.7344  0.2402 -0.0427
   20MOL   H52014238   4.484   4.356   6.840 -1.6447  2.3066  2.2422
   20MOL   H52114239   4.400   4.297   6.699  0.8624 -1.4322 -0.4234
   20MOL   H52214240   4.401   4.200   6.852  1.3265  1.5995  2.2970
   20MOL   H52314241   4.175   4.323   6.803 -0.5678  2.8253 -0.7090
   20MOL   H52414242   4.268   4.464   6.800 -1.3148 -0.5452 -1.2053
   20MOL   H52514243   4.328   4.441   7.048  0.2418 -0.2536 -0.3718
   20MOL   H52614244   4.169   4.463   7.026 -0.9328 -1.7444 -0.0144
   20MOL   H52714245   4.131   4.198   7.017 -1.4394 -0.9002  2.3856
   20MOL   H52814246   4.300   4.186   7.070  1.6169  1.9464  0.2634
   20MOL   H52914247   4.224   4.355   7.263 -0.7957  1.1277 -1.3678
   20MOL   H53014248   4.068   4.329   7.227 -1.1650 -0.2296  0.7749
   20MOL   H53114249   4.240   4.099   7.319 -0.5066 -1.0532  0.1041
   20MOL   H53214250   4.081   4.081   7.260 -0.8811  0.0172  1.2465
   20MOL   H53314251   3.991   4.219   7.439 -0.5960  0.0672 -0.5665
   20MOL   H53414252   4.161   4.248   7.496  0.3921 -0.5760  0.8799
   20MOL   H53514253   4.171   3.983   7.525  0.2705  0.8097 -1.2381
   20MOL   H53614254   4.006   3.992   7.469  0.4799  0.1994 -1.1067
   20MOL   H53714255   3.934   3.898   0.106 -1.7225 -0.0715  0.3479
   20MOL   H53814256   3.939   4.002   0.255 -0.6746 -0.5623  0.5111
   20MOL   H53914257   4.056   4.019   0.131  0.4379 -0.7346 -0.8278
   20MOL   H54014258   3.692   4.126   0.180 -1.6124  0.7692 -0.6887
   20MOL   H54114259   3.658   4.132   0.006 -0.3225  1.1996  1.2894
   20MOL   C54214260   3.160   4.697   7.327  0.5867  0.0936  0.0690
   20MOL   C54314261   3.207   4.571   7.257 -0.0444  0.1316  0.4681
   20MOL   C54414262   3.191   4.446   7.341 -0.9982 -0.3073 -0.0256
   20MOL   C54514263   3.267   4.327   7.284  0.1973  0.0568 -0.0473
   20MOL   C54614264   3.256   4.201   7.372 -0.0285  0.1897  0.4586
   20MOL   C54714265   3.297   4.203   7.528 -0.0966 -0.1035  0.5096
   20MOL   C54814266   3.278   4.067   7.605 -0.5427 -0.3592  0.3279
   20MOL   C54914267   3.302   4.071   7.752  0.1465  0.5261  0.8484
   20MOL   O55014268   3.436   4.037   7.776 -0.2079  0.5229 -0.5607
   20MOL   C55114269   3.478   3.978   0.108 -0.0786 -0.1321  0.1679
   20MOL   O55214270   3.412   3.952   0.205 -0.2350  0.6617  0.2744
   20MOL   C55314271   3.625   3.937   0.090 -0.2127  0.2257  0.3875
   20MOL   C55414272   3.661   3.864   0.221 -0.3275  0.0389 -0.5862
   20MOL   C55514273   3.643   3.844   7.735 -0.0602 -1.1564  0.5251
   20MOL   H55614274   3.190   4.718   7.430  1.3698 -1.6375  0.2208
   20MOL   H55714275   3.052   4.711   7.329  0.4501 -0.9991  2.6405
   20MOL   H55814276   3.198   4.779   7.266  2.8167 -1.3478 -0.5542
   20MOL   H55914277   3.146   4.561   7.167 -2.4579  0.9594  1.9697
   20MOL   H56014278   3.311   4.574   7.223 -0.3369  0.0706 -0.4606
   20MOL   H56114279   3.085   4.421   7.353 -1.2632  0.4202 -0.8214
   20MOL   H56214280   3.227   4.473   7.441 -1.4665  1.1941 -0.2534
   20MOL   H56314281   3.223   4.307   7.187  0.2337  0.6726 -0.1945
   20MOL   H56414282   3.371   4.351   7.264 -0.7800  1.0641 -4.5030
   20MOL   H56514283   3.299   4.129   7.302 -1.1000 -0.1601  0.1408
   20MOL   H56614284   3.157   4.155   7.362  0.4394 -0.6641 -0.3699
   20MOL   H56714285   3.400   4.238   7.537  0.2940 -0.9403 -0.7171
   20MOL   H56814286   3.225   4.279   7.559 -1.9092 -0.2434 -3.1542
   20MOL   H56914287   3.178   4.024   7.598  0.5905 -2.7497 -2.2650
   20MOL   H57014288   3.337   3.990   7.553  0.6016 -1.1562  2.7559
   20MOL   H57114289   3.240   4.000   0.027 -1.3128 -0.3582 -1.8320
   20MOL   H57214290   3.296   4.174   0.008  1.9137  0.5409  1.1492
   20MOL   H57314291   3.588   3.785   0.240 -0.1239 -0.5514 -2.1330
   20MOL   H57414292   3.664   3.931   0.306 -2.6802  0.0252 -0.4691
   20MOL   H57514293   3.762   3.825   0.209  0.3946  2.3864 -2.6416
   20MOL   H57614294   3.749   3.828   7.719 -0.2692 -0.6873 -1.4787
   20MOL   H57714295   3.610   3.909   7.654 -0.9542 -0.5818  1.3486
   20MOL   C57814296   3.549   4.534   7.435  0.2549  0.0853 -0.9696
   20MOL   C57914297   3.595   4.511   7.295  0.5168 -0.4858 -0.4011
   20MOL   C58014298   3.682   4.387   7.280 -0.4338  0.1755  0.3720
   20MOL   C58114299   3.619   4.239   7.287 -0.0800 -0.1641  0.0691
   20MOL   C58214300   3.712   4.117   7.288 -0.8462 -0.4061  0.1750
   20MOL   C58314301   3.637   3.987   7.322 -0.6320  0.3678 -0.1210
   20MOL   C58414302   3.713   3.853   7.310  0.4576 -0.0119 -0.9418
   20MOL   C58514303   3.628   3.729   7.337 -0.6353  0.0660 -0.2488
   20MOL   O58614304   3.573   3.732   7.469  0.0428 -0.6233 -0.1058
   20MOL   C58714305   3.632   3.664   7.568  0.1071  0.1422  0.3885
   20MOL   O58814306   3.721   3.584   7.547  0.2720  0.1550 -0.0474
   20MOL   C58914307   3.583   3.698   7.715  0.6089  0.4483  0.2800
   20MOL   C59014308   3.429   3.689   7.720 -0.0795 -0.0014  0.7677
   20MOL   C59114309   3.656   3.592   0.027 -0.4864  0.3693 -0.0850
   20MOL   H59214310   3.627   4.591   7.485 -0.9053  0.0170  0.9676
   20MOL   H59314311   3.517   4.443   7.485 -0.3261  0.6195 -0.3592
   20MOL   H59414312   3.458   4.594   7.425  1.3615  2.1685  1.0079
   20MOL   H59514313   3.644   4.600   7.256  1.5871 -2.2448 -3.2240
   20MOL   H59614314   3.518   4.504   7.217  0.1943  0.7950 -0.2101
   20MOL   H59714315   3.761   4.393   7.356 -2.1961  2.2850  2.1006
   20MOL   H59814316   3.726   4.404   7.182 -0.9874  0.2135  0.1346
   20MOL   H59914317   3.564   4.226   7.193 -0.7453  2.6899  0.0398
   20MOL   H60014318   3.555   4.211   7.371 -0.8831 -0.4127 -0.6135
   20MOL   H60114319   3.788   4.137   7.364 -0.5534 -2.1586  0.3587
   20MOL   H60214320   3.768   4.107   7.195  1.6084  1.1549  1.4247
   20MOL   H60314321   3.547   3.981   7.260 -0.5203 -0.5273 -0.1949
   20MOL   H60414322   3.596   4.000   7.423 -1.9430  0.2585 -0.6225
   20MOL   H60514323   3.799   3.844   7.376  1.9935  0.5155 -2.8276
   20MOL   H60614324   3.760   3.843   7.212  1.7540  1.7554 -0.5212
   20MOL   H60714325   3.538   3.724   7.275 -1.4779  0.1953  0.9549
   20MOL   H60814326   3.691   3.643   7.313 -2.7241 -1.2700 -1.0759
   20MOL   H60914327   3.396   3.720   0.040 -0.5524  1.7893  0.0770
   20MOL   H61014328   3.382   3.752   7.644 -0.3615  0.0484  0.9791
   20MOL   H61114329   3.375   3.599   7.692  0.9358 -0.7146  1.0802
   20MOL   H61214330   3.670   3.645   0.121 -0.6256  1.5383 -0.7185
   20MOL   H61314331   3.763   3.588   0.008  0.0218  0.7098  2.5620
   20MOL   C61414332   3.488   3.889   1.075 -0.0551  0.7527  0.2562
   20MOL   C61514333   3.423   3.847   0.938  0.4694  0.4346  0.0458
   20MOL   C61614334   3.513   3.745   0.856 -0.2987 -0.0998  0.0841
   20MOL   C61714335   3.438   3.691   0.728 -0.0872  0.3010 -0.3751
   20MOL   C61814336   3.523   3.601   0.647 -0.2155  0.2720 -0.8696
   20MOL   C61914337   3.452   3.529   0.532 -0.0625 -0.4193  0.3801
   20MOL   C62014338   3.391   3.632   0.431 -0.7126  0.6228 -0.3393
   20MOL   C62114339   3.353   3.561   0.301 -0.0263  0.2322  0.0019
   20MOL   O62214340   3.472   3.546   0.232 -0.4269  0.0786  0.3337
   20MOL   C62314341   3.473   3.455   0.131 -0.3556  0.6528  0.4641
   20MOL   O62414342   3.377   3.388   0.090  0.2812 -0.1533 -0.1643
   20MOL   C62514343   3.611   3.447   0.062 -0.0927 -0.6044 -0.2988
   20MOL   C62614344   3.609   3.362   7.706 -0.5303 -0.0545 -0.3928
   20MOL   C62714345   3.725   3.389   0.164  0.1713 -0.7398 -0.5558
   20MOL   H62814346   3.508   3.798   1.131  1.0316  0.3432 -0.7858
   20MOL   H62914347   3.424   3.955   1.134 -2.3057 -1.0774 -0.0967
   20MOL   H63014348   3.587   3.935   1.068  0.0734  0.2803 -1.1703
   20MOL   H63114349   3.323   3.802   0.942  0.2007  1.0745  0.5936
   20MOL   H63214350   3.418   3.934   0.873 -1.9535 -0.1790 -0.6637
   20MOL   H63314351   3.552   3.668   0.922  0.6931 -0.7484 -1.2328
   20MOL   H63414352   3.600   3.803   0.823 -0.6989  0.8834  0.7237
   20MOL   H63514353   3.402   3.781   0.678  0.2062  0.4341 -0.3477
   20MOL   H63614354   3.357   3.625   0.759  0.0264  0.5275  0.3955
   20MOL   H63714355   3.606   3.657   0.603 -1.1968 -0.2866 -3.5223
   20MOL   H63814356   3.568   3.526   0.713  0.4689  2.0695  0.7529
   20MOL   H63914357   3.514   3.461   0.474 -0.0098 -0.8952  0.9827
   20MOL   H64014358   3.379   3.458   0.571 -1.0232 -0.4560 -1.4668
   20MOL   H64114359   3.470   3.706   0.417 -0.7924  0.6715 -0.5283
   20MOL   H64214360   3.300   3.677   0.470 -1.3506 -1.7986  1.1245
   20MOL   H64314361   3.301   3.468   0.323 -1.2395  0.7092 -0.7933
   20MOL   H64414362   3.284   3.624   0.245 -0.6585 -0.5875 -0.1560
   20MOL   H64514363   3.535   3.411   7.643 -0.4341  0.0890 -0.3955
   20MOL   H64614364   3.559   3.268   7.730 -1.6228  0.5913 -0.1509
   20MOL   H64714365   3.704   3.346   7.654 -0.2431  1.2338 -0.2807
   20MOL   H64814366   3.725   3.458   0.248  2.4616 -1.1271 -0.2102
   20MOL   H64914367   3.825   3.411   0.125  0.4540  1.1316  1.0904
   20MOL   C65014368   4.246   3.371   1.139 -0.1992 -0.1518  0.4329
   20MOL   C65114369   4.101   3.397   1.157 -0.2594  0.2410  0.2493
   20MOL   C65214370   4.026   3.381   1.024 -0.4923 -0.0641 -0.5080
   20MOL   C65314371   3.873   3.412   1.025  0.0615  0.1044  0.7097
   20MOL   C65414372   3.811   3.394   0.886 -0.1079 -1.4558  0.3172
   20MOL   C65514373   3.821   3.253   0.820 -0.7705 -0.1920 -0.2330
   20MOL   C65614374   3.767   3.243   0.676  0.0895  0.4156  0.7934
   20MOL   C65714375   3.837   3.318   0.560 -0.4546  0.0040 -0.0047
   20MOL   O65814376   3.768   3.306   0.435 -0.2507  0.5861  0.0377
   20MOL   C65914377   3.831   3.242   0.331  0.8477  0.3211  0.0099
   20MOL   O66014378   3.952   3.208   0.325  0.7927  0.2417 -0.7836
   20MOL   C66114379   3.742   3.237   0.206  0.8392  0.2801  0.1097
   20MOL   C66214380   3.818   3.157   0.093 -0.0263 -0.1028  0.5766
   20MOL   C66314381   3.609   3.175   0.244  0.0299 -0.8827 -0.2088
   20MOL   H66414382   4.287   3.443   1.069 -0.6912  1.4163  1.7156
   20MOL   H66514383   4.263   3.274   1.093 -0.1674 -0.4659  1.0869
   20MOL   H66614384   4.294   3.379   1.237 -0.0721  0.4242  0.3205
   20MOL   H66714385   4.097   3.501   1.192 -0.2510 -0.0294  1.0646
   20MOL   H66814386   4.066   3.336   1.240 -1.3456  1.3327  0.6078
   20MOL   H66914387   4.036   3.279   0.987  0.6502 -0.4089  0.7067
   20MOL   H67014388   4.084   3.448   0.960  0.4768  0.2128  0.6298
   20MOL   H67114389   3.851   3.511   1.065 -0.1637 -0.1493  1.2225
   20MOL   H67214390   3.817   3.346   1.090  0.8912 -1.3285 -0.0038
   20MOL   H67314391   3.843   3.474   0.820 -1.6919 -1.5275 -0.5567
   20MOL   H67414392   3.707   3.421   0.901  0.3894  1.1417 -0.6275
   20MOL   H67514393   3.925   3.220   0.810 -1.0330 -0.4966 -2.1854
   20MOL   H67614394   3.784   3.182   0.895  0.0354 -0.1147  0.2525
   20MOL   H67714395   3.660   3.266   0.676 -0.0852 -0.4050 -0.4492
   20MOL   H67814396   3.762   3.142   0.637  0.3575  0.9182 -0.5710
   20MOL   H67914397   3.940   3.287   0.546 -1.0746 -1.1402 -2.2491
   20MOL   H68014398   3.840   3.426   0.574 -1.6108  0.0842 -0.3482
   20MOL   H68114399   3.842   3.052   0.113  2.5560  0.4513  0.5500
   20MOL   H68214400   3.911   3.200   0.055 -0.9583  2.7857  1.4428
   20MOL   H68314401   3.760   3.149   0.002 -0.0473  0.0191  0.5796
   20MOL   H68414402   3.558   3.236   0.318 -2.0559 -1.5024 -1.1006
   20MOL   H68514403   3.556   3.182   0.149  0.5336  2.6743 -0.3134
   20MOL   C68614404   3.562   3.309   7.009  0.5944  0.1740 -0.8396
   20MOL   C68714405   3.606   3.313   7.153 -0.1498 -0.2026  0.2735
   20MOL   C68814406   3.551   3.198   7.227 -0.5386 -0.1095  0.2014
   20MOL   C68914407   3.584   3.192   7.378 -0.5387  1.0141  0.1036
   20MOL   C69014408   3.523   3.055   7.421 -0.4194 -0.0479  0.9187
   20MOL   C69114409   3.556   3.022   7.563  0.5856 -0.4453 -0.2251
   20MOL   C69214410   3.499   2.887   7.611  0.4605 -0.5548 -0.2027
   20MOL   C69314411   3.570   2.839   7.741  0.3952 -0.8943  0.5172
   20MOL   O69414412   3.568   2.945   0.062 -0.3404 -0.1076  0.2596
   20MOL   C69514413   3.614   2.929   0.191 -0.0868  0.0400 -0.3687
   20MOL   O69614414   3.689   2.829   0.224  0.7591 -0.0493  0.2678
   20MOL   C69714415   3.565   3.036   0.294 -0.7084 -0.6420 -0.0596
   20MOL   C69814416   3.408   3.033   0.294  0.7441 -1.2636 -0.2472
   20MOL   C69914417   3.624   3.010   0.434  0.4054 -0.1997  0.0825
   20MOL   H70014418   3.453   3.312   7.005  0.4087 -0.5926  2.1639
   20MOL   H70114419   3.602   3.213   6.975 -0.8386 -0.2540 -1.3418
   20MOL   H70214420   3.591   3.384   6.936 -1.7025  2.0563  0.1178
   20MOL   H70314421   3.581   3.410   7.197  0.8519 -0.1898  0.8206
   20MOL   H70414422   3.714   3.302   7.151 -0.0828  0.4748 -0.5408
   20MOL   H70514423   3.592   3.105   7.189  1.0006  0.6473 -0.0420
   20MOL   H70614424   3.444   3.188   7.206  0.1709 -1.9552 -2.8004
   20MOL   H70714425   3.526   3.270   7.428  0.7976  1.6692  0.6475
   20MOL   H70814426   3.688   3.210   7.403 -0.2904 -0.5019  0.2034
   20MOL   H70914427   3.549   2.970   7.358  0.4843 -1.2726  2.8779
   20MOL   H71014428   3.414   3.053   7.410 -0.3442  1.7646 -0.3752
   20MOL   H71114429   3.663   3.034   7.582  0.6428 -3.5126  1.6242
   20MOL   H71214430   3.525   3.100   7.632 -1.7543 -0.2133 -1.4912
   20MOL   H71314431   3.391   2.885   7.627  0.3436  1.1480 -0.6431
   20MOL   H71414432   3.510   2.813   7.531  1.8257 -0.0741 -0.4831
   20MOL   H71514433   3.674   2.815   7.715 -0.4237 -1.7813 -2.0610
   20MOL   H71614434   3.534   2.745   0.002 -1.6833  0.9683  3.1995
   20MOL   H71714435   3.375   3.086   0.383 -0.9260 -0.8008 -1.1124
   20MOL   H71814436   3.361   3.095   0.217  1.2466  0.1754  0.5903
   20MOL   H71914437   3.374   2.929   0.286  2.3160 -1.7436 -0.7349
   20MOL   H72014438   3.590   3.089   0.501  1.0937 -1.7300  2.2977
   20MOL   H72114439   3.731   2.994   0.420  0.6897 -0.3900  2.3546
   20MOL   H72214440   3.587   2.921   0.484  1.2464 -0.1643  0.7606
   21MOL     C114441   2.994   5.001   3.161  0.3788  0.0260  0.3371
   21MOL     C214442   3.005   4.860   3.218  0.4425 -0.3792  0.2617
   21MOL     C314443   3.038   4.744   3.118 -0.0193 -0.3583 -0.7154
   21MOL     C414444   3.193   4.740   3.070 -0.2095  0.6768  0.0466
   21MOL     C514445   3.220   4.613   2.993 -0.0685  0.2468 -0.1690
   21MOL     C614446   3.367   4.586   2.964 -0.2168 -0.6037  0.1304
   21MOL     C714447   3.395   4.442   2.935 -0.2381  0.5893  0.2681
   21MOL     C814448   3.541   4.400   2.928  0.3980 -0.1874  0.4545
   21MOL     O914449   3.540   4.272   2.864  0.0609 -0.3796  0.5685
   21MOL    C1014450   3.659   4.214   2.831  0.4005  0.3428 -1.0116
   21MOL    O1114451   3.766   4.259   2.853 -0.1862  0.4659 -0.1886
   21MOL    C1214452   3.649   4.082   2.753  0.7236  0.0959 -0.3972
   21MOL    C1314453   3.709   4.119   2.615 -0.0324 -0.1768  0.2189
   21MOL    C1414454   3.706   3.959   2.814  0.4686  0.2732 -0.0217
   21MOL    H1514455   2.896   5.023   3.120  0.4612 -2.5596 -1.3469
   21MOL    H1614456   3.074   5.024   3.091  1.6081 -0.1553  1.6521
   21MOL    H1714457   2.996   5.082   3.234  1.2397  0.4254 -0.1237
   21MOL    H1814458   2.908   4.834   3.259 -0.3456 -1.3603 -2.1775
   21MOL    H1914459   3.085   4.858   3.292  1.7339  1.8110 -1.0009
   21MOL    H2014460   3.011   4.646   3.159  2.3098 -1.9917 -2.9613
   21MOL    H2114461   2.968   4.749   3.034 -0.9801 -2.8604 -0.1158
   21MOL    H2214462   3.213   4.825   3.005  2.7711  0.7620  1.0352
   21MOL    H2314463   3.257   4.733   3.158 -0.3250 -1.6032 -0.0145
   21MOL    H2414464   3.157   4.613   2.904  0.1800 -0.8875 -0.3593
   21MOL    H2514465   3.183   4.526   3.047 -1.8086 -0.7541 -2.8675
   21MOL    H2614466   3.428   4.622   3.047  0.0226  0.0092 -0.3052
   21MOL    H2714467   3.397   4.651   2.882 -1.4937  2.0174  1.6394
   21MOL    H2814468   3.342   4.420   2.842  0.1093 -3.7570  0.9606
   21MOL    H2914469   3.358   4.375   3.013  2.5022 -2.8025 -1.2305
   21MOL    H3014470   3.580   4.405   3.030 -1.0222  0.5718  0.9797
   21MOL    H3114471   3.601   4.467   2.866 -1.4560  1.1689  0.0900
   21MOL    H3214472   3.817   4.113   2.605  0.0344 -0.5832  1.1309
   21MOL    H3314473   3.651   4.060   2.544 -0.5857  1.9526 -1.1104
   21MOL    H3414474   3.678   4.215   2.576  1.5087 -0.1286 -0.9337
   21MOL    H3514475   3.748   3.980   2.913  1.5666  1.2089 -0.6721
   21MOL    H3614476   3.799   3.929   2.765  0.7784  0.2677  0.5627
   21MOL    H3714477   3.545   4.060   2.729  0.2381  1.4492  0.4194
   21MOL    C3814478   4.302   4.182   2.285  0.1556 -0.8574  0.2596
   21MOL    C3914479   4.347   4.035   2.261  0.4202 -0.1339 -0.1445
   21MOL    C4014480   4.240   3.931   2.228  0.0360  0.4276  0.4862
   21MOL    C4114481   4.117   3.933   2.318 -0.8264 -0.2330 -0.1073
   21MOL    C4214482   4.021   3.818   2.309 -0.2492  0.0285 -0.0242
   21MOL    C4314483   3.894   3.836   2.397 -0.2205  0.3802 -0.7533
   21MOL    C4414484   3.803   3.717   2.386  0.0771  0.6480  0.2062
   21MOL    C4514485   3.677   3.728   2.471 -0.0998  0.0381 -0.2441
   21MOL    O4614486   3.688   3.746   2.614 -0.0134 -0.2879 -0.0197
   21MOL    C4714487   3.581   3.780   2.684 -0.3002  0.0520 -0.2786
   21MOL    O4814488   3.465   3.787   2.638 -0.5766 -0.3243 -0.2199
   21MOL    C4914489   3.620   3.833   2.820  0.6854 -0.0120  0.2203
   21MOL    C5014490   3.493   3.864   2.905 -0.1994 -0.2518  0.3341
   21MOL    C5114491   3.710   3.731   2.899 -0.5178 -0.3972 -0.5284
   21MOL    H5214492   4.240   4.190   2.373  0.8110  0.6827  0.5928
   21MOL    H5314493   4.253   4.209   2.191 -0.7504  0.6758  1.1759
   21MOL    H5414494   4.396   4.235   2.299  0.6998 -2.1817  1.7788
   21MOL    H5514495   4.407   3.998   2.344 -0.5986 -1.8609 -0.1487
   21MOL    H5614496   4.417   4.033   2.178  0.1010  0.4595 -0.4298
   21MOL    H5714497   4.192   3.947   2.131 -1.3546 -0.1541  1.0538
   21MOL    H5814498   4.279   3.830   2.225 -2.1319 -0.3928 -1.6485
   21MOL    H5914499   4.052   4.015   2.289  0.8526  1.3662  0.5570
   21MOL    H6014500   4.143   3.946   2.423  1.5821 -0.4323 -0.6402
   21MOL    H6114501   3.995   3.819   2.203  1.1517  1.4009 -0.3720
   21MOL    H6214502   4.065   3.723   2.338  0.6982 -0.0748 -1.7390
   21MOL    H6314503   3.933   3.858   2.496 -1.8274 -1.3771  0.2818
   21MOL    H6414504   3.848   3.929   2.364 -1.0019 -0.1356 -1.1247
   21MOL    H6514505   3.851   3.623   2.411  1.8662  2.0068  2.0105
   21MOL    H6614506   3.775   3.712   2.281 -2.2183  0.9096  0.7703
   21MOL    H6714507   3.628   3.632   2.457 -0.8753  0.1699  1.3794
   21MOL    H6814508   3.621   3.816   2.438 -0.1494  0.7033  1.5581
   21MOL    H6914509   3.525   3.904   3.001  1.3482  0.4396 -0.4407
   21MOL    H7014510   3.435   3.944   2.859 -0.4021 -0.6676 -0.1361
   21MOL    H7114511   3.431   3.775   2.910  0.4661 -0.6708  1.3246
   21MOL    H7214512   3.735   3.785   2.991 -0.3744  0.7217 -1.2062
   21MOL    H7314513   3.806   3.727   2.847 -1.7280  0.8160 -2.9508
   21MOL    C7414514   3.160   3.941   2.521 -0.3479  0.6472  0.2648
   21MOL    C7514515   3.060   3.864   2.602  0.1607  0.2301  0.2967
   21MOL    C7614516   3.114   3.796   2.729  0.5640  0.5097  0.3815
   21MOL    C7714517   3.009   3.756   2.835  0.4141 -0.4102  0.6448
   21MOL    C7814518   3.068   3.733   2.976  0.0493  0.5454  0.3671
   21MOL    C7914519   3.176   3.623   2.984  0.6337 -0.1625  0.2382
   21MOL    C8014520   3.252   3.617   3.119  0.3252 -0.6291 -0.1557
   21MOL    C8114521   3.349   3.501   3.122 -0.0004 -0.2368 -0.6473
   21MOL    O8214522   3.464   3.508   3.039  0.3530 -0.1843  0.7031
   21MOL    C8314523   3.563   3.595   3.057 -0.4113 -0.0911  0.5563
   21MOL    O8414524   3.572   3.673   3.151  0.4956 -0.3015 -0.0005
   21MOL    C8514525   3.670   3.589   2.946  0.0790  0.1995  0.0330
   21MOL    C8614526   3.634   3.492   2.825 -0.0905 -0.0135  0.1633
   21MOL    C8714527   3.806   3.549   3.014 -0.3550 -0.0193  0.3057
   21MOL    H8814528   3.225   3.873   2.466 -1.9953 -0.4515 -0.3952
   21MOL    H8914529   3.213   4.005   2.591 -0.0536 -1.2518  1.8003
   21MOL    H9014530   3.114   3.997   2.439  2.7986  1.3883 -1.0349
   21MOL    H9114531   3.011   3.793   2.536  0.8847 -0.4845  0.5250
   21MOL    H9214532   2.982   3.935   2.630 -0.5771  0.0435 -1.1774
   21MOL    H9314533   3.180   3.716   2.695 -2.0565 -2.3051  1.7288
   21MOL    H9414534   3.181   3.862   2.783  0.8920  0.2912  0.2439
   21MOL    H9514535   2.946   3.677   2.796 -0.2850  0.0543  0.8180
   21MOL    H9614536   2.943   3.843   2.841 -1.5758 -1.7380 -1.1820
   21MOL    H9714537   3.126   3.822   2.998 -1.9147  2.1134 -0.6487
   21MOL    H9814538   2.987   3.729   3.049  0.3336  0.3164  0.6744
   21MOL    H9914539   3.133   3.527   2.956 -0.6942  0.0531  1.4823
   21MOL   H10014540   3.256   3.634   2.911  0.9044  0.3198  0.6098
   21MOL   H10114541   3.295   3.715   3.141 -0.0635 -0.7662  1.3048
   21MOL   H10214542   3.188   3.600   3.205 -1.1820 -1.5905 -1.4451
   21MOL   H10314543   3.289   3.417   3.088 -0.7515  0.2697 -0.5844
   21MOL   H10414544   3.390   3.472   3.219 -0.1885  1.3096 -0.0975
   21MOL   H10514545   3.536   3.513   2.783 -0.2662 -0.4845  0.3261
   21MOL   H10614546   3.627   3.391   2.867  1.1088  0.2309  0.9827
   21MOL   H10714547   3.711   3.475   2.750  1.5829 -1.0333  2.0568
   21MOL   H10814548   3.889   3.563   2.944 -0.0090  1.4081  0.9633
   21MOL   H10914549   3.834   3.620   3.092  0.1698 -0.5709  0.6182
   21MOL   C11014550   3.855   2.576   3.570  0.9129  0.2161 -0.2525
   21MOL   C11114551   3.803   2.598   3.429 -1.1755 -0.1374  0.4582
   21MOL   C11214552   3.867   2.691   3.337 -0.0745 -0.7471 -0.8633
   21MOL   C11314553   3.767   2.740   3.237  0.0808 -0.2405 -0.0638
   21MOL   C11414554   3.824   2.806   3.112 -0.2787 -0.2365  0.3403
   21MOL   C11514555   3.731   2.892   3.027 -0.4144  0.0945  0.3358
   21MOL   C11614556   3.791   2.978   2.910 -0.1001 -0.3665  0.1379
   21MOL   C11714557   3.725   3.113   2.873  0.2965 -0.5548  0.1382
   21MOL   O11814558   3.762   3.205   2.975  0.4328  0.3805 -0.3007
   21MOL   C11914559   3.842   3.302   2.960 -0.0723 -0.1941 -0.2827
   21MOL   O12014560   3.927   3.314   2.869 -0.0170  0.1837 -0.1404
   21MOL   C12114561   3.830   3.404   3.075 -0.5921 -0.5850  0.3618
   21MOL   C12214562   3.727   3.365   3.187 -0.1289 -0.4374  0.4452
   21MOL   C12314563   3.978   3.412   3.141 -0.1482 -0.4887  0.7155
   21MOL   H12414564   3.817   2.485   3.616 -1.3045  1.5101  0.5318
   21MOL   H12514565   3.962   2.554   3.570  1.0366  0.7692  0.9748
   21MOL   H12614566   3.852   2.663   3.636 -0.6452 -2.0590  2.7706
   21MOL   H12714567   3.701   2.634   3.444 -1.7253 -1.3425 -0.2760
   21MOL   H12814568   3.799   2.499   3.383 -1.8567 -0.5913  1.4776
   21MOL   H12914569   3.955   2.644   3.291  0.7129 -2.3174  2.1054
   21MOL   H13014570   3.907   2.769   3.401 -0.5452 -0.2776 -1.1425
   21MOL   H13114571   3.706   2.657   3.201 -0.8418  0.3599  0.1001
   21MOL   H13214572   3.696   2.811   3.279 -1.3277 -0.4402 -2.0232
   21MOL   H13314573   3.857   2.723   3.049  0.8380  1.5881 -1.5645
   21MOL   H13414574   3.908   2.864   3.149  1.1433 -1.3105 -1.1522
   21MOL   H13514575   3.653   2.827   2.986  1.6308  0.1089 -3.8591
   21MOL   H13614576   3.674   2.956   3.094 -1.0906 -2.4452  2.2457
   21MOL   H13714577   3.803   2.917   2.820 -1.1559 -0.3208 -0.0340
   21MOL   H13814578   3.892   3.007   2.940 -0.7983  4.3510 -1.7229
   21MOL   H13914579   3.760   3.150   2.776  2.5087  0.1565  1.1655
   21MOL   H14014580   3.619   3.093   2.862 -0.1313  1.5128  0.1310
   21MOL   H14114581   3.705   3.456   3.243  1.4748 -0.4851  1.1585
   21MOL   H14214582   3.635   3.318   3.151 -1.5881  0.3460  2.9906
   21MOL   H14314583   3.764   3.287   3.253  0.1589 -0.7029 -0.0325
   21MOL   H14414584   3.970   3.501   3.203  1.6663  1.0912 -1.2638
   21MOL   H14514585   4.048   3.421   3.058  0.2999 -1.8452  0.9190
   21MOL   C14614586   3.305   3.217   3.856 -0.1234  0.3175  0.8330
   21MOL   C14714587   3.405   3.146   3.763 -0.2213 -0.3419 -0.0610
   21MOL   C14814588   3.535   3.114   3.831  0.2801 -0.5844  0.5900
   21MOL   C14914589   3.646   3.065   3.733  0.4824 -0.4730 -0.5357
   21MOL   C15014590   3.792   3.049   3.787  0.5994  0.1152  0.1238
   21MOL   C15114591   3.891   2.961   3.708 -0.5604 -0.4574 -0.2894
   21MOL   C15214592   3.899   3.002   3.560  0.2714  0.4114  0.1072
   21MOL   C15314593   3.931   3.156   3.549 -0.6217  0.3957 -0.3818
   21MOL   O15414594   3.988   3.172   3.421 -0.1960  0.1600  0.1311
   21MOL   C15514595   3.992   3.300   3.374  0.1487  0.2012 -0.4161
   21MOL   O15614596   3.941   3.400   3.423 -0.3275 -0.3341 -0.0191
   21MOL   C15714597   4.049   3.300   3.229  0.1245 -0.2798  0.0179
   21MOL   C15814598   4.018   3.159   3.168 -0.1912 -0.0783  0.0601
   21MOL   C15914599   4.206   3.310   3.233 -0.3084 -0.2008  0.1932
   21MOL   H16014600   3.341   3.313   3.894  1.4547 -0.1828  0.6174
   21MOL   H16114601   3.285   3.154   3.942  2.7827  0.9066  1.9829
   21MOL   H16214602   3.209   3.243   3.810  0.0622 -0.3603  0.0525
   21MOL   H16314603   3.359   3.053   3.730  1.4990 -1.1335 -0.2434
   21MOL   H16414604   3.422   3.217   3.681  3.0409  2.0161  2.5421
   21MOL   H16514605   3.529   3.041   3.911 -2.1198 -2.1746 -0.9609
   21MOL   H16614606   3.572   3.210   3.867  0.6188 -0.9564  1.2254
   21MOL   H16714607   3.612   2.972   3.687  0.1376  0.6715 -2.6557
   21MOL   H16814608   3.646   3.131   3.647 -0.0990  1.6222  1.0326
   21MOL   H16914609   3.789   3.009   3.889  0.8965 -0.5337 -0.1172
   21MOL   H17014610   3.836   3.147   3.806 -0.1929  0.4719  0.1407
   21MOL   H17114611   3.846   2.863   3.724 -1.0330 -0.0151  1.1524
   21MOL   H17214612   3.994   2.966   3.744 -0.8996  0.2658  0.6194
   21MOL   H17314613   3.973   2.940   3.510 -1.6549  0.7457 -3.2583
   21MOL   H17414614   3.802   2.970   3.524 -1.0129  1.7353  2.2144
   21MOL   H17514615   3.837   3.211   3.549  0.9990  3.3047  0.0487
   21MOL   H17614616   4.002   3.187   3.626  0.2402  1.1634 -1.4516
   21MOL   H17714617   4.042   3.155   3.061  1.1044  0.3201  0.3296
   21MOL   H17814618   3.918   3.122   3.190 -0.9990  1.9653 -0.1034
   21MOL   H17914619   4.083   3.083   3.211 -1.0457 -0.8576 -0.0147
   21MOL   H18014620   4.248   3.275   3.139 -0.2404 -0.5207  0.3407
   21MOL   H18114621   4.245   3.238   3.306  1.0492  0.9992  0.6738
   21MOL   C18214622   4.093   4.232   4.109 -0.2947  0.6916 -0.1614
   21MOL   C18314623   4.208   4.228   4.002 -0.2830  0.3658  0.4062
   21MOL   C18414624   4.176   4.177   3.868  0.2699  0.5314  0.2462
   21MOL   C18514625   4.294   4.151   3.777  0.6678 -0.3055  0.1129
   21MOL   C18614626   4.271   4.085   3.638  0.0860 -0.4962 -0.9102
   21MOL   C18714627   4.260   3.932   3.644  0.2121  0.4725 -0.3528
   21MOL   C18814628   4.279   3.856   3.508  0.3674 -0.7896  0.1487
   21MOL   C18914629   4.261   3.704   3.517 -0.8755  0.8639  0.1493
   21MOL   O19014630   4.257   3.640   3.390 -0.0967 -0.0720 -0.0684
   21MOL   C19114631   4.253   3.511   3.385  0.2244  0.3888 -0.3004
   21MOL   O19214632   4.229   3.439   3.485 -0.2525  0.6977  0.5479
   21MOL   C19314633   4.289   3.444   3.248  0.1797 -0.6912  0.5596
   21MOL   C19414634   4.271   3.545   3.134 -0.0304  0.5932 -0.5424
   21MOL   C19514635   4.442   3.395   3.252  0.3290 -0.4070 -0.3474
   21MOL   H19614636   4.072   4.131   4.145 -1.2283  0.9247 -0.0383
   21MOL   H19714637   4.141   4.285   4.191 -2.6202  0.2343  1.5293
   21MOL   H19814638   4.005   4.284   4.071 -0.2388  1.2828  0.5272
   21MOL   H19914639   4.293   4.169   4.035 -1.5733 -1.9168 -0.2204
   21MOL   H20014640   4.250   4.328   3.998 -0.4098  0.4123  0.2290
   21MOL   H20114641   4.139   4.076   3.884 -0.0455  0.7994  1.2961
   21MOL   H20214642   4.106   4.247   3.823 -0.7693  0.4259  1.6466
   21MOL   H20314643   4.323   4.254   3.755  0.0226  0.0299  0.7978
   21MOL   H20414644   4.378   4.098   3.821 -1.0715 -0.9266  2.7391
   21MOL   H20514645   4.347   4.122   3.569  2.5665 -3.1850  0.2698
   21MOL   H20614646   4.178   4.124   3.597 -1.3956 -1.2553  1.6546
   21MOL   H20714647   4.168   3.904   3.695  0.0345  0.5689 -0.6237
   21MOL   H20814648   4.330   3.895   3.719 -1.8179 -1.8666  0.4372
   21MOL   H20914649   4.206   3.911   3.448 -1.7630 -2.9472  0.6873
   21MOL   H21014650   4.373   3.872   3.455 -0.1588 -0.9572 -0.8543
   21MOL   H21114651   4.165   3.683   3.564 -0.7880 -0.8968 -0.4130
   21MOL   H21214652   4.329   3.661   3.591 -1.3237  1.2883  0.8140
   21MOL   H21314653   4.342   3.627   3.151  1.4870 -0.9494  0.8020
   21MOL   H21414654   4.296   3.495   3.041  1.7246 -0.9150  0.6874
   21MOL   H21514655   4.172   3.589   3.131 -0.5163 -0.2568  1.7977
   21MOL   H21614656   4.462   3.377   3.358  0.9067 -1.1882 -0.5929
   21MOL   H21714657   4.450   3.294   3.212  0.3751  0.5231 -2.7320
   21MOL   C21814658   4.878   4.573   3.116  0.2212 -0.2567 -0.1388
   21MOL   C21914659   4.739   4.546   3.174 -0.4108 -0.3176  0.3560
   21MOL   C22014660   4.712   4.396   3.187 -0.4249  0.3108 -0.4406
   21MOL   C22114661   4.570   4.341   3.208  0.3645  0.0667 -0.2943
   21MOL   C22214662   4.549   4.199   3.145  0.3617  0.0419  0.0989
   21MOL   C22314663   4.592   4.089   3.247 -0.1754  0.2535  0.1083
   21MOL   C22414664   4.579   3.947   3.188  0.4477  0.1390 -0.1333
   21MOL   C22514665   4.627   3.840   3.288  0.1079 -0.6726 -0.3402
   21MOL   O22614666   4.598   3.716   3.238 -0.2288 -0.1962 -0.0497
   21MOL   C22714667   4.574   3.611   3.306 -0.2439  0.1497  0.3049
   21MOL   O22814668   4.567   3.621   3.429 -0.0815 -0.0831  0.0042
   21MOL   C22914669   4.567   3.481   3.216 -0.6811  0.5402  0.1967
   21MOL   C23014670   4.577   3.522   3.057  0.3362 -0.2629 -0.6985
   21MOL   C23114671   4.694   3.408   3.266 -0.1781  0.2862 -0.8608
   21MOL   H23214672   4.874   4.537   3.013  2.1663  3.9198 -1.7993
   21MOL   H23314673   4.958   4.517   3.164 -0.0559 -0.5495 -0.0103
   21MOL   H23414674   4.899   4.680   3.108 -2.4928  0.2357 -1.2135
   21MOL   H23514675   4.668   4.594   3.107 -0.1419 -1.5321 -0.8228
   21MOL   H23614676   4.729   4.581   3.277 -0.4008 -0.8167  0.5317
   21MOL   H23714677   4.742   4.350   3.093  0.4149 -1.9348  0.8812
   21MOL   H23814678   4.790   4.338   3.237 -0.2305  0.3250 -0.7299
   21MOL   H23914679   4.538   4.353   3.311  1.8626 -0.6149  0.2712
   21MOL   H24014680   4.511   4.409   3.146  2.1490  0.4389 -1.6633
   21MOL   H24114681   4.442   4.186   3.128  0.7286 -1.6560 -1.0358
   21MOL   H24214682   4.606   4.188   3.053 -0.6239 -0.1443 -0.4970
   21MOL   H24314683   4.694   4.100   3.283  0.0871 -3.0005  0.5580
   21MOL   H24414684   4.528   4.092   3.335  0.8482 -1.6805  0.9482
   21MOL   H24514685   4.634   3.942   3.094  1.6747 -1.0709  0.6278
   21MOL   H24614686   4.474   3.927   3.163  0.0550  0.1566  1.4823
   21MOL   H24714687   4.565   3.859   3.376 -1.0859  0.3989 -1.3839
   21MOL   H24814688   4.731   3.847   3.320  0.8970 -1.6891 -2.6203
   21MOL   H24914689   4.678   3.521   3.018  0.1519  2.2934 -1.3112
   21MOL   H25014690   4.535   3.617   3.024 -2.6291 -1.3207 -0.2189
   21MOL   H25114691   4.520   3.443   3.009 -0.2837  0.3639 -1.0094
   21MOL   H25214692   4.783   3.470   3.256 -0.2443  0.7542  1.1856
   21MOL   H25314693   4.686   3.390   3.374 -1.6600 -0.2387 -1.0478
   21MOL   C25414694   4.876   3.481   2.247 -0.1255  0.3547  0.3164
   21MOL   C25514695   4.886   3.609   2.333  0.5006  0.8774 -0.0415
   21MOL   C25614696   4.817   3.598   2.472 -0.8910  0.6994 -0.1673
   21MOL   C25714697   4.878   3.485   2.560  0.2153 -0.1210 -0.2489
   21MOL   C25814698   4.855   3.504   2.706  0.6434 -0.0640 -0.4458
   21MOL   C25914699   4.945   3.434   2.807  0.6731  0.0655  0.8999
   21MOL   C26014700   4.931   3.283   2.816 -0.1572  0.7598 -0.4168
   21MOL   C26114701   4.791   3.233   2.871  0.0159  0.0838  0.5153
   21MOL   O26214702   4.780   3.279   3.004 -0.5185  0.4816  0.1473
   21MOL   C26314703   4.702   3.218   3.095  0.1673 -0.9367 -0.1618
   21MOL   O26414704   4.613   3.136   3.065  0.5575 -0.3759  0.0043
   21MOL   C26514705   4.740   3.262   3.234  0.2856  0.7736 -0.6224
   21MOL   C26614706   4.677   3.162   3.344 -0.0950 -0.0498 -0.7071
   21MOL   C26714707   4.899   3.254   3.246 -0.0042  0.2319  0.0903
   21MOL   H26814708   4.872   3.498   2.139 -0.1953 -0.1599  0.2373
   21MOL   H26914709   4.952   3.405   2.264  0.5983  0.8799 -0.5472
   21MOL   H27014710   4.784   3.427   2.268  0.1274 -0.7576 -1.3264
   21MOL   H27114711   4.986   3.650   2.347  2.0232 -2.3002 -1.0231
   21MOL   H27214712   4.841   3.695   2.285 -0.5963 -0.4347 -1.4375
   21MOL   H27314713   4.712   3.573   2.460 -0.8806  1.6693 -2.5077
   21MOL   H27414714   4.833   3.697   2.515 -1.0188 -0.4620  2.6847
   21MOL   H27514715   4.986   3.498   2.548  0.1074 -0.4494 -1.7524
   21MOL   H27614716   4.854   3.383   2.528  3.3628 -0.7435 -0.7615
   21MOL   H27714717   4.858   3.611   2.725 -0.0965  0.2529 -2.0058
   21MOL   H27814718   4.756   3.466   2.733  1.6788 -2.3840  0.2601
   21MOL   H27914719   4.930   3.497   2.894  0.9376  2.2771 -0.6039
   21MOL   H28014720   5.049   3.462   2.788  0.6060 -0.5554 -0.4454
   21MOL   H28114721   4.947   3.231   2.722 -1.5074 -1.4306  0.5155
   21MOL   H28214722   5.008   3.249   2.886 -1.4691  2.2082  1.8136
   21MOL   H28314723   4.709   3.268   2.808  0.6310  1.2329  0.3354
   21MOL   H28414724   4.793   3.124   2.867  1.4645  0.0339  2.1449
   21MOL   H28514725   4.719   3.062   3.340 -0.2601 -0.1896  0.7048
   21MOL   H28614726   4.686   3.195   3.447  0.1564  1.1882 -1.1167
   21MOL   H28714727   4.573   3.135   3.326 -0.3523 -0.8153  1.7276
   21MOL   H28814728   4.920   3.311   3.337 -0.7363 -0.0601  0.4413
   21MOL   H28914729   4.937   3.331   3.178 -0.0598  0.5366  0.4025
   21MOL   C29014730   5.421   3.434   4.261  0.5355  0.2633 -0.0124
   21MOL   C29114731   5.479   3.298   4.218 -0.3143  0.5686  0.6216
   21MOL   C29214732   5.484   3.290   4.066  0.4078  0.3597 -0.3059
   21MOL   C29314733   5.353   3.238   4.018 -0.2400 -0.0909  0.1593
   21MOL   C29414734   5.325   3.248   3.870 -0.4601 -0.2218  0.3474
   21MOL   C29514735   5.213   3.162   3.812  0.1945  0.3228  0.0500
   21MOL   C29614736   5.175   3.190   3.663 -0.3270 -0.5011  0.3788
   21MOL   C29714737   5.064   3.108   3.615 -0.4191  0.5478 -0.0747
   21MOL   O29814738   5.041   3.154   3.478 -0.0014 -0.6540  0.0425
   21MOL   C29914739   4.987   3.071   3.389 -0.2833  0.1817 -0.4462
   21MOL   O30014740   4.934   2.967   3.422  0.7176 -0.4305 -0.5781
   21MOL   C30114741   4.993   3.123   3.241  0.7572 -0.5295  0.1505
   21MOL   C30214742   4.945   3.013   3.139  0.2308 -0.8258 -0.2687
   21MOL   C30314743   5.138   3.165   3.192 -0.4311 -0.3319  0.1201
   21MOL   H30414744   5.445   3.430   4.367 -0.5203  0.6522  0.2474
   21MOL   H30514745   5.313   3.427   4.260  0.6625 -2.1811 -0.7706
   21MOL   H30614746   5.462   3.522   4.212 -2.7559  0.5138 -2.4814
   21MOL   H30714747   5.429   3.212   4.261 -1.8033  0.4534 -1.2622
   21MOL   H30814748   5.583   3.299   4.251  0.6736 -0.4484 -2.3522
   21MOL   H30914749   5.565   3.231   4.023  1.4322 -0.6112  2.8101
   21MOL   H31014750   5.498   3.389   4.023 -2.7566  1.9333  2.0262
   21MOL   H31114751   5.351   3.139   4.064 -1.8823 -0.6214 -1.0140
   21MOL   H31214752   5.275   3.291   4.073 -2.9225 -2.5095 -1.1743
   21MOL   H31314753   5.318   3.350   3.831 -2.3532 -1.4183 -2.6262
   21MOL   H31414754   5.411   3.203   3.820 -0.0376  1.1061 -0.1592
   21MOL   H31514755   5.125   3.180   3.874  2.0811  0.6183  2.7108
   21MOL   H31614756   5.234   3.057   3.833 -1.1913 -0.2887 -1.5115
   21MOL   H31714757   5.266   3.173   3.606 -0.9991 -0.3612 -0.7410
   21MOL   H31814758   5.145   3.294   3.669  1.7805  0.1457  0.1093
   21MOL   H31914759   4.970   3.126   3.665 -1.0154 -1.0256 -0.5834
   21MOL   H32014760   5.088   3.001   3.618 -1.2755  0.3873  0.9295
   21MOL   H32114761   5.010   2.925   3.140  1.7443  0.2620  1.7738
   21MOL   H32214762   4.944   3.059   3.041 -0.3157  0.2662  0.2415
   21MOL   H32314763   4.845   2.975   3.160  0.7744 -1.5226  1.1267
   21MOL   H32414764   5.124   3.216   3.097  0.8616  0.2892  0.2463
   21MOL   H32514765   5.157   3.249   3.259 -3.9078 -0.3597  1.2369
   21MOL   C32614766   5.402   1.900   3.455 -0.5891 -0.0694 -0.3687
   21MOL   C32714767   5.302   2.013   3.478 -1.2186  0.8096  0.7756
   21MOL   C32814768   5.340   2.149   3.405 -0.1832 -0.0886  0.2076
   21MOL   C32914769   5.249   2.269   3.437 -0.0520 -0.2166  0.0337
   21MOL   C33014770   5.301   2.394   3.366  0.7079 -0.2392 -0.1387
   21MOL   C33114771   5.239   2.526   3.430 -0.2958  0.8964  0.1516
   21MOL   C33214772   5.268   2.654   3.354 -1.0269  0.4735 -0.0799
   21MOL   C33314773   5.213   2.788   3.405  0.3331  0.0350 -0.0727
   21MOL   O33414774   5.210   2.879   3.300 -0.0649  0.3836  0.6023
   21MOL   C33514775   5.291   2.986   3.304 -0.0687 -0.5952  0.6773
   21MOL   O33614776   5.374   3.016   3.391 -0.6526  0.1567 -0.5285
   21MOL   C33714777   5.270   3.075   3.184 -0.1088  0.3105  0.1684
   21MOL   C33814778   5.271   2.982   3.054  0.2411  0.3647 -0.4568
   21MOL   C33914779   5.390   3.177   3.165  0.2462 -0.4451 -0.5311
   21MOL   H34014780   5.418   1.884   3.348 -0.6128  2.4556 -0.7845
   21MOL   H34114781   5.372   1.808   3.505 -0.2304  0.3784  0.6673
   21MOL   H34214782   5.501   1.927   3.492 -0.4642 -3.5777  2.0743
   21MOL   H34314783   5.291   2.041   3.583 -0.6573  3.5306  0.1461
   21MOL   H34414784   5.213   1.972   3.431  0.7370 -1.7357 -0.8525
   21MOL   H34514785   5.343   2.135   3.297  0.3928  1.1662  0.0577
   21MOL   H34614786   5.447   2.164   3.419 -0.4054  1.9071 -0.2015
   21MOL   H34714787   5.247   2.279   3.545  0.7120  1.4993 -0.1059
   21MOL   H34814788   5.147   2.250   3.402 -0.2735 -2.4335  1.8035
   21MOL   H34914789   5.408   2.395   3.385  0.6463 -0.6709  0.2567
   21MOL   H35014790   5.275   2.394   3.260 -0.4436  0.8909  0.1439
   21MOL   H35114791   5.130   2.523   3.431 -0.2973  0.7737 -0.5904
   21MOL   H35214792   5.258   2.523   3.538 -0.0703 -2.0684  0.0871
   21MOL   H35314793   5.212   2.637   3.262  0.0921  0.2735 -0.7410
   21MOL   H35414794   5.374   2.669   3.334 -0.8118 -0.9686 -0.0739
   21MOL   H35514795   5.113   2.767   3.442 -0.3695  2.9652 -0.1397
   21MOL   H35614796   5.272   2.822   3.490 -0.9655  0.3971  0.6970
   21MOL   H35714797   5.364   2.927   3.046 -0.4184 -0.6955 -1.0804
   21MOL   H35814798   5.191   2.908   3.045 -0.2895  0.7813  0.8029
   21MOL   H35914799   5.255   3.040   2.963  0.8368 -0.1239 -0.8714
   21MOL   H36014800   5.349   3.260   3.108  0.0794  0.5493  0.9941
   21MOL   H36114801   5.404   3.213   3.267  2.3375 -0.2273 -0.8636
   21MOL   C36214802   5.480   3.377   2.071  0.2229 -0.2978 -0.3899
   21MOL   C36314803   5.393   3.462   2.154 -0.3448  0.3505  0.1225
   21MOL   C36414804   5.412   3.429   2.296  0.2814  0.4040  0.1167
   21MOL   C36514805   5.289   3.479   2.373 -0.2238  0.0671 -1.6484
   21MOL   C36614806   5.308   3.459   2.524  0.0564 -0.3130 -0.3993
   21MOL   C36714807   5.341   3.314   2.568 -0.4719  0.4237  0.8099
   21MOL   C36814808   5.347   3.301   2.721  0.0091 -0.2060 -0.1557
   21MOL   C36914809   5.426   3.178   2.762 -0.0333  0.2640 -0.6685
   21MOL   O37014810   5.457   3.204   2.897  1.2644  0.9370 -0.3795
   21MOL   C37114811   5.536   3.122   2.953  0.6129 -0.1589  0.5612
   21MOL   O37214812   5.588   3.028   2.901 -0.2137 -0.1105  0.2227
   21MOL   C37314813   5.536   3.154   3.106  0.6592 -0.3016  0.6817
   21MOL   C37414814   5.602   3.027   3.185 -0.0074 -0.5605 -0.3169
   21MOL   C37514815   5.618   3.288   3.143 -0.5943  0.5788 -0.2694
   21MOL   H37614816   5.588   3.394   2.083 -0.4224  2.6890  1.9192
   21MOL   H37714817   5.456   3.271   2.082 -2.2591 -0.0061 -2.6532
   21MOL   H37814818   5.457   3.389   1.965 -1.4483 -0.3865 -0.0442
   21MOL   H37914819   5.288   3.454   2.129 -0.5109  0.0706  0.8944
   21MOL   H38014820   5.421   3.566   2.141  0.6439  0.0958  0.1635
   21MOL   H38114821   5.493   3.483   2.344  2.0065 -2.1764  0.2459
   21MOL   H38214822   5.417   3.321   2.312  4.2065  0.6260  0.8349
   21MOL   H38314823   5.196   3.426   2.354 -1.3316  1.6549 -0.7184
   21MOL   H38414824   5.259   3.581   2.351  1.4241  1.0386  0.4731
   21MOL   H38514825   5.390   3.520   2.562 -1.1369  0.5828  0.7660
   21MOL   H38614826   5.216   3.489   2.574  0.3048  2.2022 -1.3813
   21MOL   H38714827   5.436   3.285   2.523 -0.0673  3.0773 -0.1805
   21MOL   H38814828   5.261   3.248   2.534  0.1501  0.8066 -1.4822
   21MOL   H38914829   5.255   3.317   2.777 -0.4653 -3.4882  0.0887
   21MOL   H39014830   5.412   3.382   2.754 -2.3245  1.5289  0.2942
   21MOL   H39114831   5.362   3.090   2.761  1.3699 -0.8450  1.6998
   21MOL   H39214832   5.514   3.144   2.708  1.2820  3.7509 -0.8339
   21MOL   H39314833   5.547   2.933   3.187 -0.6393 -0.1742  0.4700
   21MOL   H39414834   5.695   3.004   3.133  0.1390  2.4095 -1.4551
   21MOL   H39514835   5.630   3.057   3.286  2.2305 -1.0814 -0.7429
   21MOL   H39614836   5.589   3.350   3.058  0.1561  1.8716  0.3973
   21MOL   H39714837   5.581   3.340   3.232 -1.1420 -2.3087  1.2647
   21MOL   C39814838   5.692   4.047   2.632 -0.0491  0.3778 -0.5700
   21MOL   C39914839   5.785   3.946   2.564 -1.0286  0.2306 -0.4584
   21MOL   C40014840   5.760   3.801   2.621  0.0560  0.1569 -0.4771
   21MOL   C40114841   5.842   3.694   2.551 -0.4027 -0.1408  0.0907
   21MOL   C40214842   5.781   3.557   2.544  0.9727  0.6736 -0.2175
   21MOL   C40314843   5.796   3.481   2.668  0.0849 -0.0287 -0.5958
   21MOL   C40414844   5.778   3.327   2.659  0.2169 -0.6021 -0.0707
   21MOL   C40514845   5.838   3.248   2.774  0.3582  0.2016  0.7613
   21MOL   O40614846   5.797   3.306   2.897  0.0724 -0.0553  0.6308
   21MOL   C40714847   5.837   3.239   3.013  0.8635  0.4430  0.1526
   21MOL   O40814848   5.897   3.134   3.021 -0.3459  0.5203  0.3332
   21MOL   C40914849   5.771   3.308   3.137 -0.7413  0.6444 -0.3898
   21MOL   C41014850   5.798   3.465   3.133 -0.3147  0.7362  0.3029
   21MOL   C41114851   5.840   3.246   3.266  0.4168 -0.8120 -0.0875
   21MOL   H41214852   5.591   4.029   2.596 -0.1302 -0.5923  0.1007
   21MOL   H41314853   5.714   4.149   2.602  0.3957  0.2036 -0.8529
   21MOL   H41414854   5.691   4.045   2.741 -1.2906 -1.1856 -0.5942
   21MOL   H41514855   5.884   3.987   2.581 -1.6979  2.5015 -1.9110
   21MOL   H41614856   5.774   3.944   2.456  0.1159 -0.9228 -0.5688
   21MOL   H41714857   5.789   3.796   2.726  1.3010  1.1223 -0.7588
   21MOL   H41814858   5.654   3.778   2.615 -0.3740  2.3517 -2.3348
   21MOL   H41914859   5.937   3.689   2.605  0.4041  1.0644 -1.2062
   21MOL   H42014860   5.860   3.714   2.446 -0.3984  0.1592  0.1502
   21MOL   H42114861   5.674   3.558   2.522  0.9117 -1.8501 -0.1931
   21MOL   H42214862   5.830   3.499   2.466  0.2749  0.6534 -0.6470
   21MOL   H42314863   5.718   3.519   2.735 -0.3463 -1.5829 -0.1891
   21MOL   H42414864   5.898   3.486   2.706 -1.0161 -0.6665  2.6101
   21MOL   H42514865   5.678   3.296   2.629  0.3163 -1.5843  0.5865
   21MOL   H42614866   5.828   3.296   2.567  0.7598  2.5711 -0.8873
   21MOL   H42714867   5.817   3.142   2.766  2.0630 -0.2954  2.4925
   21MOL   H42814868   5.945   3.261   2.765 -0.0911  2.4256 -2.7686
   21MOL   H42914869   5.750   3.514   3.217 -0.0684  0.7749  0.4186
   21MOL   H43014870   5.744   3.503   3.046 -1.0374 -0.6510  0.1293
   21MOL   H43114871   5.901   3.498   3.118 -0.4113  0.3820 -1.3455
   21MOL   H43214872   5.823   3.138   3.267 -2.1859 -0.4361  0.2806
   21MOL   H43314873   5.769   3.276   3.343  0.2880  0.1739 -0.5808
   21MOL   C43414874   5.903   3.985   2.954  0.1966 -0.0221  0.5615
   21MOL   C43514875   5.970   4.022   3.082 -0.2135  1.1298  0.3672
   21MOL   C43614876   5.992   3.902   3.174 -0.0557 -0.0841 -0.5462
   21MOL   C43714877   6.059   3.940   3.310  0.0922  0.0299  0.3080
   21MOL   C43814878   6.076   3.823   3.409 -0.5322  0.6620 -0.4331
   21MOL   C43914879   6.181   3.719   3.374 -0.8508  0.9582 -0.5880
   21MOL   C44014880   6.227   3.629   3.494  1.0449  0.0934 -1.0510
   21MOL   C44114881   6.130   3.524   3.553 -0.3800  0.3700 -0.0136
   21MOL   O44214882   6.114   3.417   3.465 -0.0586  0.0901  0.2270
   21MOL   C44314883   5.987   3.391   3.413 -0.9874 -0.1914 -0.0476
   21MOL   O44414884   5.887   3.451   3.435  0.2539  0.5216 -0.2662
   21MOL   C44514885   5.989   3.265   3.320 -0.4098 -0.1420 -0.0721
   21MOL   C44614886   6.098   3.288   3.209  0.0239  0.0709 -0.3373
   21MOL   C44714887   6.036   3.138   3.401 -0.6006 -0.1570  0.1332
   21MOL   H44814888   5.966   3.922   2.890  1.1747 -0.9120  2.3600
   21MOL   H44914889   5.855   4.066   2.899  1.3947  1.0020  1.0112
   21MOL   H45014890   5.814   3.929   2.983  0.2258  0.0104  0.7079
   21MOL   H45114891   5.914   4.097   3.137  0.7270  1.1258  1.3479
   21MOL   H45214892   6.066   4.058   3.044  1.0250 -1.6137  0.7411
   21MOL   H45314893   6.051   3.822   3.127 -1.4783 -0.6292 -1.4588
   21MOL   H45414894   5.892   3.861   3.188  0.2745 -0.1972  1.5278
   21MOL   H45514895   5.993   4.019   3.346 -1.5187 -0.9767 -0.3566
   21MOL   H45614896   6.156   3.988   3.301  0.5021 -0.7341  0.5643
   21MOL   H45714897   6.087   3.872   3.506 -0.0885  1.2868 -0.7980
   21MOL   H45814898   5.985   3.769   3.437  1.5051 -1.1236  3.2082
   21MOL   H45914899   6.271   3.775   3.348 -0.2163  1.3247  2.2260
   21MOL   H46014900   6.155   3.658   3.287 -1.1745 -0.4230  0.4745
   21MOL   H46114901   6.317   3.581   3.458  2.2446  0.7411  1.0038
   21MOL   H46214902   6.263   3.694   3.574  0.7131 -1.1212  0.1089
   21MOL   H46314903   6.036   3.571   3.582 -0.1517  1.6622 -1.3000
   21MOL   H46414904   6.167   3.480   3.645  0.2832  1.8690  0.4416
   21MOL   H46514905   6.122   3.191   3.165  0.2586 -0.6523  1.3515
   21MOL   H46614906   6.070   3.342   3.119  3.0633  1.3688 -0.5522
   21MOL   H46714907   6.193   3.323   3.249 -0.6559 -0.0989  1.5048
   21MOL   H46814908   6.008   3.059   3.332 -3.5582  0.8853  0.0718
   21MOL   H46914909   6.145   3.127   3.395 -0.5635  0.7861 -1.3317
   21MOL   C47014910   6.397   3.325   2.974  0.5724 -0.3207 -0.1491
   21MOL   C47114911   6.486   3.217   3.028 -0.7620 -0.8384 -0.0597
   21MOL   C47214912   6.494   3.211   3.180  0.1060  0.3543 -0.7818
   21MOL   C47314913   6.537   3.332   3.258  0.4866 -0.1309  0.0926
   21MOL   C47414914   6.557   3.295   3.406 -0.3487 -0.6435  0.3469
   21MOL   C47514915   6.429   3.279   3.483 -1.0692 -0.2919  0.0147
   21MOL   C47614916   6.435   3.205   3.614  0.6666 -0.6125  0.6257
   21MOL   C47714917   6.306   3.205   3.696 -0.2511 -0.1069 -0.3538
   21MOL   O47814918   6.209   3.139   3.618  0.1739  0.2553  0.3997
   21MOL   C47914919   6.071   3.159   3.649  0.1459  0.1226  0.0645
   21MOL   O48014920   6.027   3.220   3.745  0.0229  0.5805  0.5867
   21MOL   C48114921   5.982   3.088   3.546  0.3150 -0.4314  0.1773
   21MOL   C48214922   5.834   3.128   3.561  0.0496  0.3049 -0.0435
   21MOL   C48314923   5.999   2.931   3.559 -0.0952 -1.2464 -1.1811
   21MOL   H48414924   6.403   3.310   2.866  1.5768  0.8279 -0.2588
   21MOL   H48514925   6.435   3.424   2.997 -2.1198  1.1890 -1.9922
   21MOL   H48614926   6.292   3.320   3.001  0.9820 -1.2728  1.3226
   21MOL   H48714927   6.447   3.125   2.984 -2.8054 -0.2423  0.4761
   21MOL   H48814928   6.588   3.232   2.992 -0.8954  0.3885  0.0694
   21MOL   H48914929   6.396   3.185   3.219  0.9529  0.4331  1.5053
   21MOL   H49014930   6.565   3.132   3.205  0.5110  0.7824 -0.5368
   21MOL   H49114931   6.632   3.375   3.226  0.3474 -1.0210 -1.5371
   21MOL   H49214932   6.466   3.414   3.249 -1.7007 -1.7235  2.3288
   21MOL   H49314933   6.607   3.199   3.412 -0.3136 -0.5381  1.9579
   21MOL   H49414934   6.622   3.361   3.463 -0.8901 -0.9566  1.3308
   21MOL   H49514935   6.395   3.379   3.511 -0.4942  0.0433 -0.4949
   21MOL   H49614936   6.369   3.219   3.415  0.5244  2.3180 -3.8297
   21MOL   H49714937   6.439   3.098   3.598  1.4984 -0.2577 -1.7251
   21MOL   H49814938   6.510   3.241   3.684 -1.0670  0.4010  2.0103
   21MOL   H49914939   6.278   3.309   3.713  0.8085  0.0730  0.3172
   21MOL   H50014940   6.298   3.147   3.787 -0.8526 -0.3404 -0.5531
   21MOL   H50114941   5.785   3.120   3.658 -0.4065  0.3776 -0.2670
   21MOL   H50214942   5.770   3.097   3.478  1.5943 -0.2564 -1.0533
   21MOL   H50314943   5.825   3.236   3.550 -1.6406  0.1977  0.1779
   21MOL   H50414944   5.946   2.887   3.475 -2.3085  1.1476 -1.1024
   21MOL   H50514945   6.103   2.910   3.532  1.0022  2.6059 -0.3650
   21MOL   C50614946   5.951   2.307   3.852  0.1175  0.0150  0.1955
   21MOL   C50714947   5.857   2.348   3.734 -0.2930 -0.1619 -0.3951
   21MOL   C50814948   5.750   2.240   3.698  0.0096  0.6346 -0.2920
   21MOL   C50914949   5.641   2.283   3.598 -0.1763 -0.3900 -0.7167
   21MOL   C51014950   5.561   2.405   3.645 -0.3007 -0.1070  0.5359
   21MOL   C51114951   5.592   2.547   3.586 -0.1196  0.9858 -0.5151
   21MOL   C51214952   5.549   2.660   3.682 -0.3332  0.4836 -0.0696
   21MOL   C51314953   5.606   2.801   3.650 -0.1362  0.3581  0.4701
   21MOL   O51414954   5.745   2.802   3.632 -0.3252 -0.1539 -0.8306
   21MOL   C51514955   5.822   2.846   3.724 -0.1566 -0.2459  0.0403
   21MOL   O51614956   5.779   2.890   3.828 -0.0651  0.6380  0.3876
   21MOL   C51714957   5.971   2.844   3.684  0.2568 -0.3309  0.1746
   21MOL   C51814958   5.997   2.700   3.641  1.1355  0.4729  0.0269
   21MOL   C51914959   6.067   2.886   3.804 -0.7525  0.8429 -0.1269
   21MOL   H52014960   6.000   2.214   3.824  1.1439  1.5448 -3.4717
   21MOL   H52114961   5.892   2.276   3.938 -1.2102 -1.4979 -1.2379
   21MOL   H52214962   6.023   2.384   3.881  0.5468 -0.6322  0.8746
   21MOL   H52314963   5.908   2.400   3.653 -0.5670 -3.6865 -2.9130
   21MOL   H52414964   5.792   2.431   3.765 -1.7732 -0.6544 -2.1031
   21MOL   H52514965   5.796   2.147   3.662  1.0738 -0.3774  3.4911
   21MOL   H52614966   5.698   2.206   3.787  0.0764  3.2901  0.7930
   21MOL   H52714967   5.685   2.298   3.499 -0.8074 -1.5709 -1.1961
   21MOL   H52814968   5.581   2.192   3.598  0.0698 -0.5649  0.2269
   21MOL   H52914969   5.457   2.375   3.635 -0.0731 -1.4312  1.9079
   21MOL   H53014970   5.562   2.410   3.754  0.1546  2.1123  0.4577
   21MOL   H53114971   5.549   2.552   3.486  0.6187  0.2625 -0.8797
   21MOL   H53214972   5.700   2.545   3.571 -0.1672  0.9939 -0.8767
   21MOL   H53314973   5.589   2.632   3.780 -2.3501  0.1985  0.6901
   21MOL   H53414974   5.441   2.669   3.698 -0.3612  1.3839 -0.7056
   21MOL   H53514975   5.575   2.879   3.720 -1.0527 -1.6904  2.4089
   21MOL   H53614976   5.561   2.839   3.558 -1.4544  0.2172  1.0385
   21MOL   H53714977   5.975   2.625   3.717  4.5922 -1.1536 -0.4570
   21MOL   H53814978   6.094   2.681   3.594  1.0816 -3.4134  1.2697
   21MOL   H53914979   5.935   2.663   3.559  1.8821 -0.5712 -0.0775
   21MOL   H54014980   6.159   2.925   3.761 -0.6742 -0.4800 -1.1771
   21MOL   H54114981   6.023   2.975   3.850  0.3152  0.9147  0.7677
   21MOL   C54214982   7.086   2.919   3.297 -0.4990 -0.1753 -0.8792
   21MOL   C54314983   6.935   2.891   3.318  0.3844  0.0613  0.1626
   21MOL   C54414984   6.888   2.870   3.468  0.5520  0.8681 -0.3933
   21MOL   C54514985   6.733   2.858   3.485  0.0939  0.5616 -0.2442
   21MOL   C54614986   6.686   2.803   3.620  0.8195  0.0359  0.0183
   21MOL   C54714987   6.544   2.768   3.620  0.9472 -0.0679  0.3334
   21MOL   C54814988   6.516   2.665   3.731  0.5548  0.4831 -0.2173
   21MOL   C54914989   6.368   2.623   3.721  0.3482 -0.2347 -0.1599
   21MOL   O55014990   6.287   2.718   3.783 -1.2326 -0.1776 -0.0763
   21MOL   C55114991   6.203   2.677   3.881 -0.3830 -0.0411 -0.7261
   21MOL   O55214992   6.207   2.563   3.920 -0.0321 -0.3037 -0.4297
   21MOL   C55314993   6.104   2.782   3.922 -0.5695 -0.5352 -0.3746
   21MOL   C55414994   5.989   2.711   3.985 -0.6089  1.3645  0.3379
   21MOL   C55514995   6.170   2.878   4.025 -0.4977  0.3854 -0.1306
   21MOL   H55614996   7.110   3.015   3.342 -1.2148 -1.4466  2.4252
   21MOL   H55714997   7.107   2.925   3.191 -3.4562 -2.2366 -1.6601
   21MOL   H55814998   7.136   2.837   3.350  1.3728  2.7537  2.0723
   21MOL   H55914999   6.899   2.990   3.287  0.7980  1.0555  2.6939
   21MOL   H56015000   6.892   2.820   3.248 -1.5868 -0.2096  1.6147
   21MOL   H56115001   6.931   2.948   3.532  2.3542  0.1180 -0.6610
   21MOL   H56215002   6.933   2.780   3.511 -0.3330 -0.2356 -1.7572
   21MOL   H56315003   6.717   2.964   3.465  2.2019  1.1950  1.1766
   21MOL   H56415004   6.701   2.796   3.401  0.2525  0.6004 -0.3333
   21MOL   H56515005   6.705   2.868   3.705  2.5427  0.0538 -0.3758
   21MOL   H56615006   6.737   2.707   3.632  1.4967  0.2016 -1.5087
   21MOL   H56715007   6.481   2.855   3.639  0.2423  0.0963 -2.4577
   21MOL   H56815008   6.505   2.731   3.525 -2.2964  1.5333  0.9724
   21MOL   H56915009   6.584   2.582   3.714 -0.3108 -0.4412  0.7772
   21MOL   H57015010   6.534   2.703   3.831 -4.0834  0.9237  0.5535
   21MOL   H57115011   6.357   2.519   3.753 -0.3844  0.3593  1.6028
   21MOL   H57215012   6.341   2.623   3.616  0.9782  0.9730 -0.3321
   21MOL   H57315013   5.925   2.788   4.029 -0.6080  2.0215 -0.7738
   21MOL   H57415014   6.009   2.637   4.062 -2.1840 -1.1055 -1.5757
   21MOL   H57515015   5.927   2.659   3.912  1.6353 -2.4656  1.0398
   21MOL   H57615016   6.090   2.945   4.057 -1.8792 -1.1458 -0.3328
   21MOL   H57715017   6.231   2.953   3.973 -0.4659  0.3194 -0.1891
   21MOL   C57815018   7.207   2.325   3.665 -0.0457 -0.3939  0.3925
   21MOL   C57915019   7.121   2.306   3.788 -0.3694 -0.6479 -0.1699
   21MOL   C58015020   7.036   2.431   3.824  0.0507 -0.3096  0.1371
   21MOL   C58115021   6.945   2.411   3.940 -0.2263  0.2281 -0.3631
   21MOL   C58215022   6.843   2.525   3.981 -0.3537  0.1464 -0.1868
   21MOL   C58315023   6.766   2.500   4.113 -0.4217 -0.2109  0.2348
   21MOL   C58415024   6.613   2.531   4.092 -0.2747  0.2740  0.3548
   21MOL   C58515025   6.593   2.681   4.121  0.3005 -0.9054  0.2535
   21MOL   O58615026   6.458   2.702   4.130 -0.5462 -0.3538 -0.3999
   21MOL   C58715027   6.404   2.824   4.093  0.3361  0.3108  0.3675
   21MOL   O58815028   6.456   2.913   4.025  0.5168 -0.2389 -0.0062
   21MOL   C58915029   6.263   2.837   4.147  0.1316  0.7687  0.0355
   21MOL   C59015030   6.209   2.713   4.222  0.2759 -0.2629 -0.5507
   21MOL   C59115031   6.254   2.960   4.250  0.0013 -0.7991  0.0620
   21MOL   H59215032   7.269   2.413   3.679  0.9842 -1.1355  0.5335
   21MOL   H59315033   7.140   2.344   3.581  2.3929  0.6775 -1.3600
   21MOL   H59415034   7.275   2.243   3.643  2.5043  2.2287 -1.9470
   21MOL   H59515035   7.197   2.292   3.864  0.7475  1.6208 -0.8016
   21MOL   H59615036   7.061   2.216   3.781  0.4344 -1.1412 -0.9229
   21MOL   H59715037   6.964   2.448   3.744  1.3769  3.6841 -0.2924
   21MOL   H59815038   7.085   2.528   3.831 -1.2999  0.2130  3.2613
   21MOL   H59915039   7.005   2.383   4.027 -1.9817 -3.2529 -0.1761
   21MOL   H60015040   6.894   2.317   3.919  2.9372 -2.0439  1.7506
   21MOL   H60115041   6.777   2.537   3.896  1.8259  1.9592 -1.6866
   21MOL   H60215042   6.900   2.616   3.998 -1.0070  0.0951  2.6013
   21MOL   H60315043   6.814   2.541   4.202 -0.3666  0.3131 -0.0338
   21MOL   H60415044   6.770   2.393   4.132  0.1839 -0.3547 -0.6749
   21MOL   H60515045   6.554   2.483   4.170  1.3933 -1.2319  0.7059
   21MOL   H60615046   6.587   2.502   3.990  1.6687 -0.6671  0.1055
   21MOL   H60715047   6.629   2.725   4.214 -1.6817 -0.7475  0.9740
   21MOL   H60815048   6.642   2.744   4.047  0.2791 -0.3478  0.7159
   21MOL   H60915049   6.115   2.724   4.275 -0.3987 -1.1231 -1.5464
   21MOL   H61015050   6.214   2.621   4.165  0.2497 -1.1667  0.8849
   21MOL   H61115051   6.271   2.690   4.309 -0.9992  1.1574  0.7629
   21MOL   H61215052   6.150   2.961   4.283  0.0333 -1.1526  0.1723
   21MOL   H61315053   6.267   3.046   4.185  0.4415  0.1907  1.4276
   21MOL   C61415054   5.869   2.150   5.025 -0.1931  0.5268 -0.4150
   21MOL   C61515055   5.803   2.278   4.982 -0.0306  0.3048  0.6988
   21MOL   C61615056   5.885   2.398   4.921  0.7600  0.0422  0.1755
   21MOL   C61715057   5.935   2.367   4.774 -0.3390  0.5044  0.3755
   21MOL   C61815058   5.949   2.479   4.668 -0.2355  0.4399 -0.5610
   21MOL   C61915059   6.080   2.550   4.696  0.4188 -0.2859  0.0039
   21MOL   C62015060   6.084   2.688   4.624  0.1780  0.0592  0.4532
   21MOL   C62115061   6.219   2.756   4.634 -0.2366  0.4698 -0.5613
   21MOL   O62215062   6.231   2.857   4.535 -0.5013 -0.1686  0.5049
   21MOL   C62315063   6.351   2.885   4.487 -0.4582  0.1133  0.1219
   21MOL   O62415064   6.458   2.838   4.526  0.0170 -0.3116  0.1289
   21MOL   C62515065   6.347   2.998   4.379 -0.4173 -0.1926  0.6071
   21MOL   C62615066   6.494   3.020   4.327  0.0780 -0.0211 -0.3259
   21MOL   C62715067   6.283   3.126   4.445 -0.1087 -0.0951 -0.3082
   21MOL   H62815068   5.957   2.165   5.089 -1.4314  1.3234  1.1550
   21MOL   H62915069   5.892   2.090   4.937 -1.2287 -0.4683 -0.0188
   21MOL   H63015070   5.796   2.094   5.084 -0.2172  2.0796  1.0669
   21MOL   H63115071   5.713   2.259   4.924 -1.1085 -0.7791  2.7055
   21MOL   H63215072   5.756   2.323   5.069 -1.9453  1.8226 -1.0477
   21MOL   H63315073   5.968   2.432   4.984 -1.2758  2.0510  1.8488
   21MOL   H63415074   5.806   2.473   4.919  0.7822  0.4308  5.7339
   21MOL   H63515075   5.866   2.295   4.731 -0.1613  0.8627 -0.5057
   21MOL   H63615076   6.031   2.315   4.780  0.0261  1.0294 -0.7568
   21MOL   H63715077   5.931   2.438   4.568 -2.2055  2.9133 -1.2796
   21MOL   H63815078   5.872   2.556   4.682 -1.4056 -0.1867 -3.2533
   21MOL   H63915079   6.093   2.580   4.800  1.3404 -1.3560  0.2014
   21MOL   H64015080   6.165   2.486   4.672  0.0081 -0.3949 -1.2273
   21MOL   H64115081   5.999   2.746   4.661  0.0141  0.2640 -0.2324
   21MOL   H64215082   6.080   2.668   4.517  1.5101 -2.3678  0.8410
   21MOL   H64315083   6.217   2.813   4.727  1.4656 -1.2352  0.5446
   21MOL   H64415084   6.303   2.687   4.636  0.6394  1.5378  0.1377
   21MOL   H64515085   6.567   3.044   4.405 -1.5682  0.7196  1.0477
   21MOL   H64615086   6.497   3.079   4.236 -3.3474 -1.6721 -1.5906
   21MOL   H64715087   6.533   2.930   4.282 -0.6623 -0.1919 -0.6354
   21MOL   H64815088   6.188   3.095   4.489  0.1230  0.6106  0.7157
   21MOL   H64915089   6.253   3.200   4.372 -0.8065  1.8055  1.8266
   21MOL   C65015090   6.497   3.801   3.706  0.4996  0.1299  0.3885
   21MOL   C65115091   6.544   3.782   3.855 -0.1480 -0.1739 -0.0951
   21MOL   C65215092   6.458   3.682   3.935 -0.0498  0.3876 -0.0596
   21MOL   C65315093   6.432   3.547   3.876 -0.1537  0.0091 -0.0654
   21MOL   C65415094   6.344   3.460   3.958 -0.2656  0.1032 -0.5718
   21MOL   C65515095   6.376   3.444   4.108  0.5790  0.3969 -0.3297
   21MOL   C65615096   6.505   3.375   4.142 -0.6977 -0.0173 -0.1696
   21MOL   C65715097   6.548   3.398   4.286 -0.0474  0.2054 -0.1711
   21MOL   O65815098   6.450   3.353   4.375 -0.2740  0.2547  0.3479
   21MOL   C65915099   6.475   3.300   4.492 -0.0995 -0.0825  0.4729
   21MOL   O66015100   6.589   3.303   4.540 -0.2621  0.6109  0.7037
   21MOL   C66115101   6.357   3.217   4.550  0.4315 -0.9933  0.5703
   21MOL   C66215102   6.412   3.124   4.664 -0.1440 -0.2634 -0.0333
   21MOL   C66315103   6.263   3.336   4.601 -0.2733 -0.5946  0.4611
   21MOL   H66415104   6.502   3.712   3.644 -2.4190 -0.4705  0.9730
   21MOL   H66515105   6.566   3.870   3.657  0.1345 -0.5191 -1.0435
   21MOL   H66615106   6.399   3.848   3.710  0.5840  0.3079  0.4293
   21MOL   H66715107   6.561   3.880   3.901 -1.6850  0.0816 -0.0471
   21MOL   H66815108   6.645   3.741   3.847 -0.2221 -0.6949  1.4538
   21MOL   H66915109   6.362   3.725   3.963 -0.2049  0.3643 -0.5521
   21MOL   H67015110   6.496   3.658   4.035  0.6573 -0.0873 -0.4403
   21MOL   H67115111   6.533   3.507   3.862  0.7044  0.7211  3.6240
   21MOL   H67215112   6.387   3.562   3.778  0.2972  2.7576  0.1154
   21MOL   H67315113   6.362   3.364   3.910  2.8737  1.4637 -2.2535
   21MOL   H67415114   6.240   3.490   3.946  0.0226  0.5698 -1.9581
   21MOL   H67515115   6.378   3.534   4.169 -0.8559 -0.7925  1.5422
   21MOL   H67615116   6.289   3.404   4.160  1.8357 -2.0362 -0.0326
   21MOL   H67715117   6.581   3.423   4.080 -1.3084  0.2765 -0.6891
   21MOL   H67815118   6.512   3.270   4.115 -1.5103 -0.7121  2.2336
   21MOL   H67915119   6.581   3.501   4.293  0.9741 -0.0235 -1.4985
   21MOL   H68015120   6.636   3.335   4.300  1.8448  2.5075 -1.4011
   21MOL   H68115121   6.345   3.053   4.712  0.4044 -0.5206  0.3555
   21MOL   H68215122   6.422   3.191   4.749  1.6275 -1.1673  0.5012
   21MOL   H68315123   6.508   3.080   4.636  0.3452  0.8494 -0.1136
   21MOL   H68415124   6.324   3.412   4.650 -0.2875  0.1096 -0.5893
   21MOL   H68515125   6.235   3.401   4.518  1.4683 -0.8753 -0.3566
   21MOL   C68615126   5.687   3.537   3.871 -0.3184  0.2643 -0.2870
   21MOL   C68715127   5.819   3.478   3.832  0.0861  0.3824 -0.1417
   21MOL   C68815128   5.939   3.543   3.902 -0.4641  0.6805 -0.2567
   21MOL   C68915129   5.957   3.506   4.052 -0.0932 -0.6229 -0.4989
   21MOL   C69015130   5.936   3.361   4.092  0.6740 -0.0599 -0.2721
   21MOL   C69115131   5.926   3.358   4.240 -0.3836 -0.0776  0.4911
   21MOL   C69215132   5.900   3.213   4.289 -0.1147 -0.3684  0.2742
   21MOL   C69315133   5.880   3.197   4.443 -0.1323 -0.2219  0.9879
   21MOL   O69415134   5.995   3.259   4.506  0.3820 -0.7742 -0.7663
   21MOL   C69515135   6.024   3.233   4.637  0.3228  0.2564  0.1174
   21MOL   O69615136   5.954   3.158   4.701  0.5360 -0.0356  0.1639
   21MOL   C69715137   6.141   3.314   4.699 -0.2443 -0.3904  0.7081
   21MOL   C69815138   6.076   3.449   4.729  0.0491 -0.5601  0.3999
   21MOL   C69915139   6.192   3.262   4.828 -0.5355  0.1788 -0.2792
   21MOL   H70015140   5.666   3.517   3.977  1.7931  2.2499  0.5443
   21MOL   H70115141   5.602   3.486   3.825  0.5561 -0.8118 -0.7286
   21MOL   H70215142   5.679   3.645   3.861  0.0193  0.3456  0.2938
   21MOL   H70315143   5.835   3.478   3.725 -0.0032  2.8590 -0.1828
   21MOL   H70415144   5.808   3.373   3.860 -0.4142  0.4183 -0.1993
   21MOL   H70515145   5.947   3.652   3.891  0.3263  0.4947 -1.6644
   21MOL   H70615146   6.028   3.509   3.850 -1.1251 -0.5996 -0.5672
   21MOL   H70715147   5.883   3.570   4.100 -0.3886  0.8293 -2.7894
   21MOL   H70815148   6.059   3.528   4.084  0.2145 -0.5256 -1.5292
   21MOL   H70915149   6.016   3.296   4.056  0.3879 -0.0617 -0.9117
   21MOL   H71015150   5.845   3.321   4.047  1.6399 -0.2121 -2.1284
   21MOL   H71115151   6.016   3.402   4.282  0.1496 -1.0999  0.4289
   21MOL   H71215152   5.846   3.423   4.274 -0.8273 -0.5178  0.3081
   21MOL   H71315153   5.804   3.179   4.251 -0.1790  0.6511 -0.5135
   21MOL   H71415154   5.973   3.146   4.243  0.9816  0.9240  0.0914
   21MOL   H71515155   5.854   3.095   4.470 -2.4728  0.5040  1.6583
   21MOL   H71615156   5.796   3.264   4.464  0.5024  1.0295 -0.3458
   21MOL   H71715157   6.158   3.515   4.756  0.6611 -0.4083 -1.7511
   21MOL   H71815158   6.037   3.495   4.638  0.4276 -1.0120  0.0095
   21MOL   H71915159   6.004   3.449   4.812 -0.0554  0.3850  0.3132
   21MOL   H72015160   6.281   3.315   4.863  0.4889 -1.1231 -0.8949
   21MOL   H72115161   6.205   3.154   4.827  2.1056  0.4627 -0.8386
   21MOL   H72215162   6.113   3.271   4.903  0.9610 -1.3245  1.5332
   22MOL     C115163   5.758   1.626   2.911 -0.0484  0.4859 -1.0239
   22MOL     C215164   5.807   1.594   3.054 -0.0431  0.2004  1.1904
   22MOL     C315165   5.805   1.706   3.153 -0.0861 -0.0856  0.3177
   22MOL     C415166   5.843   1.665   3.292 -0.7304 -0.1529  0.4071
   22MOL     C515167   5.828   1.766   3.403  0.8236 -0.0075  0.0024
   22MOL     C615168   5.903   1.744   3.540  0.9360 -0.0022 -0.3070
   22MOL     C715169   5.874   1.846   3.646  0.4744 -0.1964  1.0547
   22MOL     C815170   5.936   1.795   3.779 -0.5334  0.1964  0.3406
   22MOL     O915171   6.074   1.814   3.780  0.1970 -0.5224 -0.1181
   22MOL    C1015172   6.148   1.831   3.892  0.0027 -0.2025  0.7581
   22MOL    O1115173   6.105   1.836   4.007  0.3462  0.2999  0.1288
   22MOL    C1215174   6.293   1.800   3.860  0.0701 -0.6882  0.5262
   22MOL    C1315175   6.320   1.656   3.843  0.1412 -0.5987 -0.0287
   22MOL    C1415176   6.347   1.873   3.728 -0.1060 -0.4517  0.0247
   22MOL    H1515177   5.650   1.624   2.892 -0.3021 -2.2814  0.4518
   22MOL    H1615178   5.810   1.559   2.842  2.6994 -0.1699  1.5927
   22MOL    H1715179   5.790   1.723   2.874 -0.2418  1.7962  2.1144
   22MOL    H1815180   5.909   1.561   3.038 -0.9795 -0.7193 -3.6423
   22MOL    H1915181   5.752   1.510   3.097  0.8404 -1.3794 -0.7267
   22MOL    H2015182   5.880   1.777   3.117 -1.4181  2.1851  1.9117
   22MOL    H2115183   5.706   1.748   3.167  0.1689  1.0243 -1.0585
   22MOL    H2215184   5.777   1.581   3.315 -1.3081  0.7451  2.1823
   22MOL    H2315185   5.946   1.628   3.287  0.4470  3.1751 -1.3968
   22MOL    H2415186   5.720   1.779   3.415  0.9895 -0.3005  1.9236
   22MOL    H2515187   5.855   1.864   3.362  0.9823  0.7350  1.8369
   22MOL    H2615188   6.010   1.753   3.523  1.1140 -0.3395  0.6004
   22MOL    H2715189   5.879   1.644   3.575  1.0692  0.4395  1.0823
   22MOL    H2815190   5.768   1.867   3.658  0.4687  0.1623  0.4148
   22MOL    H2915191   5.911   1.944   3.616 -1.0749 -0.3954 -1.6244
   22MOL    H3015192   5.914   1.689   3.798 -1.5834  0.0269 -1.6393
   22MOL    H3115193   5.884   1.848   3.858 -2.2118  0.2051 -0.7364
   22MOL    H3215194   6.427   1.641   3.857  0.2863  0.7644  0.3919
   22MOL    H3315195   6.265   1.593   3.914  3.3976 -2.2570  1.1494
   22MOL    H3415196   6.290   1.619   3.745  0.1408 -0.6726 -0.0013
   22MOL    H3515197   6.268   1.856   3.654 -0.4024 -3.0319  0.8883
   22MOL    H3615198   6.438   1.824   3.692 -0.8120 -2.7528  1.2546
   22MOL    H3715199   6.346   1.829   3.951 -1.4917  1.7044  0.7016
   22MOL    C3815200   7.250   2.092   3.050  0.0424  0.0419 -0.8982
   22MOL    C3915201   7.128   2.088   3.125 -0.6883  0.7452  0.2306
   22MOL    C4015202   7.149   2.041   3.268  0.4051  0.1109 -0.0138
   22MOL    C4115203   7.014   2.058   3.338 -0.0091 -0.6603  0.5824
   22MOL    C4215204   7.007   1.996   3.485  0.0735  0.2463  0.4533
   22MOL    C4315205   6.870   2.039   3.551 -0.1410 -0.3626 -0.2223
   22MOL    C4415206   6.853   1.990   3.690  0.2791 -0.0108  0.0570
   22MOL    C4515207   6.747   2.063   3.781 -0.1792 -0.4275 -0.0318
   22MOL    O4615208   6.615   2.026   3.739 -0.4086 -1.1568 -0.1265
   22MOL    C4715209   6.504   2.071   3.802  0.9103 -0.3855 -0.5278
   22MOL    O4815210   6.501   2.128   3.909 -0.1305 -0.1074  0.2689
   22MOL    C4915211   6.373   2.033   3.723 -0.1888  0.4938 -0.1009
   22MOL    C5015212   6.253   2.115   3.764  0.1901 -0.7861  0.1482
   22MOL    C5115213   6.401   2.064   3.565 -0.3125  0.7416 -0.1093
   22MOL    H5215214   7.319   2.168   3.086 -0.2926  0.5030 -1.2256
   22MOL    H5315215   7.232   2.125   2.948 -3.1323 -0.2991 -0.5045
   22MOL    H5415216   7.305   1.998   3.053  2.5568  1.4979 -0.1367
   22MOL    H5515217   7.053   2.021   3.082  1.2347 -3.0914  2.5658
   22MOL    H5615218   7.083   2.187   3.126 -2.5160 -0.0169 -1.8313
   22MOL    H5715219   7.177   1.935   3.269 -2.2107 -0.6025  2.7126
   22MOL    H5815220   7.227   2.098   3.317  1.4275  0.0797 -1.5782
   22MOL    H5915221   6.923   2.034   3.282  0.9954 -1.4299 -0.7348
   22MOL    H6015222   6.999   2.166   3.344 -0.8764 -0.7151 -0.3907
   22MOL    H6115223   7.002   1.887   3.494 -2.2518  0.1745 -1.3577
   22MOL    H6215224   7.097   2.027   3.538  0.2767  0.9440 -0.2857
   22MOL    H6315225   6.855   2.147   3.556 -2.0459 -0.5694 -0.8832
   22MOL    H6415226   6.793   1.992   3.489  1.2282 -0.9664 -1.4968
   22MOL    H6515227   6.946   2.005   3.745 -0.0401 -0.8569  0.8356
   22MOL    H6615228   6.830   1.883   3.691 -0.6837  0.1703 -1.0655
   22MOL    H6715229   6.768   2.169   3.767 -1.6825  0.0619  1.2271
   22MOL    H6815230   6.748   2.031   3.885  0.0532  0.3018  0.1911
   22MOL    H6915231   6.263   2.222   3.783 -0.0928 -0.1271 -3.0545
   22MOL    H7015232   6.172   2.102   3.692 -2.0649  1.3797  2.2100
   22MOL    H7115233   6.220   2.092   3.865  0.8695  1.0826  0.8063
   22MOL    H7215234   6.338   1.998   3.506  1.1753 -0.0956 -0.7857
   22MOL    H7315235   6.498   2.026   3.535  0.0708  0.0127  1.9141
   22MOL    C7415236   5.475   2.007   2.893 -0.7086  0.2440 -0.2191
   22MOL    C7515237   5.571   2.103   2.965  0.2913 -0.2918 -0.4049
   22MOL    C7615238   5.717   2.046   2.968  0.7983  0.3527  0.3843
   22MOL    C7715239   5.819   2.152   3.037  0.5992  0.3226  0.9825
   22MOL    C7815240   5.966   2.092   3.063  0.3444  0.3128 -0.6445
   22MOL    C7915241   6.035   2.160   3.186  0.0398  0.4282  0.1417
   22MOL    C8015242   5.983   2.112   3.321  0.7800  0.1764  0.4502
   22MOL    C8115243   6.039   2.188   3.430  0.0496  0.5124 -0.3045
   22MOL    O8215244   6.182   2.173   3.435  0.0252 -0.0175  0.4768
   22MOL    C8315245   6.259   2.261   3.502  0.3079 -0.1183 -0.4002
   22MOL    O8415246   6.216   2.367   3.553 -0.3761  0.2304 -0.3899
   22MOL    C8515247   6.408   2.210   3.505  0.6414 -0.7829 -0.0098
   22MOL    C8615248   6.504   2.299   3.587  0.1028  0.2662  0.3467
   22MOL    C8715249   6.460   2.205   3.353 -0.2461  0.0760 -0.3374
   22MOL    H8815250   5.513   1.991   2.792  0.5786 -0.3103  0.3381
   22MOL    H8915251   5.380   2.060   2.899  0.2838  1.9983  0.4076
   22MOL    H9015252   5.480   1.919   2.958 -0.9861 -1.2654 -2.1975
   22MOL    H9115253   5.542   2.121   3.068  0.8215 -0.0197 -0.3022
   22MOL    H9215254   5.566   2.196   2.908  1.7540  0.3059  0.4256
   22MOL    H9315255   5.712   1.953   3.025  1.6258  1.0670  1.6276
   22MOL    H9415256   5.750   2.029   2.865  2.0916 -0.5293  0.9306
   22MOL    H9515257   5.773   2.183   3.130 -2.4654 -1.6389  0.1805
   22MOL    H9615258   5.823   2.244   2.978 -1.4403 -1.1289 -1.5060
   22MOL    H9715259   5.974   1.986   3.087 -2.4285  0.1983  0.0118
   22MOL    H9815260   6.021   2.088   2.969  0.5616 -1.9587 -0.4471
   22MOL    H9915261   6.143   2.158   3.174  0.1123  1.0190  0.6270
   22MOL   H10015262   6.011   2.266   3.185  0.7984  0.6197  0.8260
   22MOL   H10115263   5.874   2.113   3.328  0.8096  0.5153  0.9237
   22MOL   H10215264   6.003   2.005   3.332  0.5214  0.0469 -0.3639
   22MOL   H10315265   5.988   2.153   3.519  0.9291  2.1680  0.8648
   22MOL   H10415266   6.009   2.292   3.416  1.0473  1.5198  4.3833
   22MOL   H10515267   6.477   2.296   3.692 -1.3029  3.1199  0.1416
   22MOL   H10615268   6.507   2.405   3.558 -0.9994  0.3867  0.6535
   22MOL   H10715269   6.602   2.254   3.591  0.6852  1.5974  1.3948
   22MOL   H10815270   6.549   2.142   3.361 -0.5107 -0.3038 -0.3826
   22MOL   H10915271   6.384   2.151   3.296  0.6967 -0.1766 -1.3851
   22MOL   C11015272   7.598   2.447   3.486  0.0556  0.0241 -0.3305
   22MOL   C11115273   7.516   2.537   3.402  0.3126  0.5495 -0.4610
   22MOL   C11215274   7.382   2.481   3.357  0.2482  0.2500  0.6614
   22MOL   C11315275   7.310   2.602   3.279  0.8094  0.3000 -0.7675
   22MOL   C11415276   7.166   2.569   3.229 -0.0042 -0.4342 -0.9439
   22MOL   C11515277   7.082   2.485   3.328 -0.6357 -0.1661 -0.0960
   22MOL   C11615278   6.940   2.454   3.278 -0.3741 -0.0594  1.2949
   22MOL   C11715279   6.852   2.405   3.396 -0.4065  0.0000  0.3566
   22MOL   O11815280   6.730   2.344   3.352 -0.3392 -0.0369  0.2044
   22MOL   C11915281   6.612   2.408   3.314  0.7014 -0.6608 -0.0512
   22MOL   O12015282   6.583   2.524   3.340  0.0518 -0.3167 -0.9562
   22MOL   C12115283   6.503   2.314   3.249 -0.0773 -0.2669  0.7278
   22MOL   C12215284   6.372   2.391   3.212  0.2451 -0.0944 -0.0207
   22MOL   C12315285   6.564   2.243   3.123 -0.0149 -0.1798 -0.1704
   22MOL   H12415286   7.589   2.341   3.463 -0.8682 -0.2228  1.1576
   22MOL   H12515287   7.704   2.471   3.479  0.0359 -0.0065 -0.7334
   22MOL   H12615288   7.583   2.462   3.593 -0.2920 -0.4696 -0.3079
   22MOL   H12715289   7.578   2.561   3.315 -0.2585 -1.9424 -1.5858
   22MOL   H12815290   7.508   2.634   3.450 -1.6115  1.7794 -3.1279
   22MOL   H12915291   7.334   2.445   3.449 -0.7419  2.2429  0.9451
   22MOL   H13015292   7.407   2.395   3.294 -2.2531  0.0489 -0.0849
   22MOL   H13115293   7.316   2.689   3.344 -1.3443  0.2213 -0.4287
   22MOL   H13215294   7.366   2.642   3.194  2.7237  1.0123  0.7806
   22MOL   H13315295   7.174   2.524   3.130  1.0026  0.4909 -1.2953
   22MOL   H13415296   7.110   2.661   3.212  2.5026  1.4752  0.6726
   22MOL   H13515297   7.139   2.399   3.363  0.4375 -0.1468 -1.7334
   22MOL   H13615298   7.068   2.548   3.416 -1.3932 -0.2725 -0.1337
   22MOL   H13715299   6.946   2.379   3.199  0.9036  0.1140  1.2227
   22MOL   H13815300   6.902   2.544   3.229  1.5549 -0.3283 -0.7844
   22MOL   H13915301   6.904   2.338   3.464 -0.5276 -0.0377  0.4123
   22MOL   H14015302   6.834   2.501   3.446 -0.7140 -0.3042  0.8365
   22MOL   H14115303   6.395   2.493   3.181  0.7826 -0.4116 -0.6791
   22MOL   H14215304   6.305   2.345   3.139 -1.5233 -0.6423  1.8940
   22MOL   H14315305   6.305   2.402   3.297  0.4951 -0.4717  0.2297
   22MOL   H14415306   6.512   2.150   3.099 -1.5579  0.8571 -0.9448
   22MOL   H14515307   6.664   2.214   3.156 -0.0030  2.0988  1.8594
   22MOL   C14615308   5.506   2.791   2.696  0.0116  0.3498 -0.6908
   22MOL   C14715309   5.630   2.718   2.652  0.5718  0.0124  0.5292
   22MOL   C14815310   5.753   2.751   2.738  0.4216  0.6515  0.6125
   22MOL   C14915311   5.864   2.660   2.687  0.2187 -0.1715 -0.0541
   22MOL   C15015312   5.996   2.664   2.762 -0.0218 -0.5545 -0.2535
   22MOL   C15115313   6.098   2.558   2.711 -0.4279 -0.3635 -0.0349
   22MOL   C15215314   6.220   2.542   2.804 -0.0318  0.4578  0.4684
   22MOL   C15315315   6.322   2.442   2.746  1.1791 -0.3784 -0.4563
   22MOL   O15415316   6.434   2.426   2.834 -0.3067 -0.0316  0.9318
   22MOL   C15515317   6.458   2.316   2.911  0.1306 -0.4860 -0.4664
   22MOL   O15615318   6.382   2.216   2.920 -0.0340  0.0856  0.8769
   22MOL   C15715319   6.594   2.317   2.987 -0.1495  0.1788 -0.4272
   22MOL   C15815320   6.651   2.457   3.002  0.6379  0.4733 -0.0008
   22MOL   C15915321   6.693   2.216   2.915 -0.1758 -0.2229  0.1719
   22MOL   H16015322   5.515   2.898   2.681  0.0605  0.7396  1.9225
   22MOL   H16115323   5.498   2.780   2.804 -0.0709 -1.4067 -0.8564
   22MOL   H16215324   5.420   2.762   2.635 -0.2502  1.8341 -1.0441
   22MOL   H16315325   5.609   2.612   2.662  0.4064 -0.1801 -1.6157
   22MOL   H16415326   5.647   2.731   2.545  1.3779 -2.6119  0.3149
   22MOL   H16515327   5.737   2.739   2.845 -0.7609 -2.1748  0.1535
   22MOL   H16615328   5.775   2.858   2.729 -4.6450  1.7317 -0.2381
   22MOL   H16715329   5.823   2.559   2.694  2.1410 -0.8449  2.0704
   22MOL   H16815330   5.887   2.691   2.586 -1.8031  0.0280 -0.4845
   22MOL   H16915331   5.972   2.651   2.868 -0.3410 -2.2749 -0.5224
   22MOL   H17015332   6.045   2.761   2.756  4.3953 -2.6231  0.0302
   22MOL   H17115333   6.125   2.570   2.606  1.0160 -0.2672  0.3454
   22MOL   H17215334   6.037   2.469   2.723  0.2882 -0.8509  0.0108
   22MOL   H17315335   6.265   2.640   2.823  1.3268 -0.4527  2.0116
   22MOL   H17415336   6.176   2.522   2.901 -0.8747 -0.4434 -0.0876
   22MOL   H17515337   6.281   2.344   2.721  0.5482 -1.2415  3.7060
   22MOL   H17615338   6.357   2.476   2.648 -0.9504  2.3229 -0.3377
   22MOL   H17715339   6.579   2.527   3.043 -0.4891 -0.1446 -0.9197
   22MOL   H17815340   6.688   2.496   2.908 -1.1794 -2.8217 -2.1620
   22MOL   H17915341   6.740   2.469   3.064  1.1030  0.8695 -0.7363
   22MOL   H18015342   6.655   2.114   2.925  1.2729 -0.8302 -0.4684
   22MOL   H18115343   6.775   2.214   2.986  0.2023 -1.0370 -0.2825
   22MOL   C18215344   6.559   1.293   2.523 -0.6507  0.0669 -0.4648
   22MOL   C18315345   6.510   1.376   2.637 -0.1073 -0.0477 -0.1775
   22MOL   C18415346   6.454   1.509   2.591 -0.2360  0.0470 -0.5458
   22MOL   C18515347   6.372   1.573   2.703  0.1907 -0.4749 -0.1931
   22MOL   C18615348   6.322   1.717   2.672 -0.4439  0.3400 -0.1387
   22MOL   C18715349   6.433   1.823   2.680 -0.3113 -0.0005 -0.2113
   22MOL   C18815350   6.373   1.963   2.651  0.0086  0.3160  0.4353
   22MOL   C18915351   6.473   2.053   2.570  0.3759 -0.2502  0.3892
   22MOL   O19015352   6.583   2.077   2.655 -0.4250  0.2565 -0.8610
   22MOL   C19115353   6.634   2.209   2.662  0.0866 -0.2034 -0.4603
   22MOL   O19215354   6.590   2.294   2.591  0.1567 -0.7724  0.0974
   22MOL   C19315355   6.751   2.225   2.768  0.2734 -0.4147  0.7396
   22MOL   C19415356   6.840   2.094   2.767  0.4253  1.0087 -0.0329
   22MOL   C19515357   6.831   2.359   2.750  0.1730 -0.5042 -0.2882
   22MOL   H19615358   6.637   1.351   2.474 -2.5048  1.4131 -1.9063
   22MOL   H19715359   6.602   1.204   2.569 -0.2613  0.5613  0.1408
   22MOL   H19815360   6.490   1.273   2.440 -0.0803  0.5781 -1.0603
   22MOL   H19915361   6.590   1.394   2.708 -0.5540 -1.3231  0.6571
   22MOL   H20015362   6.431   1.324   2.690 -0.7641  1.1344  0.0242
   22MOL   H20115363   6.543   1.571   2.577  0.0371 -0.5929 -1.7586
   22MOL   H20215364   6.387   1.495   2.505  1.0345 -1.6889 -1.2777
   22MOL   H20315365   6.286   1.509   2.724 -0.4327  0.8501  1.3382
   22MOL   H20415366   6.435   1.583   2.791  0.0091 -0.9745 -0.0020
   22MOL   H20515367   6.242   1.739   2.742 -0.5088  0.6198 -0.3006
   22MOL   H20615368   6.268   1.717   2.577 -0.8854 -1.3786  0.0922
   22MOL   H20715369   6.511   1.796   2.608 -0.8339 -2.6181  0.1606
   22MOL   H20815370   6.489   1.803   2.771  1.8464 -0.6058 -1.6270
   22MOL   H20915371   6.285   1.966   2.586  0.3724 -0.8982 -0.1296
   22MOL   H21015372   6.343   2.013   2.743  0.2616  0.3922  0.4759
   22MOL   H21115373   6.418   2.142   2.538 -0.7426 -0.9165  0.4646
   22MOL   H21215374   6.502   2.013   2.473  0.4129 -0.3916  0.4601
   22MOL   H21315375   6.889   2.075   2.671 -0.7314 -2.3309 -0.0171
   22MOL   H21415376   6.921   2.102   2.840 -0.9643  0.2842  1.6103
   22MOL   H21515377   6.789   2.002   2.795  4.8063 -1.7904 -0.6441
   22MOL   H21615378   6.752   2.431   2.730  1.2504  1.2659  1.6305
   22MOL   H21715379   6.879   2.373   2.847 -0.5702 -2.6617  0.4262
   22MOL   C21815380   6.129   2.159   2.302  1.4323 -0.6707  0.5959
   22MOL   C21915381   6.171   2.307   2.266  0.6060  0.6796  0.5741
   22MOL   C22015382   6.264   2.366   2.370  0.2751  0.1249  0.0862
   22MOL   C22115383   6.321   2.501   2.332 -0.1890  0.0810  0.1746
   22MOL   C22215384   6.447   2.505   2.238  0.6665  0.1046  1.0004
   22MOL   C22315385   6.568   2.440   2.305 -0.1930 -0.0501  0.2139
   22MOL   C22415386   6.703   2.486   2.252  0.3325 -0.0443 -0.6967
   22MOL   C22515387   6.814   2.402   2.306 -0.2718 -0.1418 -0.3899
   22MOL   O22615388   6.833   2.417   2.439 -0.0034 -0.0677 -0.2180
   22MOL   C22715389   6.903   2.330   2.509 -0.0538  0.1636  0.0504
   22MOL   O22815390   6.925   2.211   2.478 -0.1773 -0.2786  0.1458
   22MOL   C22915391   6.947   2.378   2.648 -0.3817  0.5417 -0.1336
   22MOL   C23015392   7.078   2.304   2.697 -0.2944  0.5205  0.6795
   22MOL   C23115393   6.982   2.533   2.637 -0.3026  0.7259 -0.8859
   22MOL   H23215394   6.053   2.152   2.381 -0.7283 -1.3124 -1.4904
   22MOL   H23315395   6.213   2.095   2.329  1.5792 -1.0176 -0.6494
   22MOL   H23415396   6.094   2.100   2.218  1.9911 -1.3081  0.8056
   22MOL   H23515397   6.075   2.357   2.255  0.3893 -0.1666 -1.6383
   22MOL   H23615398   6.208   2.324   2.165  0.4363 -1.2452  0.1728
   22MOL   H23715399   6.210   2.368   2.465  1.0169  3.9034  0.5172
   22MOL   H23815400   6.346   2.310   2.414 -1.7708 -1.0560  2.5215
   22MOL   H23915401   6.247   2.566   2.285 -0.6096  1.1552  2.2607
   22MOL   H24015402   6.344   2.564   2.418  1.0842 -0.0034 -0.0991
   22MOL   H24115403   6.422   2.436   2.158  1.0696  1.0107  0.0801
   22MOL   H24215404   6.464   2.606   2.200  0.1025  0.4733  1.7151
   22MOL   H24315405   6.567   2.460   2.412 -2.0349 -0.2635  0.2549
   22MOL   H24415406   6.558   2.332   2.290 -1.1498  0.2588 -1.4952
   22MOL   H24515407   6.711   2.595   2.262 -0.1225 -0.1652  1.2882
   22MOL   H24615408   6.699   2.466   2.145  0.9859  1.1060 -0.9436
   22MOL   H24715409   6.907   2.419   2.251 -0.2451  1.1553  0.0395
   22MOL   H24815410   6.798   2.296   2.285 -1.1622  0.1931 -1.4423
   22MOL   H24915411   7.152   2.331   2.622 -0.8265  0.4878  0.1462
   22MOL   H25015412   7.078   2.195   2.692 -1.1186  0.4097  2.6210
   22MOL   H25115413   7.106   2.342   2.795  1.0284 -2.2605  1.4410
   22MOL   H25215414   7.033   2.545   2.541  0.8714  2.8544 -0.0238
   22MOL   H25315415   6.884   2.575   2.613  0.0367  2.0030 -0.0747
   22MOL   C25415416   0.006   1.994   2.418  0.1615 -0.0301 -0.1537
   22MOL   C25515417   7.702   2.111   2.453 -0.0661 -0.4099 -0.8873
   22MOL   C25615418   7.640   2.086   2.594  0.1241 -0.1002 -0.5441
   22MOL   C25715419   7.577   2.217   2.648 -0.3561  0.2114  0.2620
   22MOL   C25815420   7.555   2.207   2.804  0.5360  0.5899 -0.3153
   22MOL   C25915421   7.530   2.336   2.873 -0.1287 -0.2202  0.5945
   22MOL   C26015422   7.386   2.381   2.836  0.4748  0.0062  0.1586
   22MOL   C26115423   7.379   2.532   2.877 -0.8805  0.0244  0.5236
   22MOL   O26215424   7.242   2.567   2.876 -0.2921  0.2755  0.1208
   22MOL   C26315425   7.188   2.602   2.755 -0.1120 -0.2212 -0.3842
   22MOL   O26415426   7.257   2.625   2.656  0.2266 -0.5117 -0.2907
   22MOL   C26515427   7.037   2.629   2.745 -0.2661  0.2162 -0.3280
   22MOL   C26615428   6.977   2.615   2.883 -0.2802  0.4178 -0.0693
   22MOL   C26715429   7.007   2.774   2.678 -0.8655 -0.7253 -0.2134
   22MOL   H26815430   0.096   1.991   2.480 -0.3266 -0.1307  0.5431
   22MOL   H26915431   7.738   1.899   2.441  1.3721 -0.0065  2.6177
   22MOL   H27015432   0.052   1.997   2.319 -1.3214  1.8389 -0.8163
   22MOL   H27115433   7.771   2.195   2.452 -0.1125 -0.3590 -3.5074
   22MOL   H27215434   7.625   2.126   2.378 -0.6868  3.0181  0.3386
   22MOL   H27315435   7.717   2.065   2.669 -0.9611 -3.3566 -0.2824
   22MOL   H27415436   7.561   2.011   2.591 -0.2915  0.3094  0.2158
   22MOL   H27515437   7.481   2.220   2.596  1.1269 -1.4159 -2.6774
   22MOL   H27615438   7.630   2.305   2.610  0.1655 -0.3859 -0.4122
   22MOL   H27715439   7.488   2.125   2.832  0.4955  0.1403 -1.7046
   22MOL   H27815440   7.648   2.171   2.849 -0.4024 -1.6080 -0.0839
   22MOL   H27915441   7.598   2.406   2.824 -0.7750  0.1563  0.2263
   22MOL   H28015442   7.546   2.332   2.981 -0.2413 -0.0420  0.6191
   22MOL   H28115443   7.368   2.375   2.729  1.2101  1.5046 -0.0603
   22MOL   H28215444   7.319   2.315   2.890  0.1412  1.8949  2.1490
   22MOL   H28315445   7.425   2.551   2.975 -1.2309  3.3642  0.0686
   22MOL   H28415446   7.441   2.586   2.806  1.2425 -0.7836  1.7177
   22MOL   H28515447   7.016   2.695   2.946 -0.9918  1.8466 -1.3939
   22MOL   H28615448   6.868   2.622   2.872 -0.2914 -0.8976 -0.8428
   22MOL   H28715449   6.998   2.517   2.926 -3.2659 -1.1620 -2.0246
   22MOL   H28815450   6.909   2.777   2.632 -0.3657 -1.1227 -1.3183
   22MOL   H28915451   7.067   2.771   2.587 -0.6510 -1.0872 -0.0625
   22MOL   C29015452   5.955   2.817   3.071  0.6597  0.0291  0.3407
   22MOL   C29115453   6.106   2.853   3.074 -0.7324  0.3904 -0.2012
   22MOL   C29215454   6.181   2.795   3.196 -0.2456  0.4640 -0.2256
   22MOL   C29315455   6.328   2.837   3.210 -0.0988  0.2363 -0.3201
   22MOL   C29415456   6.417   2.792   3.095  0.1709 -0.7167  0.2648
   22MOL   C29515457   6.569   2.819   3.116  0.1875  0.3848 -0.2108
   22MOL   C29615458   6.665   2.785   2.998  0.3447 -0.2249 -0.3432
   22MOL   C29715459   6.688   2.909   2.916  0.2127  0.2265  0.2856
   22MOL   O29815460   6.792   2.901   2.823  0.0457 -1.0614  0.5754
   22MOL   C29915461   6.916   2.936   2.862 -0.4003  0.0791  0.0803
   22MOL   O30015462   6.954   2.965   2.978  0.4482  0.1664 -0.5804
   22MOL   C30115463   7.019   2.916   2.751  0.0788 -0.4445 -0.7965
   22MOL   C30215464   7.159   2.916   2.823 -0.2087  0.0852  0.3601
   22MOL   C30315465   7.018   3.036   2.648  0.0787 -0.1975 -0.2068
   22MOL   H30415466   5.924   2.713   3.065 -0.1863  0.2412  0.8714
   22MOL   H30515467   5.906   2.876   2.994 -1.0758 -0.0788  1.3352
   22MOL   H30615468   5.924   2.855   3.168  0.0888  1.1934 -0.2931
   22MOL   H30715469   6.120   2.959   3.053  2.2212  0.5543  2.3088
   22MOL   H30815470   6.145   2.788   2.996  0.9842 -0.1043  1.0469
   22MOL   H30915471   6.175   2.687   3.184 -4.2210  0.4164  1.3412
   22MOL   H31015472   6.131   2.826   3.288  0.7895  1.7464 -0.0710
   22MOL   H31115473   6.331   2.945   3.224  1.7313  0.1404  0.2482
   22MOL   H31215474   6.371   2.785   3.296 -0.8325  0.0523 -0.0628
   22MOL   H31315475   6.405   2.685   3.083 -1.6624 -0.5562  0.5069
   22MOL   H31415476   6.384   2.843   3.004 -0.4836 -1.2027  0.2324
   22MOL   H31515477   6.592   2.741   3.189  2.6665  1.3653  0.0991
   22MOL   H31615478   6.572   2.918   3.163  2.1276  0.1740  0.1440
   22MOL   H31715479   6.625   2.712   2.928 -1.0143  2.6392 -2.6435
   22MOL   H31815480   6.765   2.755   3.031  0.5250 -0.1927 -0.8472
   22MOL   H31915481   6.702   3.004   2.969  0.2712  0.7601 -0.6714
   22MOL   H32015482   6.603   2.927   2.851  0.4339  1.0755  0.2224
   22MOL   H32115483   7.241   2.882   2.760 -0.6802  1.4695 -1.0321
   22MOL   H32215484   7.167   2.853   2.911 -2.5637 -2.3526 -1.1129
   22MOL   H32315485   7.165   3.013   2.874 -1.1925  0.3344  0.0347
   22MOL   H32415486   7.070   3.123   2.687  1.9219 -2.0286  1.5641
   22MOL   H32515487   7.086   3.002   2.571  0.6319 -1.2244  0.7210
   22MOL   C32615488   5.777   3.033   2.415 -0.1893  0.0948 -0.5619
   22MOL   C32715489   5.933   3.060   2.398 -0.1418  0.2518  0.2730
   22MOL   C32815490   6.011   2.950   2.466 -0.4013  0.6581 -0.6218
   22MOL   C32915491   6.163   3.002   2.484  0.4933  0.2595  0.0680
   22MOL   C33015492   6.251   2.894   2.550  0.1879 -0.4153  0.1068
   22MOL   C33115493   6.396   2.935   2.549 -0.1732 -1.0323  0.3741
   22MOL   C33215494   6.483   2.817   2.583  0.1433  0.3272  0.4898
   22MOL   C33315495   6.623   2.812   2.525 -0.3299  0.2616  0.2712
   22MOL   O33415496   6.694   2.930   2.569 -0.2913  0.0102  0.1165
   22MOL   C33515497   6.804   2.970   2.509 -0.3144  0.5232  0.6942
   22MOL   O33615498   6.854   2.915   2.409  0.5012 -0.2435  0.0479
   22MOL   C33715499   6.883   3.089   2.571 -0.0408  0.5454  0.0642
   22MOL   C33815500   6.801   3.177   2.657  0.2947 -0.6270  0.8587
   22MOL   C33915501   6.941   3.183   2.457 -0.3803  0.0020 -0.1017
   22MOL   H34015502   5.735   3.028   2.515 -0.6185 -1.6218 -0.8297
   22MOL   H34115503   5.762   2.932   2.378  2.8993 -0.5825 -0.1662
   22MOL   H34215504   5.725   3.098   2.345  2.1527  0.5879 -1.8999
   22MOL   H34315505   5.953   3.159   2.439  0.9399  0.1878 -0.0741
   22MOL   H34415506   5.952   3.074   2.291  0.7567 -0.6939  0.3067
   22MOL   H34515507   6.005   2.856   2.411 -1.5533  0.3111  0.0884
   22MOL   H34615508   5.972   2.933   2.566  0.5946 -0.1443 -0.3674
   22MOL   H34715509   6.175   3.098   2.534  0.1743  0.0322  0.5910
   22MOL   H34815510   6.201   3.016   2.383 -0.0505 -1.0926 -0.3305
   22MOL   H34915511   6.226   2.874   2.654 -2.3162  0.7142 -0.2476
   22MOL   H35015512   6.236   2.800   2.497  0.3967  0.8313 -2.2404
   22MOL   H35115513   6.425   2.965   2.449  1.2740  0.5965  1.2594
   22MOL   H35215514   6.427   3.016   2.615  1.6623  0.3470 -2.1444
   22MOL   H35315515   6.437   2.722   2.553 -0.1465 -0.1236  2.2559
   22MOL   H35415516   6.484   2.805   2.692  1.6167 -0.2688  0.4165
   22MOL   H35515517   6.677   2.723   2.557 -1.0934  0.5277  2.3627
   22MOL   H35615518   6.629   2.812   2.416  3.0309 -0.0366  0.4032
   22MOL   H35715519   6.858   3.262   2.692 -0.1385  0.5244 -1.1663
   22MOL   H35815520   6.713   3.209   2.602  0.5304 -1.1641  0.1712
   22MOL   H35915521   6.770   3.130   2.751  0.4000 -0.4811  0.9668
   22MOL   H36015522   7.022   3.242   2.500  3.2899 -3.2674 -2.0800
   22MOL   H36115523   7.002   3.126   2.386  0.1935 -0.8880  1.0929
   22MOL   C36215524   7.604   3.979   2.761 -0.1453 -0.0254 -0.1826
   22MOL   C36315525   7.456   3.949   2.726  0.7534  0.3050 -0.0731
   22MOL   C36415526   7.456   3.860   2.600 -0.3943  0.0924 -0.2074
   22MOL   C36515527   7.316   3.831   2.546  0.1010 -0.7161  0.0728
   22MOL   C36615528   7.233   3.738   2.635 -0.5723  0.0841 -1.3192
   22MOL   C36715529   7.112   3.686   2.562 -0.6858  0.3218  0.1161
   22MOL   C36815530   7.007   3.620   2.652 -0.9317 -0.2291 -0.3100
   22MOL   C36915531   6.892   3.578   2.562 -0.7245 -0.0363  0.5115
   22MOL   O37015532   6.919   3.467   2.485 -0.4315 -0.3016  0.1089
   22MOL   C37115533   6.815   3.400   2.427 -0.2711  0.0260 -0.8323
   22MOL   O37215534   6.705   3.450   2.426  0.4683  0.4538  0.0472
   22MOL   C37315535   6.844   3.265   2.359  0.5510 -0.7833 -0.0299
   22MOL   C37415536   6.714   3.196   2.314  0.2205  0.6437  0.0600
   22MOL   C37515537   6.931   3.292   2.229  0.7595  0.5247 -0.0388
   22MOL   H37615538   7.643   4.049   2.687 -0.3610  0.1770 -0.1027
   22MOL   H37715539   7.613   4.030   2.858  2.5547 -2.2824  0.8379
   22MOL   H37815540   7.656   3.883   2.761  1.7927  0.9823  0.8535
   22MOL   H37915541   7.411   4.047   2.707  1.6348  0.6817 -0.2382
   22MOL   H38015542   7.397   3.897   2.802  1.8362  0.3183  0.7942
   22MOL   H38115543   7.502   3.766   2.630  0.0413  0.3566 -0.0402
   22MOL   H38215544   7.512   3.915   2.525  0.1581 -0.0688  0.0844
   22MOL   H38315545   7.319   3.787   2.447 -1.4209  1.4068 -0.9514
   22MOL   H38415546   7.263   3.925   2.530 -0.7323 -1.3796 -1.0900
   22MOL   H38515547   7.292   3.656   2.676 -1.9963  0.6786  2.0369
   22MOL   H38615548   7.195   3.792   2.721  1.2556  0.0025 -0.4384
   22MOL   H38715549   7.131   3.617   2.480 -1.2583  1.6010 -1.1268
   22MOL   H38815550   7.068   3.768   2.506 -0.5469  0.4443  0.1865
   22MOL   H38915551   6.966   3.690   2.725 -0.0368 -2.2049  2.1466
   22MOL   H39015552   7.050   3.531   2.697  0.1796 -0.3663 -1.5808
   22MOL   H39115553   6.804   3.565   2.624 -1.4589  1.0903 -0.2746
   22MOL   H39215554   6.863   3.659   2.495  1.7346 -0.5290 -1.2168
   22MOL   H39315555   6.729   3.107   2.253 -3.2270 -0.2431  0.3946
   22MOL   H39415556   6.653   3.159   2.397 -1.4680  3.1144 -0.0529
   22MOL   H39515557   6.644   3.252   2.253  1.9148  2.5231 -0.2008
   22MOL   H39615558   7.012   3.360   2.254  1.6960 -0.5402 -0.1553
   22MOL   H39715559   6.975   3.197   2.198 -0.8652 -0.3559  0.3070
   22MOL   C39815560   6.468   2.326   1.870  0.1179 -0.0523 -0.3427
   22MOL   C39915561   6.462   2.469   1.811  0.0317 -0.6101  0.0122
   22MOL   C40015562   6.495   2.578   1.908 -0.4494  0.3738  0.1877
   22MOL   C40115563   6.487   2.714   1.841  0.4454  0.4853  0.2387
   22MOL   C40215564   6.552   2.829   1.921 -0.2568 -0.3413  0.2436
   22MOL   C40315565   6.709   2.807   1.929 -0.5426 -0.4416 -0.1246
   22MOL   C40415566   6.775   2.928   1.995  0.4854  0.4448  0.4509
   22MOL   C40515567   6.805   3.037   1.895  0.0496 -0.1510  0.4001
   22MOL   O40615568   6.875   3.140   1.958  0.2224 -0.5561  0.1864
   22MOL   C40715569   6.803   3.248   2.012 -0.5509  0.8256  0.5596
   22MOL   O40815570   6.683   3.253   1.993 -0.0526 -0.3462 -0.0764
   22MOL   C40915571   6.883   3.354   2.088  0.2219  0.3107  0.5547
   22MOL   C41015572   6.786   3.475   2.103 -0.5127 -0.7566  0.2307
   22MOL   C41115573   7.002   3.400   2.002  0.2437 -0.6405  0.2138
   22MOL   H41215574   6.401   2.308   1.954  0.0032 -0.2115 -0.4692
   22MOL   H41315575   6.563   2.311   1.922 -0.3735  1.9018  1.1675
   22MOL   H41415576   6.460   2.248   1.794 -2.6298 -0.7104  0.5658
   22MOL   H41515577   6.370   2.504   1.763  1.0410 -1.0698 -2.3293
   22MOL   H41615578   6.529   2.467   1.725  0.6633  1.0296  0.4506
   22MOL   H41715579   6.420   2.567   1.987 -1.6152 -2.0066 -1.1797
   22MOL   H41815580   6.595   2.564   1.949 -0.9018  1.2068  1.6094
   22MOL   H41915581   6.384   2.739   1.815  0.6919 -1.2592 -2.6514
   22MOL   H42015582   6.536   2.727   1.744 -0.0647  0.1545 -0.0651
   22MOL   H42115583   6.531   2.923   1.870  0.9769 -0.5033 -0.5883
   22MOL   H42215584   6.500   2.833   2.016 -1.4043  2.0198 -0.4372
   22MOL   H42315585   6.738   2.811   1.824 -0.7805  1.2563 -0.1331
   22MOL   H42415586   6.743   2.713   1.973  1.3641  0.6428  0.7569
   22MOL   H42515587   6.714   2.959   2.080 -1.3262 -0.0067 -0.6599
   22MOL   H42615588   6.866   2.891   2.043  0.8958 -1.0576 -1.4469
   22MOL   H42715589   6.871   3.008   1.813 -0.7292 -1.3399  0.1771
   22MOL   H42815590   6.718   3.077   1.845 -0.4543 -0.0801  1.3165
   22MOL   H42915591   6.751   3.502   2.003 -1.5888 -0.7972  0.5913
   22MOL   H43015592   6.833   3.548   2.169 -1.3875 -0.2577  0.3073
   22MOL   H43115593   6.694   3.448   2.156 -0.0505  2.5556  2.9354
   22MOL   H43215594   7.068   3.314   1.990  0.5239 -0.5943  1.3449
   22MOL   H43315595   7.060   3.461   2.071 -0.0765  0.7564 -0.7373
   22MOL   C43415596   7.547   4.306   2.460  0.4879  0.1425 -0.2001
   22MOL   C43515597   7.459   4.276   2.332 -0.7956  0.1370 -0.2811
   22MOL   C43615598   7.327   4.215   2.358  0.4151  0.1973  0.3950
   22MOL   C43715599   7.231   4.187   2.242  0.2105  0.5358  0.3869
   22MOL   C43815600   7.261   4.040   2.185  0.9304 -0.1704  0.4261
   22MOL   C43915601   7.172   4.003   2.070  0.1905  0.8115  0.1071
   22MOL   C44015602   7.144   3.853   2.059 -0.0013 -0.6300  0.4774
   22MOL   C44115603   7.064   3.819   1.936  0.3842  0.3599  0.0968
   22MOL   O44215604   7.059   3.677   1.931  0.3623  0.2829 -0.2509
   22MOL   C44315605   6.965   3.613   1.866 -0.2589 -0.2239 -0.7941
   22MOL   O44415606   6.865   3.664   1.820  0.4505  0.0769  0.5882
   22MOL   C44515607   7.003   3.465   1.856  0.3661 -0.2763 -0.4659
   22MOL   C44615608   6.904   3.391   1.755  0.2882  0.7553 -0.3867
   22MOL   C44715609   7.150   3.450   1.802 -0.5001 -0.3476  0.0509
   22MOL   H44815610   7.495   4.367   2.534 -1.7018 -3.2356  1.1896
   22MOL   H44915611   7.643   4.350   2.432  1.5378 -0.3974  2.3780
   22MOL   H45015612   7.586   4.219   2.514  2.2197  1.9278  1.4864
   22MOL   H45115613   7.511   4.198   2.277 -3.7186 -1.6923 -0.5487
   22MOL   H45215614   7.467   4.361   2.265  1.4234  0.6092  0.5111
   22MOL   H45315615   7.272   4.293   2.410  0.7535 -0.5867  1.9598
   22MOL   H45415616   7.338   4.129   2.424 -0.1068  0.2209  0.5195
   22MOL   H45515617   7.242   4.259   2.161  1.6752  0.6161  0.6311
   22MOL   H45615618   7.130   4.184   2.281  0.8293  2.1050  2.1600
   22MOL   H45715619   7.361   4.042   2.141  0.7848  1.2062  0.1106
   22MOL   H45815620   7.261   3.971   2.268  0.9593 -1.2216 -0.4369
   22MOL   H45915621   7.201   4.045   1.974 -0.4284  1.7453  0.3143
   22MOL   H46015622   7.072   4.044   2.087 -0.0087 -0.4025  2.0053
   22MOL   H46115623   7.241   3.807   2.043 -0.0741 -1.0083  1.1120
   22MOL   H46215624   7.094   3.812   2.146 -1.8820  2.5380  0.9795
   22MOL   H46315625   7.118   3.845   1.845  3.0691 -1.5326  1.0805
   22MOL   H46415626   6.963   3.859   1.943 -1.1073 -3.3722  1.3794
   22MOL   H46515627   6.917   3.436   1.657  0.0348  1.2880 -0.1763
   22MOL   H46615628   6.910   3.282   1.756 -0.4975  0.7045  1.7219
   22MOL   H46715629   6.803   3.421   1.784 -0.2409 -0.8593 -0.5220
   22MOL   H46815630   7.219   3.475   1.883  0.1980 -1.2828 -0.2392
   22MOL   H46915631   7.170   3.342   1.800  0.2812 -0.1842 -1.1766
   22MOL   C47015632   6.879   2.411   1.678 -0.1224  0.6189 -0.7533
   22MOL   C47115633   6.959   2.533   1.642  0.3552  0.2258  0.5477
   22MOL   C47215634   6.875   2.641   1.572 -0.0713 -0.4877 -0.5614
   22MOL   C47315635   6.973   2.760   1.528 -0.5167  0.0457 -0.4890
   22MOL   C47415636   6.886   2.874   1.471  0.1700  0.2007  0.0824
   22MOL   C47515637   6.954   2.990   1.409  0.6965  0.0564  0.5411
   22MOL   C47615638   6.981   3.102   1.510 -0.3102  0.3569  0.0005
   22MOL   C47715639   7.085   3.200   1.456 -0.2656 -0.1029 -0.1686
   22MOL   O47815640   7.136   3.281   1.559  0.3419 -0.0904 -0.1062
   22MOL   C47915641   7.175   3.406   1.532 -0.2142  0.8235 -0.2080
   22MOL   O48015642   7.183   3.451   1.421 -0.4433 -0.2382 -0.0793
   22MOL   C48115643   7.217   3.488   1.663 -0.2347  0.1052  0.1901
   22MOL   C48215644   7.176   3.642   1.624  0.0077  0.2076 -0.2835
   22MOL   C48315645   7.373   3.495   1.693 -0.0059  0.1455 -0.1315
   22MOL   H48415646   6.848   2.354   1.591 -2.9286 -1.6345  1.6279
   22MOL   H48515647   6.796   2.434   1.744 -0.7073  2.2293 -2.0094
   22MOL   H48615648   6.941   2.341   1.734  0.0146  1.6607  0.4069
   22MOL   H48715649   7.015   2.563   1.730  1.5272 -1.5098  0.4162
   22MOL   H48815650   7.034   2.498   1.570 -0.4095  0.7372 -0.5142
   22MOL   H48915651   6.828   2.605   1.480 -1.4428 -0.0516 -0.0478
   22MOL   H49015652   6.791   2.686   1.626 -0.7803 -0.6215 -1.5538
   22MOL   H49115653   7.020   2.798   1.619  0.6287 -0.5249 -0.8245
   22MOL   H49215654   7.058   2.724   1.470  0.3452  3.1538 -1.2317
   22MOL   H49315655   6.814   2.836   1.399  0.3901 -2.2221  1.0741
   22MOL   H49415656   6.823   2.905   1.554 -1.4786 -2.3036 -0.1906
   22MOL   H49515657   7.053   2.959   1.377  0.1052 -0.2536 -1.0416
   22MOL   H49615658   6.903   3.029   1.321  0.7825  3.0250  1.7590
   22MOL   H49715659   6.888   3.152   1.536 -1.0509 -3.0005  4.5712
   22MOL   H49815660   7.014   3.060   1.606 -1.1384 -1.8244 -0.6408
   22MOL   H49915661   7.044   3.246   1.366  3.8350  2.9232 -0.6387
   22MOL   H50015662   7.172   3.163   1.403 -1.6607 -2.5818 -0.8462
   22MOL   H50115663   7.237   3.691   1.549  1.3900 -1.3375 -0.1949
   22MOL   H50215664   7.190   3.713   1.706 -2.3010  0.3125  0.0691
   22MOL   H50315665   7.069   3.646   1.604 -0.3330 -1.8888  0.9849
   22MOL   H50415666   7.416   3.566   1.621 -1.5648  1.4306  0.1711
   22MOL   H50515667   7.374   3.544   1.790 -3.7189  0.6730 -0.2853
   22MOL   C50615668   0.235   2.608   1.598  0.6644  0.7151  0.1388
   22MOL   C50715669   0.126   2.662   1.503 -0.7348 -0.4088  0.0947
   22MOL   C50815670   0.014   2.737   1.580 -0.0932 -0.2169 -0.6013
   22MOL   C50915671   7.682   2.795   1.497  0.3680  0.2483  0.1182
   22MOL   C51015672   7.568   2.848   1.570  0.6206  0.2034 -0.4715
   22MOL   C51115673   7.456   2.908   1.475  0.7452 -0.6733  0.4399
   22MOL   C51215674   7.318   2.932   1.533  0.4465 -0.9685 -0.5201
   22MOL   C51315675   7.323   3.019   1.668 -0.2836 -0.2970  0.5518
   22MOL   O51415676   7.377   3.143   1.641  0.4158  0.2271 -0.1334
   22MOL   C51515677   7.405   3.235   1.744 -0.1014  0.0532 -0.9108
   22MOL   O51615678   7.376   3.221   1.857  0.0579 -0.2789  0.5135
   22MOL   C51715679   7.468   3.367   1.688  0.2735  0.1605 -0.1329
   22MOL   C51815680   7.526   3.356   1.546  0.3032 -0.0771  0.6116
   22MOL   C51915681   7.585   3.396   1.788 -0.6218  0.3999 -0.1124
   22MOL   H52015682   0.302   2.541   1.545  1.2381 -0.1224  1.8954
   22MOL   H52115683   0.199   2.540   1.676 -0.2228  0.0664 -0.8150
   22MOL   H52215684   0.289   2.692   1.640  1.0960  1.0073 -0.9679
   22MOL   H52315685   0.093   2.569   1.458  0.6637  0.0006 -1.8459
   22MOL   H52415686   0.169   2.725   1.425 -1.4630 -0.2646 -0.1902
   22MOL   H52515687   7.738   2.662   1.637  1.1996 -2.0081 -1.6481
   22MOL   H52615688   0.055   2.811   1.649  0.8689  0.2107 -1.6280
   22MOL   H52715689   7.736   2.876   1.448  1.7213 -0.3587  0.5726
   22MOL   H52815690   7.637   2.725   1.427  0.6732  0.9491 -0.7880
   22MOL   H52915691   7.526   2.761   1.620  1.1628 -0.6167 -1.4407
   22MOL   H53015692   7.596   2.919   1.649 -1.5465 -0.5425  1.0232
   22MOL   H53115693   7.445   2.847   1.386 -1.1465 -1.4887  1.2023
   22MOL   H53215694   7.504   2.999   1.441 -1.4016  0.4144  0.2654
   22MOL   H53315695   7.266   2.837   1.543 -1.1657 -0.3867 -2.9757
   22MOL   H53415696   7.270   2.990   1.455  0.1456  0.4330  0.6854
   22MOL   H53515697   7.380   2.969   1.747 -0.3236 -2.0854 -0.5270
   22MOL   H53615698   7.222   3.033   1.706 -1.6970 -0.0436 -3.1272
   22MOL   H53715699   7.590   3.270   1.526 -0.8267 -0.6388 -0.7297
   22MOL   H53815700   7.567   3.453   1.516  0.2294 -0.5874 -1.2002
   22MOL   H53915701   7.455   3.339   1.465  1.2099 -1.3006  0.0365
   22MOL   H54015702   7.603   3.503   1.773 -1.0943  1.1823  4.2413
   22MOL   H54115703   7.556   3.402   1.893  0.9361  0.8713  0.3135
   22MOL   C54215704   0.515   3.839   2.277 -0.2592  0.3018  0.4388
   22MOL   C54315705   0.382   3.887   2.211 -0.2936  0.3963  0.1288
   22MOL   C54415706   0.389   3.872   2.061  0.3679 -0.9056  0.2653
   22MOL   C54515707   0.250   3.901   1.997 -0.1506  0.4059 -0.2414
   22MOL   C54615708   0.232   3.887   1.845  0.4050 -0.4564 -0.4429
   22MOL   C54715709   0.211   3.743   1.812 -0.6955  0.3176 -0.3823
   22MOL   C54815710   0.167   3.724   1.668 -0.3157 -0.2978 -0.1967
   22MOL   C54915711   0.158   3.576   1.623 -0.2050  0.3934 -0.1221
   22MOL   O55015712   0.060   3.513   1.696  0.0219  0.8057 -0.2659
   22MOL   C55115713   0.037   3.382   1.674 -0.0946 -0.1144 -0.1570
   22MOL   O55215714   0.097   3.315   1.588  0.2080  0.0576  0.3216
   22MOL   C55315715   7.725   3.322   1.783  0.6754  1.0278  0.0148
   22MOL   C55415716   7.712   3.164   1.758 -0.4688  0.5381 -0.0530
   22MOL   C55515717   0.031   3.338   1.919  0.3049  0.3064  0.1735
   22MOL   H55615718   0.599   3.881   2.221 -1.3264 -0.9059 -2.1797
   22MOL   H55715719   0.521   3.730   2.287  0.0908  0.2856  0.0904
   22MOL   H55815720   0.530   3.885   2.374 -1.9525  1.5639  0.1143
   22MOL   H55915721   0.295   3.833   2.247  0.0166  0.7305  1.4095
   22MOL   H56015722   0.376   3.991   2.243 -0.9894  0.0544  1.1165
   22MOL   H56115723   0.419   3.772   2.030 -2.2051 -1.5941 -0.1281
   22MOL   H56215724   0.457   3.946   2.019 -1.3648  0.9523  0.6496
   22MOL   H56315725   0.170   3.847   2.047  0.2004  0.5908  0.5203
   22MOL   H56415726   0.225   4.004   2.024  1.2527  0.1491  2.1438
   22MOL   H56515727   0.310   3.941   1.792 -0.3150  0.4511 -0.5751
   22MOL   H56615728   0.137   3.938   1.828  1.1014  1.3332  0.9231
   22MOL   H56715729   0.301   3.687   1.838 -1.2631 -1.0950 -1.3872
   22MOL   H56815730   0.136   3.699   1.878 -1.0040 -1.4566 -1.8575
   22MOL   H56915731   0.076   3.780   1.648 -1.0663 -1.5431 -0.3032
   22MOL   H57015732   0.238   3.774   1.601 -1.9640  0.0768 -1.7246
   22MOL   H57115733   0.254   3.526   1.633 -0.1264  0.6257  0.2842
   22MOL   H57215734   0.137   3.593   1.518 -0.6949  3.7075  0.4493
   22MOL   H57315735   7.630   3.122   1.817  0.0935 -0.2390  0.1908
   22MOL   H57415736   0.024   3.109   1.778  0.0190  2.3475  2.8857
   22MOL   H57515737   7.710   3.147   1.650  0.2049 -0.8417  0.1335
   22MOL   H57615738   0.041   3.446   1.922 -1.1777  0.4905 -0.7254
   22MOL   H57715739   0.131   3.298   1.901 -0.1739 -1.0905  0.5209
   22MOL   C57815740   0.660   2.438   1.710 -0.2611  0.5319 -0.1300
   22MOL   C57915741   0.627   2.546   1.814 -0.4706 -0.1244  0.2555
   22MOL   C58015742   0.495   2.515   1.879 -0.6826  0.6451  0.5524
   22MOL   C58115743   0.471   2.599   2.007  0.7163 -0.4262 -0.0096
   22MOL   C58215744   0.415   2.744   1.982  0.4999 -0.9481 -0.1869
   22MOL   C58315745   0.342   2.787   2.117  0.2252 -0.0123  0.0557
   22MOL   C58415746   0.297   2.935   2.110 -0.1230  0.2929  0.7106
   22MOL   C58515747   0.179   2.953   2.013 -0.5831 -0.2799 -0.2243
   22MOL   O58615748   0.133   3.088   2.017 -0.0084 -0.0769  0.3028
   22MOL   C58715749   0.009   3.121   2.055 -0.5895 -0.3240  0.2551
   22MOL   O58815750   7.706   3.039   2.093  0.1802 -0.1607  0.6338
   22MOL   C58915751   7.774   3.275   2.058  0.3190  0.3874  0.3416
   22MOL   C59015752   7.616   3.294   2.094  0.3615 -0.1584 -0.2438
   22MOL   C59115753   0.084   3.342   2.155  1.0425 -0.2618 -0.1944
   22MOL   H59215754   0.704   2.478   1.619  1.0839  1.7543  1.0235
   22MOL   H59315755   0.576   2.371   1.692  0.8058 -0.9190  0.1811
   22MOL   H59415756   0.736   2.367   1.741 -2.2789 -1.7699 -0.3444
   22MOL   H59515757   0.632   2.640   1.758  1.1966 -0.7278 -0.6559
   22MOL   H59615758   0.704   2.549   1.892  0.0759  1.1787 -0.3203
   22MOL   H59715759   0.476   2.408   1.884 -0.3032  0.3011 -3.5471
   22MOL   H59815760   0.425   2.545   1.801 -1.2469 -0.1116  0.7610
   22MOL   H59915761   0.564   2.598   2.064  0.6127 -1.9482  0.1592
   22MOL   H60015762   0.397   2.539   2.060 -0.6372 -0.5866 -2.0378
   22MOL   H60115763   0.339   2.757   1.905  0.3819  2.6707  0.4421
   22MOL   H60215764   0.500   2.806   1.955 -0.4966  0.0801 -0.9965
   22MOL   H60315765   0.411   2.767   2.199 -0.9937 -3.1823  0.3598
   22MOL   H60415766   0.254   2.726   2.137 -0.4206  0.7602 -0.3972
   22MOL   H60515767   0.369   3.008   2.072  0.6814 -1.1458 -0.5772
   22MOL   H60615768   0.277   2.991   2.201  0.3458  0.0173  0.9856
   22MOL   H60715769   0.198   2.922   1.911  0.6252 -0.8720  0.1645
   22MOL   H60815770   0.107   2.882   2.053 -0.3497 -0.3211  0.1332
   22MOL   H60915771   7.598   3.251   2.192  1.3004 -0.7936 -0.3401
   22MOL   H61015772   7.577   3.394   2.111  2.4907  0.8577 -1.1501
   22MOL   H61115773   7.542   3.235   2.039  0.7562 -0.9995  0.1165
   22MOL   H61215774   0.094   3.448   2.133  0.2210  0.0323  0.8011
   22MOL   H61315775   0.178   3.293   2.131  1.2456  0.7132 -1.4285
   22MOL   C61415776   7.519   4.042   1.547  0.2936 -0.1673  0.2076
   22MOL   C61515777   7.556   3.910   1.614 -0.2551 -0.4268  0.1842
   22MOL   C61615778   7.606   3.930   1.758  0.6904  0.3853  0.7122
   22MOL   C61715779   7.613   3.803   1.842 -0.6306  1.1329 -0.7930
   22MOL   C61815780   7.623   3.845   1.992 -0.2596 -0.0911 -0.5009
   22MOL   C61915781   7.608   3.728   2.088 -0.0698  0.1009  0.3260
   22MOL   C62015782   7.628   3.766   2.235  0.5805 -0.6410  0.0906
   22MOL   C62115783   7.619   3.643   2.325 -0.4606  0.5854  0.5167
   22MOL   O62215784   7.714   3.545   2.291  0.8058  0.0646  0.2358
   22MOL   C62315785   7.717   3.428   2.351 -0.7197 -0.6544 -0.1684
   22MOL   O62415786   7.630   3.392   2.430  0.6141  0.3495  0.1590
   22MOL   C62515787   0.060   3.340   2.308  0.6749  0.8100 -0.3691
   22MOL   C62615788   0.035   3.199   2.370 -0.0875 -0.4117  0.2680
   22MOL   C62715789   0.191   3.406   2.371  0.3156 -0.0913 -0.5234
   22MOL   H62815790   7.472   4.032   1.449  0.4286  1.7356 -0.0687
   22MOL   H62915791   7.598   4.116   1.543 -0.9724  1.1812 -0.4143
   22MOL   H63015792   7.446   4.088   1.613 -1.5963 -0.4541 -1.6108
   22MOL   H63115793   7.462   3.855   1.617 -0.6969  0.3234  0.2635
   22MOL   H63215794   7.639   3.863   1.562 -0.6906  0.2708 -1.1655
   22MOL   H63315795   7.555   4.009   1.810 -0.6522  1.3675 -1.9902
   22MOL   H63415796   7.702   3.982   1.751 -0.4229  2.1972 -1.6251
   22MOL   H63515797   7.679   3.724   1.809 -2.0326 -0.7648  0.8341
   22MOL   H63615798   7.521   3.744   1.834  0.3625 -0.7006  1.0490
   22MOL   H63715799   7.725   3.883   2.001 -0.9048  1.9925 -1.6972
   22MOL   H63815800   7.565   3.935   2.014  1.1225  0.6228  0.3169
   22MOL   H63915801   7.507   3.688   2.080 -1.4854  3.1325  1.9756
   22MOL   H64015802   7.674   3.645   2.063 -0.2920  0.1348 -0.3964
   22MOL   H64115803   7.561   3.840   2.279 -0.0277 -0.8488 -0.4749
   22MOL   H64215804   7.732   3.800   2.237  0.3974 -0.1526  1.9246
   22MOL   H64315805   7.643   3.671   2.428 -0.7334  0.5865  0.5809
   22MOL   H64415806   7.520   3.597   2.334 -0.6829  1.0234  0.2994
   22MOL   H64515807   0.010   3.200   2.476  2.3937  1.2952  0.8760
   22MOL   H64615808   0.127   3.140   2.376 -1.4652 -2.4160  3.1826
   22MOL   H64715809   7.732   3.144   2.326 -1.6858  1.3278  1.0371
   22MOL   H64815810   0.179   3.505   2.329  0.2738  0.8085  1.5421
   22MOL   H64915811   0.279   3.368   2.319 -0.1691 -1.1318 -0.5898
   22MOL   C65015812   0.803   2.906   1.952 -0.4096  0.2935 -0.9352
   22MOL   C65115813   0.851   2.829   2.076 -0.0385  0.2070  0.7999
   22MOL   C65215814   0.766   2.861   2.200 -0.6538 -0.2145 -0.6431
   22MOL   C65315815   0.767   3.013   2.242 -0.1476 -0.6966 -0.0023
   22MOL   C65415816   0.735   3.038   2.388 -0.5168  0.5228 -0.0242
   22MOL   C65515817   0.580   3.064   2.405 -0.3741 -1.1591 -0.4420
   22MOL   C65615818   0.544   3.078   2.554 -0.3345  0.0640  0.1861
   22MOL   C65715819   0.393   3.088   2.561  0.7679 -0.1070 -0.2832
   22MOL   O65815820   0.363   3.228   2.538  0.2726 -0.0403  0.1168
   22MOL   C65915821   0.253   3.289   2.590  0.2754  0.2111  0.0587
   22MOL   O66015822   0.176   3.237   2.669 -0.2734  0.6820 -0.5535
   22MOL   C66115823   0.223   3.429   2.526 -0.1856 -0.0679  0.3014
   22MOL   C66215824   0.108   3.496   2.601 -0.2581 -0.5994 -0.2106
   22MOL   C66315825   0.346   3.529   2.519 -0.7827 -0.1357 -0.3780
   22MOL   H66415826   0.703   2.882   1.915 -2.3303  3.2852  1.9831
   22MOL   H66515827   0.871   2.883   1.870  0.2765  1.0818 -0.5972
   22MOL   H66615828   0.806   3.015   1.962 -0.9326  0.1231  1.2200
   22MOL   H66715829   0.955   2.855   2.095  0.6765 -2.4625  0.7194
   22MOL   H66815830   0.859   2.722   2.057 -2.1086  0.0466  0.7395
   22MOL   H66915831   0.794   2.799   2.286 -1.6753 -0.0992 -0.2215
   22MOL   H67015832   0.663   2.827   2.188 -0.3576 -1.9472  1.4431
   22MOL   H67115833   0.700   3.068   2.177  0.4100 -0.3172 -0.2654
   22MOL   H67215834   0.861   3.062   2.217 -0.3352  0.3257  1.1975
   22MOL   H67315835   0.778   3.134   2.417  0.0977  0.3207 -0.2647
   22MOL   H67415836   0.772   2.958   2.452  0.5009  2.3751  1.7763
   22MOL   H67515837   0.543   3.143   2.339 -0.1521 -0.9035 -0.2609
   22MOL   H67615838   0.528   2.975   2.369 -0.7367 -1.1981  0.1673
   22MOL   H67715839   0.590   3.164   2.602 -1.0549  1.2764 -1.2839
   22MOL   H67815840   0.577   2.989   2.607  0.9413  0.9885  0.9631
   22MOL   H67915841   0.365   3.049   2.659  0.1481  0.4512 -0.2333
   22MOL   H68015842   0.345   3.022   2.489  0.5123 -0.3815  0.1349
   22MOL   H68115843   0.132   3.504   2.707  0.4808 -0.8775 -0.3542
   22MOL   H68215844   0.009   3.449   2.594 -0.9032  0.7003 -0.0477
   22MOL   H68315845   0.110   3.603   2.578  1.1038  0.0545  2.6767
   22MOL   H68415846   0.425   3.480   2.461 -0.3927  0.6900 -0.5506
   22MOL   H68515847   0.328   3.622   2.465 -1.2209 -0.7131 -1.2446
   22MOL   C68615848   0.175   4.390   2.104  0.2025 -0.0086 -0.3352
   22MOL   C68715849   0.066   4.290   2.069  0.2463  0.1695  0.3814
   22MOL   C68815850   0.011   4.211   2.183 -0.0494  0.3503 -0.0647
   22MOL   C68915851   0.108   4.135   2.281 -0.9449  0.3262  0.3970
   22MOL   C69015852   0.027   4.079   2.394 -0.0222 -0.1553 -0.1798
   22MOL   C69115853   0.099   3.966   2.463 -0.1243 -0.3310  0.7805
   22MOL   C69215854   0.209   4.018   2.558 -0.1810  0.4246  0.0348
   22MOL   C69315855   0.226   3.923   2.676 -0.3530  0.5550 -1.3681
   22MOL   O69415856   0.297   3.813   2.632 -0.2244 -0.2781  0.3173
   22MOL   C69515857   0.318   3.711   2.717  0.6698  0.4393  0.2265
   22MOL   O69615858   0.279   3.712   2.833  0.3475 -0.1769 -0.1711
   22MOL   C69715859   0.408   3.590   2.659  0.7146  0.6781 -0.6863
   22MOL   C69815860   0.539   3.647   2.622 -0.2234  0.2259  0.5379
   22MOL   C69915861   0.426   3.489   2.772 -0.5054 -0.2509 -0.3801
   22MOL   H70015862   0.270   4.341   2.125 -0.1317 -0.9507 -0.9800
   22MOL   H70115863   0.144   4.457   2.185 -0.2319 -0.1440 -0.3841
   22MOL   H70215864   0.196   4.456   2.020  1.6644  1.7961  1.4179
   22MOL   H70315865   0.104   4.220   1.996 -0.7772 -0.3475  0.3284
   22MOL   H70415866   7.765   4.340   2.014  1.4218  0.8304 -0.7444
   22MOL   H70515867   7.710   4.146   2.151 -0.9968 -0.0872  3.0036
   22MOL   H70615868   7.739   4.280   2.251  0.2445  0.2933  0.2163
   22MOL   H70715869   0.181   4.207   2.318 -2.3988  2.2679 -0.4183
   22MOL   H70815870   0.155   4.049   2.234 -3.2462 -0.7618 -0.0181
   22MOL   H70915871   7.710   4.045   2.358  1.1365 -3.3738 -0.3719
   22MOL   H71015872   0.011   4.159   2.467  1.6785  0.2432 -0.2204
   22MOL   H71115873   0.019   3.922   2.523 -0.2697  0.5208  1.2241
   22MOL   H71215874   0.144   3.893   2.396 -0.6777  1.6009 -1.7770
   22MOL   H71315875   0.296   4.044   2.499 -0.9764  1.8090 -0.5666
   22MOL   H71415876   0.178   4.115   2.598 -0.4126  0.2461  0.2961
   22MOL   H71515877   0.132   3.884   2.715 -0.1652  1.3872 -0.0459
   22MOL   H71615878   0.286   3.979   2.749 -1.3383  0.3337 -0.3804
   22MOL   H71715879   0.532   3.733   2.555 -2.2925 -0.9026 -0.7318
   22MOL   H71815880   0.600   3.674   2.709 -0.3266  0.4052  0.5560
   22MOL   H71915881   0.601   3.569   2.578 -0.7932 -0.3950  0.8208
   22MOL   H72015882   0.477   3.540   2.853 -1.0826  2.0566 -1.4114
   22MOL   H72115883   0.487   3.411   2.727 -1.1885  0.3945 -2.4776
   22MOL   H72215884   0.331   3.442   2.796 -0.1519  0.6991  3.0766
   23MOL     C115885   0.883   3.709   4.135 -0.3988  0.1910 -0.0496
   23MOL     C215886   0.886   3.863   4.168  0.3408 -0.1438  0.3279
   23MOL     C315887   0.783   3.901   4.276  0.3327  0.2333  0.5112
   23MOL     C415888   0.745   4.050   4.264 -0.2752  0.5157 -0.0965
   23MOL     C515889   0.668   4.088   4.383  0.1785  0.4628 -0.0260
   23MOL     C615890   0.630   4.238   4.391 -0.4316 -0.4228 -0.4594
   23MOL     C715891   0.545   4.260   4.514 -0.1264 -0.1096 -0.2723
   23MOL     C815892   0.503   4.398   4.525 -0.4228  0.1825  0.6470
   23MOL     O915893   0.412   4.411   4.637  0.0492  0.4756  0.2214
   23MOL    C1015894   0.272   4.410   4.629 -0.6074  0.3098  0.7494
   23MOL    O1115895   0.203   4.409   4.525  0.1251  0.0648 -0.0212
   23MOL    C1215896   0.200   4.396   4.763 -0.2268  0.0763  0.1429
   23MOL    C1315897   0.153   4.257   4.775 -0.6274  0.6832  0.3591
   23MOL    C1415898   0.296   4.434   4.878  0.0204 -0.2229 -0.6405
   23MOL    H1515899   0.941   3.663   4.215 -2.0630 -1.0261  0.4839
   23MOL    H1615900   0.924   3.690   4.036  0.8116 -0.0919  0.4917
   23MOL    H1715901   0.781   3.672   4.128 -0.6032  0.5253  1.1081
   23MOL    H1815902   0.861   3.921   4.079  2.8081  1.0740  0.3864
   23MOL    H1915903   0.984   3.899   4.198 -0.5476  2.4545  0.2906
   23MOL    H2015904   0.689   3.851   4.252  0.9091 -0.2224 -0.8216
   23MOL    H2115905   0.825   3.870   4.372  3.9809  0.8860 -0.7990
   23MOL    H2215906   0.827   4.122   4.261 -0.3318  0.7240  2.3654
   23MOL    H2315907   0.683   4.074   4.178  1.1607  0.7343 -1.0865
   23MOL    H2415908   0.715   4.061   4.478  1.6498 -0.8805 -1.1062
   23MOL    H2515909   0.576   4.031   4.369 -0.5728  1.9647 -1.3117
   23MOL    H2615910   0.582   4.281   4.304 -2.4621 -0.2007  0.7389
   23MOL    H2715911   0.718   4.302   4.405 -0.8801 -0.5569  3.7689
   23MOL    H2815912   0.613   4.242   4.597 -1.8853  1.4008  1.5464
   23MOL    H2915913   0.468   4.183   4.513  0.3988 -0.7079  2.4636
   23MOL    H3015914   0.449   4.427   4.435  0.6376  0.7448  0.1826
   23MOL    H3115915   0.588   4.467   4.531  1.4565 -1.9775 -0.1727
   23MOL    H3215916   0.239   4.190   4.774 -1.0238  0.1660  0.6989
   23MOL    H3315917   0.078   4.259   4.855 -2.3199  2.0892 -1.1999
   23MOL    H3415918   0.084   4.233   4.695  0.5272  2.8234 -1.3191
   23MOL    H3515919   0.393   4.389   4.859  0.1549 -0.4359  0.5117
   23MOL    H3615920   0.260   4.372   4.960  1.1877  1.0254  0.8598
   23MOL    H3715921   0.109   4.457   4.769  0.5584  1.0509  3.3931
   23MOL    C3815922   0.285   5.576   4.448 -0.2014  0.2490  0.4819
   23MOL    C3915923   0.289   5.423   4.442  0.1975  0.5149 -0.4038
   23MOL    C4015924   0.301   5.351   4.579  0.2893  0.7612 -0.2242
   23MOL    C4115925   0.300   5.198   4.566 -0.3844  0.6958 -0.2786
   23MOL    C4215926   0.437   5.143   4.530  0.6015 -0.0417  0.1149
   23MOL    C4315927   0.438   4.991   4.506  0.3029  0.1959 -0.1373
   23MOL    C4415928   0.392   4.911   4.628  0.4232  0.1087  0.0085
   23MOL    C4515929   0.399   4.757   4.606  0.2501 -0.4803  0.1541
   23MOL    O4615930   0.341   4.691   4.718 -0.0212 -0.6464 -0.1093
   23MOL    C4715931   0.399   4.665   4.827 -0.4768  0.2697 -0.0149
   23MOL    O4815932   0.517   4.691   4.846 -0.2964  0.5937  0.1826
   23MOL    C4915933   0.306   4.587   4.928 -0.3033 -0.6146  0.6127
   23MOL    C5015934   0.374   4.595   5.067 -0.6811 -0.1640 -0.1915
   23MOL    C5115935   0.163   4.648   4.938  0.2431  0.1376  0.1942
   23MOL    H5215936   0.382   5.627   4.452 -0.4232  0.7551 -0.4202
   23MOL    H5315937   0.216   5.605   4.528 -1.0960  0.0391 -0.2158
   23MOL    H5415938   0.229   5.613   4.362 -1.2094 -1.8145  0.2359
   23MOL    H5515939   0.367   5.393   4.372 -0.3188  0.3872 -0.9225
   23MOL    H5615940   0.198   5.390   4.391  0.4292 -0.5178 -0.1662
   23MOL    H5715941   0.391   5.380   4.633  0.3792 -0.1297  0.1216
   23MOL    H5815942   0.219   5.390   4.640 -0.0171 -0.9288  0.4726
   23MOL    H5915943   0.242   5.158   4.483 -0.1487  0.8415 -0.5118
   23MOL    H6015944   0.250   5.153   4.652 -2.1849 -0.5564 -1.9254
   23MOL    H6115945   0.475   5.189   4.439  0.8650  0.1941  0.3417
   23MOL    H6215946   0.507   5.164   4.611  1.1156 -1.9358  0.1693
   23MOL    H6315947   0.396   4.962   4.410  2.5080  0.6987 -1.2899
   23MOL    H6415948   0.543   4.969   4.485  0.6207  0.6581  0.9229
   23MOL    H6515949   0.289   4.929   4.659  0.4739  0.4639 -0.0270
   23MOL    H6615950   0.449   4.941   4.717  0.1884  0.8093 -0.0751
   23MOL    H6715951   0.498   4.713   4.595 -0.1660 -1.3563 -0.1868
   23MOL    H6815952   0.346   4.717   4.519 -0.0216  2.7193 -1.2001
   23MOL    H6915953   0.458   4.525   5.065 -0.1272  0.5242 -2.2816
   23MOL    H7015954   0.402   4.694   5.101  0.9985  0.2165 -2.5394
   23MOL    H7115955   0.310   4.548   5.141  0.9110  0.4801  1.6466
   23MOL    H7215956   0.102   4.563   4.970 -0.4603 -0.0678 -1.6149
   23MOL    H7315957   0.130   4.666   4.836  1.1764  0.9122  0.0229
   23MOL    C7415958   7.606   4.575   6.101  0.5578  0.0502 -0.0557
   23MOL    C7515959   7.601   4.699   6.013  0.1238 -0.1326  0.1681
   23MOL    C7615960   7.592   4.680   5.862  0.3113  0.4848  0.0368
   23MOL    C7715961   7.718   4.621   5.798 -0.4275 -0.6862 -0.6303
   23MOL    C7815962   7.691   4.614   5.644  0.0291  0.8731 -0.2483
   23MOL    C7915963   7.739   4.744   5.583  0.0053  0.3216  0.1531
   23MOL    C8015964   7.727   4.742   5.427  0.9144  0.1945 -0.6056
   23MOL    C8115965   0.042   4.650   5.356  0.3156  0.0000 -0.4764
   23MOL    O8215966   0.047   4.677   5.221  0.9262  0.1847 -0.3611
   23MOL    C8315967   0.131   4.766   5.171 -0.1146 -0.6100 -0.2150
   23MOL    O8415968   0.209   4.834   5.241 -0.5523  0.3764  0.5743
   23MOL    C8515969   0.133   4.785   5.016 -0.6043 -0.2379  0.5742
   23MOL    C8615970   0.231   4.891   4.977 -0.8908  0.2200  0.2030
   23MOL    C8715971   7.760   4.813   4.965 -0.6291 -0.5609 -0.6290
   23MOL    H8815972   7.538   4.500   6.061  1.3974  0.4014 -2.2405
   23MOL    H8915973   7.580   4.586   6.206 -1.3402 -0.8764 -0.4125
   23MOL    H9015974   7.708   4.537   6.104  0.7342  0.4699 -0.7471
   23MOL    H9115975   7.686   4.761   6.041  0.7306 -1.6592  1.8133
   23MOL    H9215976   7.517   4.759   6.048 -3.1527 -0.7323 -5.9816
   23MOL    H9315977   7.504   4.623   5.832  0.2135  1.0279 -0.7117
   23MOL    H9415978   7.576   4.781   5.824 -2.1777  0.5837  1.2138
   23MOL    H9515979   7.722   4.516   5.826 -1.7448 -0.7945 -0.8219
   23MOL    H9615980   0.036   4.660   5.826 -1.1982 -0.6323  2.0878
   23MOL    H9715981   7.747   4.530   5.604 -0.7985 -0.1421  0.6812
   23MOL    H9815982   7.588   4.603   5.609  0.2869 -0.9041 -0.4823
   23MOL    H9915983   7.678   4.826   5.620 -1.3622 -0.9490  0.7706
   23MOL   H10015984   0.064   4.766   5.605  0.9405 -2.7298 -0.9796
   23MOL   H10115985   7.626   4.743   5.385  0.5186  2.9855  0.3014
   23MOL   H10215986   7.766   4.843   5.409 -0.8174  0.8170 -0.9494
   23MOL   H10315987   0.016   4.547   5.381  0.1577 -0.2274 -1.5708
   23MOL   H10415988   0.142   4.650   5.400  0.3154  2.1662 -0.4293
   23MOL   H10515989   0.252   4.892   4.870 -1.4597 -0.3446  0.0848
   23MOL   H10615990   0.319   4.873   5.038  0.5495 -0.6269 -2.0449
   23MOL   H10715991   0.200   4.990   5.011  0.6704  1.5684 -2.1265
   23MOL   H10815992   7.733   4.790   4.862 -0.6651  4.2034 -1.7620
   23MOL   H10915993   7.701   4.750   5.031 -0.9431 -0.6285 -0.9705
   23MOL   C11015994   7.590   5.887   4.272  0.8660 -0.5916  0.4120
   23MOL   C11115995   7.703   5.789   4.254  0.2123  0.5194  0.1544
   23MOL   C11215996   7.672   5.647   4.301 -0.0976 -0.2211  0.0193
   23MOL   C11315997   7.683   5.629   4.455  0.6321 -0.7646  0.2751
   23MOL   C11415998   7.656   5.479   4.494  0.0533  0.3108 -0.3132
   23MOL   C11515999   7.676   5.461   4.644  0.5735 -0.0423  0.4308
   23MOL   C11616000   7.684   5.309   4.691  0.7460 -0.1331  0.4559
   23MOL   C11716001   7.731   5.293   4.835  0.3542 -0.0897  0.4040
   23MOL   O11816002   7.669   5.179   4.894 -0.5269 -0.6411 -0.0323
   23MOL   C11916003   7.736   5.064   4.887 -0.1070 -0.3795 -0.2464
   23MOL   O12016004   0.042   5.039   4.805 -0.0778  0.3609 -0.0336
   23MOL   C12116005   7.687   4.952   4.986  0.3456  0.5458 -0.2286
   23MOL   C12216006   7.718   5.000   5.131 -0.1718  0.3216 -0.6019
   23MOL   C12316007   7.530   4.937   4.974  0.2838 -0.3058  0.2513
   23MOL   H12416008   7.550   5.903   4.373 -1.4924 -0.4949 -0.4945
   23MOL   H12516009   7.633   5.976   4.227  1.1048 -0.4093  0.9924
   23MOL   H12616010   7.503   5.874   4.208 -0.1463 -0.7634  1.7854
   23MOL   H12716011   0.015   5.823   4.303 -0.0293  1.2006  0.1494
   23MOL   H12816012   7.731   5.788   4.149 -0.7582  0.4987 -0.1027
   23MOL   H12916013   7.747   5.588   4.248  0.0749 -0.3354  0.3887
   23MOL   H13016014   7.570   5.615   4.278  0.2829  0.0783 -2.2859
   23MOL   H13116015   0.008   5.654   4.474  1.0559 -2.6477  0.5659
   23MOL   H13216016   7.621   5.702   4.506  1.0578 -1.4915  1.8512
   23MOL   H13316017   7.725   5.413   4.443 -0.2056 -0.2909  0.1186
   23MOL   H13416018   7.557   5.452   4.458 -0.8639  0.1096  2.2099
   23MOL   H13516019   7.765   5.506   4.688  2.6883 -3.7527  0.0526
   23MOL   H13616020   7.590   5.508   4.693 -2.4059 -4.8026  0.1048
   23MOL   H13716021   7.746   5.264   4.613 -0.3269 -1.6696  0.4641
   23MOL   H13816022   7.590   5.263   4.662  1.2273 -1.7912  1.4428
   23MOL   H13916023   0.059   5.305   4.835  0.1781  1.7153 -1.1704
   23MOL   H14016024   7.691   5.380   4.886 -1.2374  0.8140 -2.2962
   23MOL   H14116025   7.680   5.102   5.139  0.4373  0.5086 -0.0182
   23MOL   H14216026   7.658   4.945   5.204 -0.1318  3.0028  1.5673
   23MOL   H14316027   0.036   5.013   5.178 -0.8476  1.3885  0.5634
   23MOL   H14416028   7.489   5.037   4.983 -0.2059 -0.5056  0.2434
   23MOL   H14516029   7.514   4.876   5.063 -2.5528  0.6145  0.4207
   23MOL   C14616030   6.315   5.034   5.166  0.5305  0.3134 -0.0778
   23MOL   C14716031   6.419   4.925   5.150  0.1047 -0.6603  0.2522
   23MOL   C14816032   6.564   4.962   5.157 -0.3332  0.3563 -0.3874
   23MOL   C14916033   6.654   4.841   5.127 -0.0461  0.3556 -0.1428
   23MOL   C15016034   6.809   4.873   5.128 -0.5849 -0.1672 -0.6098
   23MOL   C15116035   6.888   4.744   5.100 -0.4019 -0.1775  0.2925
   23MOL   C15216036   7.042   4.779   5.106  0.2572 -0.3030  0.1870
   23MOL   C15316037   7.101   4.875   4.997 -0.6934 -0.4341 -0.2528
   23MOL   O15416038   7.244   4.854   4.979 -0.1140  0.2656  0.4817
   23MOL   C15516039   7.302   4.912   4.871 -0.0317 -0.0601 -0.3956
   23MOL   O15616040   7.256   4.995   4.793 -0.0366 -0.1468  0.2838
   23MOL   C15716041   7.449   4.869   4.852 -0.7777  0.3198  0.1277
   23MOL   C15816042   7.495   4.930   4.714  0.4421  1.1633 -0.0188
   23MOL   C15916043   7.457   4.710   4.859 -0.6472 -0.0407 -0.5825
   23MOL   H16016044   6.302   5.068   5.269  0.6130  0.4896 -0.1250
   23MOL   H16116045   6.219   4.990   5.139  0.6060 -0.0014  0.1617
   23MOL   H16216046   6.339   5.116   5.099 -0.7240  1.2123  0.5402
   23MOL   H16316047   6.417   4.854   5.233 -1.6690 -1.4155 -0.4161
   23MOL   H16416048   6.392   4.860   5.067 -1.2674  0.0201  0.1435
   23MOL   H16516049   6.594   4.991   5.257 -0.8374 -0.5559  0.0287
   23MOL   H16616050   6.590   5.042   5.087  0.8060  0.7015  0.4257
   23MOL   H16716051   6.635   4.762   5.199  0.7295 -0.1278 -0.4623
   23MOL   H16816052   6.624   4.796   5.032 -0.6280 -0.5333  0.4585
   23MOL   H16916053   6.829   4.928   5.220 -0.5616 -1.7052  0.3121
   23MOL   H17016054   6.826   4.950   5.052  2.1041  0.6086  0.7435
   23MOL   H17116055   6.858   4.713   5.000 -0.7937  2.0738 -0.3066
   23MOL   H17216056   6.865   4.662   5.169  1.0530 -2.2997 -1.6526
   23MOL   H17316057   7.067   4.828   5.200  1.4585  1.6388 -1.1131
   23MOL   H17416058   7.096   4.685   5.103 -1.1925 -1.1386 -0.2037
   23MOL   H17516059   7.063   4.845   4.899 -0.3783 -0.2184 -0.4404
   23MOL   H17616060   7.072   4.977   5.021  0.5069 -0.6334  2.1080
   23MOL   H17716061   7.418   4.911   4.638  0.3563 -1.1507  0.5974
   23MOL   H17816062   7.595   4.897   4.685  1.0077  1.1054  1.9782
   23MOL   H17916063   7.490   5.039   4.715 -1.6328  1.1205 -1.4866
   23MOL   H18016064   7.399   4.680   4.947 -0.4186  0.8102 -0.1384
   23MOL   H18116065   7.560   4.681   4.881 -0.4798  1.6232  0.8888
   23MOL   C18216066   7.322   5.131   4.331  0.3230  0.1230 -0.0493
   23MOL   C18316067   7.453   5.215   4.318  0.5084  0.5051 -0.1576
   23MOL   C18416068   7.587   5.141   4.292 -0.3702 -0.0772  0.0767
   23MOL   C18516069   7.624   5.026   4.388 -0.5877 -0.1789  0.5658
   23MOL   C18616070   7.763   4.970   4.378  0.0742 -0.2386  0.7073
   23MOL   C18716071   0.018   4.852   4.472  0.4182  0.0713  0.2192
   23MOL   C18816072   7.724   4.721   4.443 -0.3253  0.4824  0.0921
   23MOL   C18916073   7.722   4.610   4.543  0.0237 -0.8916  0.0794
   23MOL   O19016074   7.624   4.642   4.647 -0.1731 -0.3808  0.5254
   23MOL   C19116075   7.500   4.601   4.623 -0.1661 -0.0832  0.8698
   23MOL   O19216076   7.451   4.560   4.517  0.2064  0.5465  0.7284
   23MOL   C19316077   7.404   4.619   4.743  0.5774 -0.0267  1.2099
   23MOL   C19416078   7.270   4.663   4.682 -0.2162 -0.2110 -0.2720
   23MOL   C19516079   7.367   4.472   4.803  0.0853  0.7314 -0.0853
   23MOL   H19616080   7.309   5.088   4.231  1.4146 -0.0939 -0.0975
   23MOL   H19716081   7.308   5.048   4.400  0.6781  0.4107  0.3694
   23MOL   H19816082   7.240   5.200   4.352  1.7466  2.0374 -0.6136
   23MOL   H19916083   7.460   5.260   4.417  0.5241 -0.8584  0.4692
   23MOL   H20016084   7.433   5.291   4.242  0.1732 -1.3353 -1.9658
   23MOL   H20116085   7.588   5.102   4.190 -0.9509  2.9947 -1.1468
   23MOL   H20216086   7.673   5.207   4.307 -0.0884 -0.1365 -1.1608
   23MOL   H20316087   7.628   5.069   4.489 -0.3775  1.2451 -0.0364
   23MOL   H20416088   7.539   4.959   4.392 -1.7817  1.3928  2.6743
   23MOL   H20516089   0.059   5.045   4.403 -0.6653  1.0674 -0.8712
   23MOL   H20616090   0.002   4.947   4.273  3.2745 -2.4960  1.6788
   23MOL   H20716091   0.012   4.883   4.577  0.1262  0.8449 -0.0262
   23MOL   H20816092   0.124   4.832   4.458  0.6544  0.0024  1.9958
   23MOL   H20916093   7.623   4.745   4.410 -0.7602 -4.0462 -2.2417
   23MOL   H21016094   7.775   4.667   4.363  0.7955  0.6375  0.6986
   23MOL   H21116095   0.035   4.604   4.600  0.1173  0.4168  0.0811
   23MOL   H21216096   7.722   4.510   4.499  1.1240 -1.0046  0.3357
   23MOL   H21316097   7.278   4.760   4.634 -2.9545  0.2576  0.1647
   23MOL   H21416098   7.225   4.587   4.618 -0.0421 -1.2705  0.8467
   23MOL   H21516099   7.196   4.674   4.761 -0.7378 -1.7276 -0.5206
   23MOL   H21616100   7.289   4.481   4.879  0.6488 -2.1914  0.8819
   23MOL   H21716101   7.323   4.414   4.722  0.9239  0.6161 -0.4662
   23MOL   C21816102   7.041   4.556   5.866 -0.1941  0.1599 -0.2381
   23MOL   C21916103   7.164   4.568   5.777  0.1418 -0.2296  0.1508
   23MOL   C22016104   7.127   4.590   5.629  0.0394  0.5453 -0.4549
   23MOL   C22116105   7.250   4.607   5.543  0.6663  0.3397  0.6332
   23MOL   C22216106   7.207   4.585   5.394 -0.1791  0.2631 -0.1554
   23MOL   C22316107   7.333   4.603   5.294 -0.6579 -0.1049 -0.4880
   23MOL   C22416108   7.430   4.487   5.311 -0.0997 -0.1030  0.4316
   23MOL   C22516109   7.540   4.492   5.200 -0.6314  0.9102  0.0102
   23MOL   O22616110   7.479   4.447   5.075  0.2329 -0.3305 -0.2032
   23MOL   C22716111   7.558   4.416   4.971 -0.3126  0.3573 -0.3299
   23MOL   O22816112   7.680   4.417   4.969  0.0549 -0.3040  0.0140
   23MOL   C22916113   7.468   4.367   4.859 -0.4245  0.0691  0.4653
   23MOL   C23016114   7.561   4.310   4.745  0.6224 -0.3812 -0.1786
   23MOL   C23116115   7.373   4.241   4.897 -0.6925  0.5468 -0.4256
   23MOL   H23216116   6.966   4.499   5.811  1.2938  0.7163 -2.9376
   23MOL   H23316117   6.995   4.652   5.887 -1.4040 -0.6399  0.8073
   23MOL   H23416118   7.056   4.502   5.960 -2.5095  0.8129  0.5240
   23MOL   H23516119   7.223   4.476   5.784  3.4119  1.8250  0.6833
   23MOL   H23616120   7.230   4.651   5.803  0.3821  0.0659 -1.3831
   23MOL   H23716121   7.075   4.499   5.598 -0.0109  0.2679  0.4333
   23MOL   H23816122   7.054   4.672   5.631  0.6276  1.0921  3.5724
   23MOL   H23916123   7.293   4.706   5.561  1.5079  0.4921 -2.0973
   23MOL   H24016124   7.330   4.536   5.563  1.0302  0.6869  0.4045
   23MOL   H24116125   7.169   4.482   5.392 -0.6239  0.4092  0.6429
   23MOL   H24216126   7.130   4.659   5.377  0.1628  0.4942 -0.7091
   23MOL   H24316127   7.302   4.594   5.189 -0.1475 -1.3309 -0.5385
   23MOL   H24416128   7.371   4.702   5.316 -0.3407 -0.5397  0.9301
   23MOL   H24516129   7.378   4.391   5.311 -1.5905  0.6605 -1.2198
   23MOL   H24616130   7.476   4.504   5.408 -0.0916  1.6659  0.1361
   23MOL   H24716131   7.615   4.416   5.225 -2.8107 -2.1219 -2.2025
   23MOL   H24816132   7.586   4.590   5.189  1.4909  0.0657  0.9453
   23MOL   H24916133   7.614   4.225   4.788 -0.5972 -0.2203  1.6927
   23MOL   H25016134   7.637   4.382   4.718  1.3285  0.2999  3.4172
   23MOL   H25116135   7.506   4.272   4.658 -0.0263 -1.7528  0.8115
   23MOL   H25216136   7.293   4.282   4.959  0.3284 -0.9566  1.9807
   23MOL   H25316137   7.320   4.213   4.807  1.0051 -1.0646 -0.9659
   23MOL   C25416138   0.721   4.169   4.961 -0.5489 -0.3663  0.1345
   23MOL   C25516139   0.583   4.135   4.908 -0.0353  0.5152  0.4767
   23MOL   C25616140   0.573   3.990   4.853 -0.4519  0.3259  0.0888
   23MOL   C25716141   0.441   3.966   4.777 -0.3972 -0.0502 -0.2204
   23MOL   C25816142   0.318   3.946   4.863  0.0645  0.6610  0.4341
   23MOL   C25916143   0.188   3.899   4.798 -0.1334 -0.1263  0.6301
   23MOL   C26016144   0.076   3.916   4.903 -0.7291 -0.3166  0.1721
   23MOL   C26116145   7.714   3.901   4.853 -0.3033  0.1348 -0.3437
   23MOL   O26216146   7.626   3.996   4.909 -0.2831 -0.4619  0.0978
   23MOL   C26316147   7.495   4.008   4.871  0.0913  0.5955 -0.5142
   23MOL   O26416148   7.456   3.944   4.778 -0.0357 -0.1120 -0.0082
   23MOL   C26516149   7.407   4.101   4.966 -0.2963 -0.2092  0.1192
   23MOL   C26616150   7.273   4.027   4.996 -0.2462  0.4491 -0.3409
   23MOL   C26716151   7.472   4.125   5.102 -0.0637  0.2285  0.0621
   23MOL   H26816152   0.762   4.108   5.041 -1.6316  0.8615  1.6552
   23MOL   H26916153   0.795   4.159   4.881 -0.2466  3.3011 -0.1318
   23MOL   H27016154   0.731   4.273   4.994 -0.3953 -0.5532  0.6823
   23MOL   H27116155   0.506   4.153   4.983  0.2733  1.8670  0.4840
   23MOL   H27216156   0.558   4.203   4.826 -2.4969 -0.8425  0.0379
   23MOL   H27316157   0.595   3.919   4.932  1.3270  1.7780  0.9516
   23MOL   H27416158   0.650   3.971   4.778  1.2095 -0.1800  1.8904
   23MOL   H27516159   0.462   3.885   4.708  1.6017  0.4636 -0.2370
   23MOL   H27616160   0.434   4.052   4.710 -1.2475  0.7850  0.9411
   23MOL   H27716161   0.340   3.868   4.936  0.8467  1.3160  0.9071
   23MOL   H27816162   0.301   4.038   4.919 -0.5672  1.6084 -1.2593
   23MOL   H27916163   0.185   3.795   4.765  0.6436  0.0921 -0.1398
   23MOL   H28016164   0.175   3.957   4.707 -1.3357  0.3768  1.1161
   23MOL   H28116165   0.082   3.871   5.002 -0.1786 -1.4120 -0.3409
   23MOL   H28216166   0.094   4.021   4.926  2.0801 -0.2546 -1.9696
   23MOL   H28316167   7.710   3.937   4.750  1.0010 -1.5265 -1.0109
   23MOL   H28416168   7.676   3.799   4.850  0.6761 -0.2196 -1.4997
   23MOL   H28516169   7.200   4.085   5.052 -0.3952 -0.1332  0.0730
   23MOL   H28616170   7.221   4.014   4.901  0.0496  3.2188 -0.9152
   23MOL   H28716171   7.271   3.925   5.034 -0.6631  0.7578  0.4679
   23MOL   H28816172   7.418   4.212   5.141 -0.0119  0.1055  0.4097
   23MOL   H28916173   7.572   4.158   5.071 -0.4464 -0.3088 -1.7775
   23MOL   C29016174   6.735   4.274   6.161  0.3808  0.2363 -1.2537
   23MOL   C29116175   6.744   4.295   6.014  0.1124  0.6939 -0.4323
   23MOL   C29216176   6.855   4.218   5.949 -0.1711 -0.1900  0.1858
   23MOL   C29316177   6.874   4.227   5.799 -0.1262  0.8309 -0.5792
   23MOL   C29416178   7.015   4.187   5.751  0.8491  0.3244  0.2288
   23MOL   C29516179   7.032   4.192   5.600 -0.4900 -0.1087  0.2195
   23MOL   C29616180   7.170   4.150   5.555  0.2556  0.0330  0.2317
   23MOL   C29716181   7.191   4.164   5.402  0.5005  0.1218 -0.0731
   23MOL   O29816182   7.323   4.149   5.347  0.0400  0.9867  0.1726
   23MOL   C29916183   7.367   4.025   5.315  0.3637 -0.1398 -0.2818
   23MOL   O30016184   7.315   3.914   5.346  0.2504  0.0012 -0.5608
   23MOL   C30116185   7.496   4.026   5.226 -0.1478 -0.0392  0.6366
   23MOL   C30216186   7.528   3.881   5.173  0.5250 -0.6677 -0.1893
   23MOL   C30316187   7.625   4.084   5.299  0.3590  0.8861  0.0131
   23MOL   H30416188   6.828   4.302   6.210  0.3693 -1.0274 -0.5149
   23MOL   H30516189   6.716   4.170   6.187  0.9822  0.1251 -1.2614
   23MOL   H30616190   6.652   4.331   6.204  1.4966 -0.6679  2.1946
   23MOL   H30716191   6.753   4.400   5.986  0.1380  0.7233 -0.3164
   23MOL   H30816192   6.646   4.268   5.975 -0.9358  2.8199  0.6065
   23MOL   H30916193   6.850   4.114   5.983 -3.0505  0.0711  0.6311
   23MOL   H31016194   6.947   4.254   5.994 -0.9050  1.3777  0.4425
   23MOL   H31116195   6.792   4.174   5.751 -1.5992  1.6772  0.9900
   23MOL   H31216196   6.865   4.333   5.774  3.5850  1.6513  1.2592
   23MOL   H31316197   7.088   4.254   5.797  1.0411  1.2060 -1.3315
   23MOL   H31416198   7.043   4.088   5.788 -1.8675 -1.3847 -2.1470
   23MOL   H31516199   7.010   4.293   5.566  1.0490  0.4957  0.9680
   23MOL   H31616200   6.953   4.133   5.554  0.2952  0.7563 -2.3213
   23MOL   H31716201   7.194   4.048   5.585  1.3507 -0.2414 -1.4897
   23MOL   H31816202   7.245   4.217   5.597 -0.0440 -0.0258  0.8675
   23MOL   H31916203   7.141   4.253   5.364  1.6208  0.0248 -1.8403
   23MOL   H32016204   7.127   4.096   5.345 -0.0905  1.1976 -0.7193
   23MOL   H32116205   7.451   3.825   5.121  0.5732 -1.2174  0.3327
   23MOL   H32216206   7.551   3.830   5.267  0.7403  0.7559  0.5540
   23MOL   H32316207   7.622   3.876   5.117  0.3928  1.0930 -0.5865
   23MOL   H32416208   7.714   4.059   5.241  1.1868 -0.3856  1.8032
   23MOL   H32516209   7.620   4.193   5.290 -0.8858  1.0000  1.7698
   23MOL   C32616210   6.925   3.906   6.229 -0.0835 -0.1959 -0.9843
   23MOL   C32716211   7.003   4.038   6.251  0.3969  0.5240 -0.0902
   23MOL   C32816212   7.152   4.036   6.200 -0.1226  0.2399  0.6427
   23MOL   C32916213   7.180   4.122   6.083  0.5647 -0.3576  0.1110
   23MOL   C33016214   7.324   4.112   6.040  0.7528 -0.3526 -0.6383
   23MOL   C33116215   7.359   4.197   5.916 -0.3477 -0.0669 -0.3405
   23MOL   C33216216   7.516   4.201   5.898 -0.8106 -0.5545  0.7791
   23MOL   C33316217   7.565   4.268   5.764 -0.4890 -0.4061 -0.1038
   23MOL   O33416218   7.612   4.169   5.666 -0.2615 -0.2172  0.4526
   23MOL   C33516219   7.630   4.195   5.534  0.3239  0.0798 -0.2652
   23MOL   O33616220   7.628   4.308   5.496 -0.0166  0.2623  0.8923
   23MOL   C33716221   7.673   4.074   5.450 -0.3691  0.3717  0.3789
   23MOL   C33816222   7.615   3.955   5.518 -0.2096  0.4229  0.0531
   23MOL   C33916223   0.048   4.069   5.450 -0.2364  0.2619  0.1320
   23MOL   H34016224   6.933   3.861   6.130  3.1127 -0.3452 -0.7241
   23MOL   H34116225   6.821   3.920   6.260  0.7151  3.6201  0.2147
   23MOL   H34216226   6.957   3.829   6.299 -0.4117  0.2857 -0.3026
   23MOL   H34316227   7.015   4.056   6.358 -0.7022  3.9192 -0.4792
   23MOL   H34416228   6.940   4.109   6.199  1.5685 -0.5595 -3.1077
   23MOL   H34516229   7.166   3.934   6.163 -2.0387 -0.4104  1.6147
   23MOL   H34616230   7.223   4.054   6.280  1.3199  0.1636 -0.5959
   23MOL   H34716231   7.132   4.218   6.102  1.5282  0.1958 -0.2338
   23MOL   H34816232   7.119   4.082   6.002  0.1601  0.6936 -0.1140
   23MOL   H34916233   7.395   4.132   6.120 -0.9544 -0.6650  0.9978
   23MOL   H35016234   7.333   4.007   6.010  0.8305 -0.7072  0.6179
   23MOL   H35116235   7.307   4.163   5.827  1.8166  1.5799 -2.2917
   23MOL   H35216236   7.325   4.297   5.942 -1.8603 -0.5969 -0.2547
   23MOL   H35316237   7.558   4.101   5.891 -0.0635 -0.2596  0.9609
   23MOL   H35416238   7.560   4.263   5.976 -0.2552  1.6361 -1.2314
   23MOL   H35516239   7.488   4.328   5.714  0.3171  0.0032 -0.8750
   23MOL   H35616240   7.655   4.323   5.788 -0.4867 -1.7539  3.2425
   23MOL   H35716241   7.674   3.928   5.606  0.8281 -0.4135 -0.8773
   23MOL   H35816242   7.518   3.960   5.567 -0.5040 -1.5792 -0.2769
   23MOL   H35916243   7.614   3.864   5.459 -1.5766 -0.7391  1.7978
   23MOL   H36016244   0.083   4.032   5.546 -0.6534  1.8279  0.9049
   23MOL   H36116245   0.081   3.984   5.390 -3.1150 -0.4412 -0.5488
   23MOL   C36216246   7.641   4.122   6.441 -0.3571  0.2895  0.2864
   23MOL   C36316247   7.766   4.043   6.401 -0.9544  0.4488 -0.0195
   23MOL   C36416248   0.107   4.139   6.345  0.0358  0.3909  0.6179
   23MOL   C36516249   0.090   4.174   6.197  0.1287 -0.4812 -0.9898
   23MOL   C36616250   0.215   4.228   6.141 -0.1092  0.0277 -0.2482
   23MOL   C36716251   0.197   4.315   6.009  0.0584 -0.0101  0.2478
   23MOL   C36816252   0.201   4.236   5.876  0.0289  0.1305 -0.1987
   23MOL   C36916253   0.194   4.321   5.751  0.7475 -0.6338  0.0468
   23MOL   O37016254   0.170   4.235   5.641 -0.3580 -0.6672  0.2708
   23MOL   C37116255   0.170   4.289   5.517  0.1120 -0.0237 -0.2771
   23MOL   O37216256   0.194   4.408   5.488 -0.3323 -0.3793  0.6319
   23MOL   C37316257   0.154   4.181   5.405 -0.1084  0.0006 -0.0370
   23MOL   C37416258   0.109   4.256   5.279 -0.1087  0.3809 -0.0861
   23MOL   C37516259   0.299   4.137   5.364 -0.9110  0.3136  0.3871
   23MOL   H37616260   7.575   4.062   6.505  0.5450  0.2124  1.1618
   23MOL   H37716261   7.655   4.217   6.493 -1.7470  0.6727 -0.0336
   23MOL   H37816262   7.585   4.147   6.351  0.4475  1.8873  0.2108
   23MOL   H37916263   7.740   3.954   6.344 -0.3803 -0.1342  0.6289
   23MOL   H38016264   0.034   4.009   6.493  2.4002  2.0985 -1.0665
   23MOL   H38116265   0.198   4.083   6.367  0.9614  1.1491 -1.1881
   23MOL   H38216266   0.125   4.226   6.408 -1.4393  2.8293 -2.1577
   23MOL   H38316267   0.007   4.243   6.191  0.3061 -0.0947  0.7421
   23MOL   H38416268   0.056   4.084   6.146  1.4220 -2.1262  0.9782
   23MOL   H38516269   0.262   4.293   6.216  0.7329 -0.7953 -0.0576
   23MOL   H38616270   0.289   4.149   6.133  1.0200  0.9347  1.0189
   23MOL   H38716271   0.280   4.385   6.009  1.9131 -2.1356  0.6294
   23MOL   H38816272   0.105   4.372   6.024  0.3728  0.4323  0.4778
   23MOL   H38916273   0.133   4.152   5.860 -1.4052  1.2187  0.0107
   23MOL   H39016274   0.298   4.189   5.867 -0.1821  0.0736 -2.5693
   23MOL   H39116275   0.115   4.396   5.755 -0.5856 -1.9224 -1.3666
   23MOL   H39216276   0.286   4.378   5.744  0.4671 -0.3834 -1.8954
   23MOL   H39316277   0.086   4.193   5.192  1.3019  2.0618 -1.7211
   23MOL   H39416278   0.018   4.313   5.298 -0.9625 -1.2027  0.6609
   23MOL   H39516279   0.179   4.331   5.243 -2.0417  2.1221 -0.3206
   23MOL   H39616280   0.277   4.070   5.281 -2.9268 -0.2577  1.3528
   23MOL   H39716281   0.352   4.216   5.310 -1.7362 -0.3124 -1.3907
   23MOL   C39816282   7.473   3.502   5.050  0.1438  0.5642  0.4896
   23MOL   C39916283   7.607   3.455   5.005  0.0480 -0.2937  0.2946
   23MOL   C40016284   7.687   3.404   5.121  0.0064 -0.4971  0.6528
   23MOL   C40116285   7.730   3.500   5.232  0.4083 -0.0044  0.6560
   23MOL   C40216286   0.060   3.604   5.189  0.4125 -0.1727 -0.0316
   23MOL   C40316287   0.086   3.709   5.290  0.1750 -0.5235  0.0490
   23MOL   C40416288   0.173   3.645   5.404  0.5532 -0.3430  0.7625
   23MOL   C40516289   0.225   3.749   5.508 -0.2682 -0.3187 -0.5760
   23MOL   O40616290   0.314   3.852   5.453 -0.2621  0.9206  0.2646
   23MOL   C40716291   0.348   3.957   5.536  0.2577  0.0112 -0.1996
   23MOL   O40816292   0.325   3.957   5.659 -0.0455  0.1354  0.6014
   23MOL   C40916293   0.413   4.075   5.458  0.1177  0.2408  0.0921
   23MOL   C41016294   0.520   4.017   5.366  0.6645  0.2417 -0.0054
   23MOL   C41116295   0.471   4.190   5.542  0.6606 -0.3126  0.4042
   23MOL   H41216296   7.401   3.501   4.968 -0.4149 -1.6786  0.9698
   23MOL   H41316297   7.464   3.605   5.085 -0.3756 -0.0051  2.0954
   23MOL   H41416298   7.425   3.445   5.130  0.2525  1.8526  1.4892
   23MOL   H41516299   7.675   3.530   4.964 -1.1292 -0.4980 -2.1240
   23MOL   H41616300   7.613   3.384   4.923  0.7642 -0.3845  0.4219
   23MOL   H41716301   7.638   3.314   5.159 -2.6487  0.2711 -0.8803
   23MOL   H41816302   0.005   3.368   5.088 -0.4888 -1.7572  0.5394
   23MOL   H41916303   7.775   3.454   5.319  0.8646 -0.8589 -0.0225
   23MOL   H42016304   7.652   3.570   5.264  1.0238  2.6593 -3.2614
   23MOL   H42116305   0.155   3.555   5.168  0.1337 -1.2424  1.1242
   23MOL   H42216306   0.024   3.647   5.095 -1.9210  0.6749  1.1957
   23MOL   H42316307   7.772   3.741   5.337 -0.5600  1.1348 -2.4929
   23MOL   H42416308   0.132   3.799   5.251 -1.1703  1.1147  2.1294
   23MOL   H42516309   0.113   3.573   5.459 -2.5367  1.4543 -0.1355
   23MOL   H42616310   0.254   3.584   5.363  0.2070 -0.1537 -0.2102
   23MOL   H42716311   0.139   3.799   5.553  2.1294  3.0962  0.4489
   23MOL   H42816312   0.288   3.699   5.582  0.7433  0.5818 -0.8109
   23MOL   H42916313   0.470   3.953   5.294  1.5874  0.1577 -0.5769
   23MOL   H43016314   0.594   3.960   5.422  1.3136  0.6484 -0.4322
   23MOL   H43116315   0.557   4.097   5.301  0.3148 -0.6865 -1.3650
   23MOL   H43216316   0.407   4.200   5.630 -0.8782 -0.4263 -0.6906
   23MOL   H43316317   0.464   4.282   5.485  2.5189 -1.6443 -2.0636
   23MOL   C43416318   1.244   4.961   5.557  0.3850  0.8303  0.3956
   23MOL   C43516319   1.098   4.926   5.518  0.2142  0.1527 -0.0833
   23MOL   C43616320   1.088   4.781   5.476 -0.4530 -0.7441  0.4421
   23MOL   C43716321   0.945   4.739   5.430  0.3608  1.0506  0.0953
   23MOL   C43816322   0.945   4.599   5.365 -0.4443 -0.0594 -0.1582
   23MOL   C43916323   0.804   4.562   5.306 -0.7058 -0.2488  0.3561
   23MOL   C44016324   0.787   4.425   5.233 -0.6115  0.1002 -0.0272
   23MOL   C44116325   0.814   4.303   5.324 -0.1280 -0.3551 -0.5461
   23MOL   O44216326   0.717   4.288   5.428 -0.2910  0.2753 -0.0745
   23MOL   C44316327   0.727   4.183   5.514 -0.1771 -0.0614  0.3231
   23MOL   O44416328   0.813   4.096   5.518 -0.4034 -0.5985 -0.1438
   23MOL   C44516329   0.610   4.194   5.620 -0.2432  0.0906 -0.3823
   23MOL   C44616330   0.613   4.078   5.721  0.5029 -0.5230 -0.5426
   23MOL   C44716331   0.625   4.328   5.697 -1.1300  0.3113 -0.1270
   23MOL   H44816332   1.249   5.067   5.581  0.2507  0.9767 -0.1946
   23MOL   H44916333   1.322   4.937   5.484  1.3207  0.2939  1.5654
   23MOL   H45016334   1.274   4.908   5.647  1.7520  1.4484  0.3062
   23MOL   H45116335   1.074   4.977   5.425  0.1682  0.5113  0.1271
   23MOL   H45216336   1.024   4.945   5.596 -0.0126  3.3400 -1.0050
   23MOL   H45316337   1.127   4.717   5.555  0.4205  0.5067  1.0362
   23MOL   H45416338   1.163   4.760   5.400 -0.5865  1.2534 -0.2660
   23MOL   H45516339   0.916   4.817   5.360  2.6698  2.2151  0.3916
   23MOL   H45616340   0.889   4.731   5.524 -1.2836  1.4406 -0.8244
   23MOL   H45716341   1.005   4.594   5.274 -1.7872  0.7169 -1.1169
   23MOL   H45816342   0.988   4.531   5.438 -0.2402  0.1243 -0.1085
   23MOL   H45916343   0.774   4.643   5.240 -0.8283 -0.7941 -0.2538
   23MOL   H46016344   0.732   4.562   5.388 -1.9465 -1.9359 -0.7062
   23MOL   H46116345   0.688   4.413   5.191 -0.4037  0.3809 -0.6008
   23MOL   H46216346   0.854   4.419   5.147 -3.0589  0.1348 -2.0058
   23MOL   H46316347   0.909   4.315   5.375 -0.5461  0.9267 -0.0539
   23MOL   H46416348   0.816   4.208   5.269 -1.4692 -1.3188  1.0216
   23MOL   H46516349   0.624   3.984   5.667  1.2390 -1.2763  0.8745
   23MOL   H46616350   0.705   4.090   5.777  0.1929 -0.9287  0.0604
   23MOL   H46716351   0.526   4.086   5.787 -0.8564  0.7175 -2.4173
   23MOL   H46816352   0.611   4.400   5.617 -0.6072  0.8421  0.2576
   23MOL   H46916353   0.536   4.337   5.760  0.2410 -2.2664  2.3023
   23MOL   C47016354   1.202   3.526   6.024 -0.0379 -0.1084 -0.1618
   23MOL   C47116355   1.152   3.663   6.053  0.0687  0.3661 -0.1673
   23MOL   C47216356   1.006   3.668   6.111 -0.3599 -0.2266 -0.4715
   23MOL   C47316357   0.933   3.793   6.057 -0.0080 -0.6673 -1.0580
   23MOL   C47416358   0.979   3.925   6.111 -0.1108 -0.4972 -0.1857
   23MOL   C47516359   0.880   4.043   6.087  0.0184 -0.5762  0.2051
   23MOL   C47616360   0.941   4.170   6.153  0.1293 -0.0333  0.6708
   23MOL   C47716361   0.858   4.296   6.142 -0.3905 -0.1118  0.0554
   23MOL   O47816362   0.834   4.346   6.015 -0.7769 -0.3198  0.5362
   23MOL   C47916363   0.728   4.317   5.937 -0.3973  0.5286 -0.2791
   23MOL   O48016364   0.633   4.251   5.983  0.0593  0.0808  0.0641
   23MOL   C48116365   0.743   4.370   5.791 -0.2253 -0.5337  1.0246
   23MOL   C48216366   0.877   4.313   5.728  0.2890  0.1601 -0.0900
   23MOL   C48316367   0.764   4.526   5.779  0.0753 -0.4578 -0.6062
   23MOL   H48416368   1.308   3.520   6.049  0.3515  0.6762 -1.5161
   23MOL   H48516369   1.190   3.500   5.919  1.2862 -1.3376 -0.0213
   23MOL   H48616370   1.145   3.447   6.072  1.2728  0.5257  2.5244
   23MOL   H48716371   1.222   3.700   6.128 -0.6279 -1.1675  1.2742
   23MOL   H48816372   1.174   3.732   5.971  2.1997  0.6742  0.6216
   23MOL   H48916373   0.953   3.580   6.074 -0.8778  0.2706 -0.9334
   23MOL   H49016374   1.003   3.674   6.219 -1.3683  1.2698 -0.5616
   23MOL   H49116375   0.936   3.788   5.948  2.5078 -2.7755 -0.9580
   23MOL   H49216376   0.828   3.790   6.084  0.3283 -1.6344  0.1747
   23MOL   H49316377   1.009   3.920   6.215  1.3634  1.0402 -0.5149
   23MOL   H49416378   1.070   3.951   6.057 -0.3634 -0.6896 -0.7090
   23MOL   H49516379   0.856   4.060   5.983 -1.8892 -0.0117  0.7077
   23MOL   H49616380   0.785   4.017   6.135  0.9823 -2.2341  1.2667
   23MOL   H49716381   0.958   4.146   6.258  0.9486  0.1612  0.5846
   23MOL   H49816382   1.035   4.204   6.110 -0.6391  0.9180 -0.2706
   23MOL   H49916383   0.909   4.378   6.192  0.8101 -1.0508  0.4049
   23MOL   H50016384   0.763   4.275   6.192 -1.7706  0.2894 -2.3628
   23MOL   H50116385   0.895   4.362   5.633  0.3882 -2.2319 -1.3311
   23MOL   H50216386   0.886   4.205   5.734  1.4055  0.3190  1.6107
   23MOL   H50316387   0.964   4.346   5.786  0.0928  0.4922  0.0200
   23MOL   H50416388   0.862   4.541   5.826 -0.3412 -1.6855  0.6975
   23MOL   H50516389   0.776   4.554   5.675  0.4445 -1.6233 -0.8860
   23MOL   C50616390   0.603   5.202   4.885 -0.0393  0.4503  0.2552
   23MOL   C50716391   0.635   5.067   4.957  0.0789  0.4009 -0.1917
   23MOL   C50816392   0.581   5.072   5.099  0.5068  0.0143 -0.1549
   23MOL   C50916393   0.600   4.933   5.167 -0.6118  0.4419 -0.4640
   23MOL   C51016394   0.538   4.928   5.306  0.0508 -0.2496 -0.6957
   23MOL   C51116395   0.517   4.793   5.372 -0.0169  0.0648 -0.3644
   23MOL   C51216396   0.453   4.803   5.511  0.3577 -0.0085 -0.2185
   23MOL   C51316397   0.430   4.662   5.564  0.6794  0.1469 -0.3326
   23MOL   O51416398   0.545   4.648   5.652  0.1972 -0.6542  0.8379
   23MOL   C51516399   0.539   4.616   5.777  0.4223  0.3437 -0.0947
   23MOL   O51616400   0.436   4.589   5.836  0.5391 -0.2336  0.0129
   23MOL   C51716401   0.677   4.630   5.844  0.1367 -0.0052 -0.3187
   23MOL   C51816402   0.676   4.618   6.001 -0.8294 -0.0733 -0.8500
   23MOL   C51916403   0.745   4.769   5.800  0.1268  0.2144 -0.0142
   23MOL   H52016404   0.661   5.218   4.794  1.1791  0.6033  1.0411
   23MOL   H52116405   0.622   5.294   4.942 -0.7826  0.6705  0.1507
   23MOL   H52216406   0.497   5.210   4.861 -0.1152  0.0422  0.4529
   23MOL   H52316407   0.739   5.034   4.953 -0.5434 -1.6506 -0.1604
   23MOL   H52416408   0.572   4.988   4.917  0.8216  0.0089 -0.5975
   23MOL   H52516409   0.623   5.148   5.166 -0.2736  0.0950  0.2421
   23MOL   H52616410   0.478   5.108   5.096 -0.0271 -1.4080  1.0199
   23MOL   H52716411   0.562   4.851   5.107 -0.3834  0.7181 -0.9873
   23MOL   H52816412   0.706   4.907   5.173 -0.5328  1.0834  1.2599
   23MOL   H52916413   0.607   4.987   5.367  0.4982 -1.5849  0.1160
   23MOL   H53016414   0.435   4.964   5.300  0.1643  0.1694 -0.2283
   23MOL   H53116415   0.609   4.740   5.396  0.0598  0.9118  1.3281
   23MOL   H53216416   0.453   4.729   5.311 -0.4521  0.8693 -0.7639
   23MOL   H53316417   0.354   4.845   5.495  0.2002 -0.9531 -1.8976
   23MOL   H53416418   0.509   4.874   5.573  2.7292 -1.9286 -0.0903
   23MOL   H53516419   0.418   4.602   5.474 -0.6120  1.2219 -0.8991
   23MOL   H53616420   0.339   4.666   5.624  0.3333  2.2006 -0.9593
   23MOL   H53716421   0.636   4.708   6.047  0.7542 -0.2782  0.9552
   23MOL   H53816422   0.772   4.610   6.052 -0.6628 -2.5013 -1.4829
   23MOL   H53916423   0.607   4.539   6.031 -2.3447  1.3880 -0.4511
   23MOL   H54016424   0.852   4.772   5.823 -0.2648 -0.6821  2.0884
   23MOL   H54116425   0.731   4.773   5.692 -0.7916 -0.1345  0.0846
   23MOL   C54216426   7.698   5.462   6.271  0.0780  0.8900  0.3863
   23MOL   C54316427   0.068   5.453   6.231 -0.2728  0.5261 -0.6143
   23MOL   C54416428   0.139   5.325   6.274  0.1125  0.6336  0.0521
   23MOL   C54516429   0.280   5.332   6.237 -0.6460 -0.7842 -0.2008
   23MOL   C54616430   0.362   5.220   6.304 -0.0427  0.0912 -0.1779
   23MOL   C54716431   0.501   5.190   6.244 -0.4705  0.1845  0.5720
   23MOL   C54816432   0.568   5.057   6.295 -0.8706 -0.6871  0.7899
   23MOL   C54916433   0.690   5.010   6.222  0.3203  0.1438 -0.4551
   23MOL   O55016434   0.656   4.940   6.100  0.5338  0.0168 -0.1797
   23MOL   C55116435   0.753   4.940   6.000  0.4671 -0.0625  0.0900
   23MOL   O55216436   0.872   4.975   6.015  0.0235 -0.5351  0.2526
   23MOL   C55316437   0.697   4.913   5.856  1.3291  0.5389  0.7309
   23MOL   C55416438   0.536   4.913   5.861 -0.4106  0.2534  0.2549
   23MOL   C55516439   0.763   5.017   5.754 -0.7174  0.0287 -0.5094
   23MOL   H55616440   7.666   5.562   6.298  1.1966  1.4036 -0.1805
   23MOL   H55716441   7.661   5.391   6.345 -3.5824  0.7581 -1.4541
   23MOL   H55816442   7.633   5.438   6.186 -0.3452  1.6091  0.5082
   23MOL   H55916443   0.074   5.451   6.123 -1.6553 -0.5829 -0.6818
   23MOL   H56016444   0.122   5.537   6.276  0.4144  0.0955 -0.6381
   23MOL   H56116445   0.093   5.235   6.233  1.1208  0.6178 -1.0837
   23MOL   H56216446   0.119   5.320   6.381 -0.7641 -0.5502 -0.1584
   23MOL   H56316447   0.290   5.321   6.129 -1.5085  0.8322 -0.4612
   23MOL   H56416448   0.324   5.428   6.264 -1.7284  0.0868 -1.4435
   23MOL   H56516449   0.306   5.127   6.317 -0.1422 -0.3162 -3.2314
   23MOL   H56616450   0.381   5.243   6.409 -0.1652 -0.2261 -0.0858
   23MOL   H56716451   0.496   5.192   6.135  0.8171 -1.1505  0.4743
   23MOL   H56816452   0.562   5.275   6.275 -0.3623  0.5621 -0.6357
   23MOL   H56916453   0.587   5.077   6.401  0.7108 -0.2377  0.4249
   23MOL   H57016454   0.492   4.980   6.282 -1.5552  0.2173 -0.7762
   23MOL   H57116455   0.729   4.931   6.287 -1.2175 -1.5573 -1.5535
   23MOL   H57216456   0.763   5.089   6.209  2.7071 -2.0990 -1.2337
   23MOL   H57316457   0.507   5.014   5.887  2.4281  0.7558  1.7308
   23MOL   H57416458   0.495   4.845   5.936 -1.6595 -0.3674 -0.9716
   23MOL   H57516459   0.483   4.882   5.771 -1.3937  0.3681  0.7993
   23MOL   H57616460   0.749   4.984   5.651  0.2128  0.1117 -0.6660
   23MOL   H57716461   0.866   4.995   5.783 -0.7627 -1.0540 -1.1405
   23MOL   C57816462   1.133   5.316   4.683  0.2645 -0.4221 -0.1011
   23MOL   C57916463   1.047   5.434   4.732  0.0274 -0.1209  0.6667
   23MOL   C58016464   0.949   5.401   4.843  0.4759  0.1418  0.0169
   23MOL   C58116465   1.013   5.391   4.975  0.2474  0.1176 -0.6227
   23MOL   C58216466   0.931   5.317   5.075 -0.4883 -0.4063 -1.0408
   23MOL   C58316467   0.990   5.316   5.212 -0.0939 -0.1338  0.0510
   23MOL   C58416468   0.902   5.250   5.317 -0.3695  1.2003  0.1690
   23MOL   C58516469   0.961   5.255   5.457 -0.2989  0.4784 -0.4985
   23MOL   O58616470   0.868   5.197   5.543 -0.2303  0.0728  0.2340
   23MOL   C58716471   0.872   5.224   5.673 -0.2065  0.7122 -0.2751
   23MOL   O58816472   0.970   5.269   5.727 -0.1695 -0.1244  0.0800
   23MOL   C58916473   0.745   5.168   5.754  0.4631  0.3798  0.3977
   23MOL   C59016474   0.744   5.233   5.898 -0.1376  0.1992 -0.5212
   23MOL   C59116475   0.611   5.198   5.682 -0.0876 -0.6025  0.1106
   23MOL   H59216476   1.197   5.287   4.767 -2.1320  0.7511  2.2073
   23MOL   H59316477   1.191   5.353   4.599  0.6031 -0.2592  0.2040
   23MOL   H59416478   1.080   5.224   4.657  0.7221 -0.0741 -2.3072
   23MOL   H59516479   0.988   5.476   4.650 -1.3075 -1.3016  0.9895
   23MOL   H59616480   1.107   5.521   4.759  1.8976  0.2448 -4.0964
   23MOL   H59716481   0.904   5.304   4.819 -1.3090  0.9529  0.0005
   23MOL   H59816482   0.882   5.486   4.857  1.1643  0.6857  0.0278
   23MOL   H59916483   1.024   5.492   5.015 -1.5720 -0.0465  0.3451
   23MOL   H60016484   1.115   5.354   4.969 -0.1392 -1.0974  0.1637
   23MOL   H60116485   0.909   5.216   5.040 -1.9899 -0.3349 -0.3641
   23MOL   H60216486   0.829   5.355   5.074  0.4720  2.2540 -0.5153
   23MOL   H60316487   1.008   5.421   5.238 -0.4671  0.0354 -0.3591
   23MOL   H60416488   1.085   5.263   5.208 -0.5611 -1.1820  2.1033
   23MOL   H60516489   0.886   5.148   5.283 -2.0571  1.3736  0.4031
   23MOL   H60616490   0.803   5.295   5.320 -0.8778  0.0058  1.8573
   23MOL   H60716491   1.059   5.206   5.460 -1.0124 -1.0965 -1.8164
   23MOL   H60816492   0.979   5.361   5.476  0.3861  0.1780  0.5812
   23MOL   H60916493   0.841   5.222   5.946 -0.3055 -0.1618 -0.2637
   23MOL   H61016494   0.708   5.336   5.894 -1.2429 -0.1491  0.1432
   23MOL   H61116495   0.670   5.174   5.953  0.4010 -0.6423 -0.6857
   23MOL   H61216496   0.539   5.136   5.735 -1.0001  0.7528  0.4798
   23MOL   H61316497   0.618   5.166   5.578  1.6157  2.6799 -0.8820
   23MOL   C61416498   0.391   5.603   6.499  0.3131  1.1362  0.7408
   23MOL   C61516499   0.514   5.599   6.417  0.4316 -0.2034 -0.6444
   23MOL   C61616500   0.542   5.734   6.348 -0.3544  0.1293  0.7275
   23MOL   C61716501   0.675   5.722   6.271  0.0893  0.2336 -0.3397
   23MOL   C61816502   0.679   5.618   6.150 -0.0057  0.0488  0.0562
   23MOL   C61916503   0.586   5.646   6.035 -0.3506 -0.5700 -0.1065
   23MOL   C62016504   0.458   5.564   6.046  0.3667  0.7880 -0.2072
   23MOL   C62116505   0.378   5.564   5.913  0.9726  0.6354  0.0474
   23MOL   O62216506   0.449   5.517   5.798  0.1945  0.9536  0.3809
   23MOL   C62316507   0.466   5.383   5.785  0.0063 -0.3534 -0.3072
   23MOL   O62416508   0.407   5.299   5.852  0.0623 -0.0792  0.9473
   23MOL   C62516509   0.547   5.338   5.657 -0.2122 -0.2617  0.8045
   23MOL   C62616510   0.657   5.450   5.617  0.0582  0.2057 -0.1486
   23MOL   C62716511   0.442   5.346   5.537  0.1133  0.1255 -0.5382
   23MOL   H62816512   0.400   5.692   6.562 -1.2277  2.6985 -1.2167
   23MOL   H62916513   0.372   5.511   6.555  1.7577 -0.4015 -1.2112
   23MOL   H63016514   0.300   5.618   6.441 -0.8016 -0.1213  2.1178
   23MOL   H63116515   0.602   5.566   6.472 -0.4562 -1.2210  0.1945
   23MOL   H63216516   0.499   5.523   6.339  0.0806 -0.4958 -0.2939
   23MOL   H63316517   0.557   5.820   6.413 -0.3890  0.2761  0.5384
   23MOL   H63416518   0.458   5.761   6.284  0.7755  0.4890 -0.6115
   23MOL   H63516519   0.755   5.698   6.341 -0.3394  0.2483  0.1594
   23MOL   H63616520   0.704   5.823   6.242 -0.6989  0.8113  0.8587
   23MOL   H63716521   0.771   5.635   6.095 -1.0086  0.7200 -1.4691
   23MOL   H63816522   0.689   5.512   6.171 -0.9567 -0.0293  0.1428
   23MOL   H63916523   0.578   5.754   6.021 -0.9088 -0.5704  0.2011
   23MOL   H64016524   0.641   5.611   5.948  2.5502 -0.9181  1.7842
   23MOL   H64116525   0.385   5.609   6.113 -1.2707 -1.0044 -0.7380
   23MOL   H64216526   0.460   5.461   6.084 -1.2933  0.1438 -1.7464
   23MOL   H64316527   0.278   5.519   5.916  1.1587  0.2747  1.1616
   23MOL   H64416528   0.350   5.664   5.882 -0.9712  0.1594  0.1623
   23MOL   H64516529   0.715   5.465   5.708  1.1793  1.6125 -1.0700
   23MOL   H64616530   0.613   5.545   5.587 -0.0793 -0.1235 -1.0103
   23MOL   H64716531   0.720   5.421   5.533  1.8339 -2.4402  2.0066
   23MOL   H64816532   0.495   5.328   5.443 -1.2732 -1.1689 -1.0987
   23MOL   H64916533   0.433   5.453   5.523  0.4194  0.2219 -0.0355
   23MOL   C65016534   0.302   4.676   6.116  0.7386  0.0425 -0.5144
   23MOL   C65116535   0.195   4.786   6.144 -0.5023 -0.7743  0.6935
   23MOL   C65216536   0.205   4.880   6.020 -0.4650 -0.0359  0.1892
   23MOL   C65316537   0.107   5.000   6.031  0.3200  0.1289  0.2118
   23MOL   C65416538   0.074   5.055   5.896  0.0510 -0.0094  0.0764
   23MOL   C65516539   7.727   5.148   5.893 -0.3264  0.1360  0.1303
   23MOL   C65616540   7.677   5.179   5.746 -0.1363 -0.4396  0.1047
   23MOL   C65716541   7.749   5.309   5.700 -0.2868  0.7333 -0.0383
   23MOL   O65816542   0.087   5.269   5.632 -0.2855 -0.4720 -0.6216
   23MOL   C65916543   0.199   5.345   5.619 -0.2723  0.6154  0.3258
   23MOL   O66016544   0.206   5.460   5.659  0.2087  0.2951 -0.2513
   23MOL   C66116545   0.302   5.266   5.530  0.1376 -0.7760 -1.0063
   23MOL   C66216546   0.313   5.125   5.572 -0.0228 -0.0005  0.3295
   23MOL   C66316547   0.266   5.268   5.378 -0.2104 -0.0398 -0.8675
   23MOL   H66416548   0.293   4.590   6.183 -1.0587 -0.1438 -0.9560
   23MOL   H66516549   0.408   4.701   6.121  0.8043 -0.4404  0.6715
   23MOL   H66616550   0.282   4.642   6.015 -0.7212 -0.5138 -0.0594
   23MOL   H66716551   0.220   4.832   6.239 -0.6848  0.3636  0.1977
   23MOL   H66816552   0.097   4.737   6.140 -0.8589  0.0323 -0.9175
   23MOL   H66916553   0.177   4.819   5.934  0.3828  0.5169 -0.4948
   23MOL   H67016554   0.305   4.923   6.008 -1.4147  1.8501 -1.3029
   23MOL   H67116555   0.143   5.072   6.105 -0.9800 -1.2135  2.2270
   23MOL   H67216556   0.014   4.965   6.076  0.9477  0.2161  1.6146
   23MOL   H67316557   0.067   4.972   5.826  0.4843  0.6232 -0.7269
   23MOL   H67416558   0.163   5.109   5.865  0.2252 -0.1063  0.4044
   23MOL   H67516559   7.641   5.104   5.944  0.6152  1.0732  2.6326
   23MOL   H67616560   7.747   5.233   5.958  0.3562 -0.0050  0.1070
   23MOL   H67716561   7.569   5.195   5.745  0.1690  2.1395 -3.2281
   23MOL   H67816562   7.709   5.099   5.679  3.7741  0.3298  0.8920
   23MOL   H67916563   7.753   5.369   5.791  1.0920 -1.2367  1.2481
   23MOL   H68016564   7.701   5.372   5.626  2.4359  1.2531 -1.4425
   23MOL   H68116565   0.337   5.104   5.676 -0.5441  0.8154  0.6187
   23MOL   H68216566   0.391   5.078   5.511 -1.7240 -1.0236 -1.1089
   23MOL   H68316567   0.218   5.072   5.567 -0.4050  0.8354 -1.7698
   23MOL   H68416568   0.349   5.220   5.327  0.1687 -2.1934  1.7018
   23MOL   H68516569   0.192   5.190   5.358  1.2247 -2.0550  1.4917
   23MOL   C68616570   0.440   6.215   6.073  0.4524  0.3335  0.0814
   23MOL   C68716571   0.443   6.220   5.915  0.3547  0.0730 -0.6367
   23MOL   C68816572   0.418   6.090   5.847  0.1598  0.1667  0.4306
   23MOL   C68916573   0.470   6.084   5.699 -0.0083 -0.6716 -0.5173
   23MOL   C69016574   0.464   5.940   5.643 -0.4114  0.8336 -0.1982
   23MOL   C69116575   0.312   5.905   5.614  0.3459  0.0838  0.2278
   23MOL   C69216576   0.286   5.756   5.575  0.1304  0.0430 -0.2818
   23MOL   C69316577   0.297   5.716   5.426  0.5400 -0.1161  1.2513
   23MOL   O69416578   0.233   5.592   5.409  0.7661  0.2542  0.0830
   23MOL   C69516579   0.279   5.517   5.308 -0.0721 -0.0853  0.9033
   23MOL   O69616580   0.363   5.553   5.233 -0.3365 -0.0523 -0.4547
   23MOL   C69716581   0.198   5.385   5.299  0.1722 -0.1249 -0.4942
   23MOL   C69816582   0.050   5.410   5.338  0.2074 -0.1943 -0.6600
   23MOL   C69916583   0.202   5.340   5.149  0.0445  0.1797  0.0079
   23MOL   H70016584   0.344   6.180   6.111  0.1276  2.6576  1.5100
   23MOL   H70116585   0.441   6.320   6.104 -1.1441  0.4110 -0.0942
   23MOL   H70216586   0.515   6.152   6.121  1.1011  1.9690  1.2861
   23MOL   H70316587   0.540   6.264   5.891  0.0643  1.1685  0.1403
   23MOL   H70416588   0.367   6.291   5.882  1.5855  1.2949 -0.9222
   23MOL   H70516589   0.309   6.086   5.847  0.0629  2.2696  1.0552
   23MOL   H70616590   0.454   6.003   5.902 -2.8482 -0.0434  2.1278
   23MOL   H70716591   0.576   6.108   5.695  0.0799 -0.3920  2.6842
   23MOL   H70816592   0.413   6.147   5.631 -0.7121 -0.4543  0.2732
   23MOL   H70916593   0.501   5.862   5.709  0.8566  1.2915 -0.3495
   23MOL   H71016594   0.521   5.929   5.551 -0.2959 -3.9915  0.3438
   23MOL   H71116595   0.247   5.917   5.701 -0.5469  0.4784 -0.4860
   23MOL   H71216596   0.266   5.970   5.540  0.4198 -0.3999 -0.2420
   23MOL   H71316597   0.360   5.692   5.624  0.7319  0.1063 -1.0964
   23MOL   H71416598   0.188   5.724   5.611 -0.1797  0.1866 -1.0005
   23MOL   H71516599   0.405   5.712   5.411  0.2644 -0.8081 -0.6607
   23MOL   H71616600   0.254   5.793   5.362  0.5872 -0.7515  0.4497
   23MOL   H71716601   7.773   5.471   5.267  0.3893 -1.9878 -2.3749
   23MOL   H71816602   7.776   5.316   5.348 -1.8285  0.9341 -0.7985
   23MOL   H71916603   0.030   5.459   5.433 -1.0360 -0.3238 -0.8526
   23MOL   H72016604   0.158   5.412   5.080  0.0736  0.2806  0.0938
   23MOL   H72116605   0.139   5.253   5.129  0.6869 -0.3802  0.4025
   23MOL   H72216606   0.303   5.306   5.122  1.0204  2.0603  1.2135
   24MOL     C116607   6.912   4.132   1.818  0.4182 -0.0107 -0.1521
   24MOL     C216608   6.791   4.161   1.735 -0.0623 -0.7704  0.1920
   24MOL     C316609   6.702   4.036   1.715 -0.1671  0.2528  0.0388
   24MOL     C416610   6.765   3.927   1.620  0.8213  0.0110 -1.0763
   24MOL     C516611   6.683   3.794   1.621 -0.4862 -0.1020 -0.3923
   24MOL     C616612   6.750   3.703   1.525 -0.2976 -0.3646  0.5541
   24MOL     C716613   6.684   3.571   1.500 -0.4751 -0.0533  0.4554
   24MOL     C816614   6.752   3.475   1.401 -0.6541 -0.0868  0.0485
   24MOL     O916615   6.655   3.371   1.388  0.4819 -0.2966 -0.1825
   24MOL    C1016616   6.681   3.282   1.296 -0.7552  0.1029  0.0426
   24MOL    O1116617   6.776   3.280   1.213 -0.4052 -0.5451 -0.1090
   24MOL    C1216618   6.567   3.178   1.284  0.0263  0.4108 -0.0034
   24MOL    C1316619   6.570   3.091   1.154 -0.6504  0.1795  1.2540
   24MOL    C1416620   6.565   3.087   1.411  0.2612  0.0236 -0.0809
   24MOL    H1516621   6.975   4.220   1.833  2.2933 -0.7641 -3.0602
   24MOL    H1616622   6.974   4.054   1.774  1.0084  0.0730  0.5320
   24MOL    H1716623   6.894   4.106   1.922 -0.2924  0.5970 -0.1197
   24MOL    H1816624   6.813   4.194   1.634 -2.3739 -1.7479 -0.6507
   24MOL    H1916625   6.723   4.240   1.765 -1.4745 -1.9589  0.1448
   24MOL    H2016626   6.679   3.976   1.803 -0.1701 -1.7033 -1.2387
   24MOL    H2116627   6.604   4.076   1.688 -0.7842 -1.0144  0.3281
   24MOL    H2216628   6.766   3.961   1.517  0.3074 -1.7036 -1.6628
   24MOL    H2316629   6.867   3.908   1.653  0.5392  1.3174  0.6253
   24MOL    H2416630   6.583   3.817   1.584 -1.3730 -1.5612  1.0094
   24MOL    H2516631   6.668   3.754   1.722 -1.6583 -0.6034 -0.7618
   24MOL    H2616632   6.857   3.698   1.545  0.1984 -1.2089 -2.0981
   24MOL    H2716633   6.754   3.755   1.429 -1.0335  0.8746  1.1795
   24MOL    H2816634   6.585   3.594   1.458 -0.3033 -0.9068 -0.4290
   24MOL    H2916635   6.672   3.518   1.594 -0.6347  1.0625  1.0820
   24MOL    H3016636   6.842   3.428   1.440 -0.4073  1.1593  1.0125
   24MOL    H3116637   6.787   3.534   1.316  0.9021 -1.0680  0.0005
   24MOL    H3216638   6.672   3.055   1.156  0.0764  2.1734  0.9670
   24MOL    H3316639   6.497   3.010   1.153 -0.7536  0.2812  0.4612
   24MOL    H3416640   6.549   3.153   1.067 -1.0931 -0.8803  0.6064
   24MOL    H3516641   6.639   3.118   1.485 -1.3763  0.8546  1.2718
   24MOL    H3616642   6.601   2.991   1.376 -1.7221 -0.4424 -0.9205
   24MOL    H3716643   6.468   3.224   1.290 -0.3483 -0.5082  1.3005
   24MOL    C3816644   6.147   3.418   2.599  0.0262 -0.3143 -0.6854
   24MOL    C3916645   6.207   3.468   2.473  0.7553 -0.4425  0.3075
   24MOL    C4016646   6.251   3.355   2.381 -0.4126 -0.6372  0.1882
   24MOL    C4116647   6.305   3.421   2.251  0.0109  0.2371 -0.1374
   24MOL    C4216648   6.323   3.307   2.149 -0.1526  0.2258 -0.0758
   24MOL    C4316649   6.343   3.351   2.003 -0.7139  0.3070  0.0560
   24MOL    C4416650   6.349   3.244   1.894  0.2570  0.2182 -0.6769
   24MOL    C4516651   6.386   3.305   1.755  0.2550 -0.2133 -0.3350
   24MOL    O4616652   6.419   3.193   1.671  0.4413  0.7676 -0.1769
   24MOL    C4716653   6.388   3.193   1.544  0.3640  0.5774  0.6304
   24MOL    O4816654   6.335   3.284   1.476  0.0400 -0.3990  0.2510
   24MOL    C4916655   6.426   3.060   1.478  0.1565  0.1139  0.0297
   24MOL    C5016656   6.459   2.945   1.580 -0.3843 -0.5955  0.4688
   24MOL    C5116657   6.316   3.016   1.374  0.2310  0.3505 -0.1151
   24MOL    H5216658   6.047   3.381   2.579 -0.3754  0.5691 -0.3265
   24MOL    H5316659   6.149   3.490   2.680 -3.7322 -1.2443  0.3175
   24MOL    H5416660   6.203   3.330   2.632 -3.6472 -2.4182  0.1527
   24MOL    H5516661   6.291   3.528   2.506  1.9246 -1.4974 -0.7312
   24MOL    H5616662   6.140   3.532   2.415 -1.4497 -2.9897 -0.1001
   24MOL    H5716663   6.332   3.298   2.427 -0.7268 -0.8864  0.4251
   24MOL    H5816664   6.168   3.287   2.363 -0.3848 -0.6180 -0.0206
   24MOL    H5916665   6.395   3.482   2.262 -0.3026  0.4041  1.6725
   24MOL    H6016666   6.226   3.487   2.216 -1.8683 -1.3578  0.9746
   24MOL    H6116667   6.419   3.269   2.183 -0.3895  0.4233  0.8412
   24MOL    H6216668   6.242   3.235   2.156 -0.9569  1.2254  1.1671
   24MOL    H6316669   6.271   3.428   1.975 -1.0091  0.0816  0.1996
   24MOL    H6416670   6.444   3.393   2.005 -0.0096 -1.2984 -0.4808
   24MOL    H6516671   6.253   3.193   1.891 -0.7898  2.1918 -1.9653
   24MOL    H6616672   6.424   3.168   1.915 -0.8905 -0.4798  1.0579
   24MOL    H6716673   6.478   3.364   1.755 -0.6081  1.1530 -0.9829
   24MOL    H6816674   6.311   3.371   1.712  0.0894 -0.0196  0.2520
   24MOL    H6916675   6.374   2.931   1.647 -0.1919  0.1798  0.8773
   24MOL    H7016676   6.475   2.849   1.532  0.0905  0.1168 -0.8112
   24MOL    H7116677   6.539   2.967   1.651 -1.0570  0.4307  0.9230
   24MOL    H7216678   6.358   2.944   1.304 -1.3521 -2.3447  1.5992
   24MOL    H7316679   6.288   3.104   1.316  0.4158  0.8399  0.5321
   24MOL    C7416680   5.805   2.087   2.100  0.5919  0.7742 -1.2687
   24MOL    C7516681   5.867   2.103   1.960  0.2934 -0.3405 -0.0492
   24MOL    C7616682   5.843   2.239   1.899 -0.0914 -0.5840  0.4047
   24MOL    C7716683   5.900   2.244   1.758  0.1809  0.1127 -0.2364
   24MOL    C7816684   5.920   2.387   1.700  0.1767  0.1395 -0.4643
   24MOL    C7916685   6.021   2.481   1.779 -0.1088 -0.5277  0.0448
   24MOL    C8016686   6.035   2.622   1.723 -0.5361 -0.1726  0.5807
   24MOL    C8116687   6.114   2.634   1.604  0.5030 -0.3733 -0.3941
   24MOL    O8216688   6.099   2.761   1.542  0.0313  0.3273 -0.0748
   24MOL    C8316689   6.196   2.807   1.472 -0.3266 -0.0324 -0.1143
   24MOL    O8416690   6.289   2.733   1.433 -0.3073 -0.0626  0.3550
   24MOL    C8516691   6.179   2.951   1.424 -0.4900  0.5140 -0.5074
   24MOL    C8616692   6.123   3.027   1.552  0.3453  0.2282  0.0514
   24MOL    C8716693   6.061   2.951   1.316 -0.1485 -0.6372 -1.2890
   24MOL    H8816694   5.831   2.162   2.174 -0.0058  1.2822 -1.5690
   24MOL    H8916695   5.855   1.999   2.142  0.2126  0.2677 -1.8777
   24MOL    H9016696   5.696   2.085   2.108  0.7296  2.0448  1.5374
   24MOL    H9116697   5.841   2.016   1.900  0.9018 -1.0559  0.7108
   24MOL    H9216698   5.974   2.103   1.982  0.8181  0.6117 -2.4829
   24MOL    H9316699   5.734   2.247   1.897 -0.1861 -0.6843  3.2007
   24MOL    H9416700   5.881   2.321   1.960 -1.5059 -0.4144  1.0948
   24MOL    H9516701   5.839   2.178   1.696 -0.5255  0.4628  0.0852
   24MOL    H9616702   5.999   2.198   1.763 -1.0448 -2.4914  1.3072
   24MOL    H9716703   5.960   2.368   1.600  1.5741 -0.8245  0.2667
   24MOL    H9816704   5.823   2.437   1.692  0.9596  2.1710  2.0329
   24MOL    H9916705   5.988   2.499   1.882  1.0358  0.2574  0.2819
   24MOL   H10016706   6.121   2.438   1.780  0.0049 -0.4518 -2.9039
   24MOL   H10116707   5.941   2.671   1.697  0.4002  1.1305 -0.3745
   24MOL   H10216708   6.081   2.688   1.796  0.3089 -1.6911  1.4585
   24MOL   H10316709   6.101   2.553   1.533 -1.5109  0.3899 -0.9556
   24MOL   H10416710   6.219   2.630   1.633  0.7492  1.3627 -0.9835
   24MOL   H10516711   6.186   3.028   1.641 -1.8016  1.6692  1.6043
   24MOL   H10616712   6.032   2.983   1.594  0.6275 -0.8363 -0.4445
   24MOL   H10716713   6.093   3.126   1.518 -0.1567  0.7505  1.9439
   24MOL   H10816714   5.980   2.908   1.375  2.9211 -1.3072  2.6554
   24MOL   H10916715   6.026   3.053   1.297  2.4714  0.8241  1.3782
   24MOL   C11016716   5.691   1.876   1.335 -0.7617 -0.2846  0.4719
   24MOL   C11116717   5.583   1.973   1.276  0.1902  0.6396  0.3908
   24MOL   C11216718   5.596   2.117   1.326  0.2029  0.6286 -0.7005
   24MOL   C11316719   5.694   2.203   1.236  1.0102 -0.4419 -0.0808
   24MOL   C11416720   5.704   2.352   1.285 -0.3586  0.6319 -0.1490
   24MOL   C11516721   5.813   2.428   1.215  0.0369  0.4433 -0.4972
   24MOL   C11616722   5.941   2.448   1.306 -0.4137 -0.0835 -0.6681
   24MOL   C11716723   6.066   2.510   1.237  0.1734 -0.9426 -0.2512
   24MOL   O11816724   6.053   2.656   1.239  0.4270 -0.0117 -0.0369
   24MOL   C11916725   6.129   2.742   1.175 -1.1297  0.2595  0.1346
   24MOL   O12016726   6.231   2.713   1.106  0.1846  0.5004 -0.9037
   24MOL   C12116727   6.068   2.883   1.181 -0.7224  0.0746  0.4774
   24MOL   C12216728   6.149   2.972   1.082  0.4530  0.1747 -0.4460
   24MOL   C12316729   5.920   2.882   1.133  0.1439  0.2482 -0.2438
   24MOL   H12416730   5.676   1.851   1.440  0.2026 -1.3570  0.3624
   24MOL   H12516731   5.685   1.777   1.290  0.8297 -1.4342  2.7095
   24MOL   H12616732   5.791   1.919   1.328 -0.9842  0.1907  0.1420
   24MOL   H12716733   5.485   1.932   1.300  0.7058 -0.2463  1.0106
   24MOL   H12816734   5.583   1.972   1.167 -2.0313 -2.9954  0.3349
   24MOL   H12916735   5.616   2.122   1.433 -1.7999 -1.3465 -0.2074
   24MOL   H13016736   5.499   2.167   1.316  0.1763  1.1159  1.7317
   24MOL   H13116737   5.784   2.145   1.253  0.2467 -1.0217  2.1300
   24MOL   H13216738   5.667   2.204   1.130  0.3737 -0.7764  0.0708
   24MOL   H13316739   5.722   2.355   1.393 -1.7521  1.9352  0.0460
   24MOL   H13416740   5.606   2.395   1.265 -0.9185 -0.3598  0.3795
   24MOL   H13516741   5.842   2.373   1.126 -0.8487 -0.2905 -0.3360
   24MOL   H13616742   5.781   2.521   1.168  0.4585 -0.0757 -1.8382
   24MOL   H13716743   5.984   2.358   1.350  1.2239  0.0576 -1.9325
   24MOL   H13816744   5.913   2.512   1.390 -1.7123 -0.1256 -1.0522
   24MOL   H13916745   6.152   2.490   1.301  0.0743  3.2311  1.3371
   24MOL   H14016746   6.098   2.470   1.141  0.9180  0.3504 -0.5613
   24MOL   H14116747   6.249   2.994   1.120  1.1178 -2.7446 -0.4156
   24MOL   H14216748   6.166   2.931   0.983 -1.1047  0.3917 -0.8095
   24MOL   H14316749   6.104   3.071   1.070  2.6140  1.3040  0.3056
   24MOL   H14416750   5.876   2.979   1.156 -0.5221  0.0100 -0.4830
   24MOL   H14516751   5.876   2.814   1.206 -0.0343 -0.6516 -1.1786
   24MOL   C14616752   5.953   3.104   0.044  0.0128  0.5884  0.3582
   24MOL   C14716753   5.994   3.198   0.156  0.5361 -0.4970  0.2533
   24MOL   C14816754   5.894   3.192   0.272  0.0410  0.1133  0.4297
   24MOL   C14916755   5.949   3.226   0.409 -0.7241 -0.1572 -0.0757
   24MOL   C15016756   5.836   3.245   0.512 -0.3467  0.0356  0.3532
   24MOL   C15116757   5.887   3.231   0.647  0.8710  0.3562 -0.0320
   24MOL   C15216758   5.781   3.230   0.752 -0.1619  0.5638  0.0478
   24MOL   C15316759   5.847   3.201   0.892  1.0902  0.1162  0.4818
   24MOL   O15416760   5.813   3.070   0.935 -0.2885  0.0059  0.0744
   24MOL   C15516761   5.892   2.965   0.904 -0.2901  0.1919 -0.2999
   24MOL   O15616762   5.981   2.963   0.817  0.7961 -0.2930  0.0062
   24MOL   C15716763   5.865   2.846   0.992 -1.0868  0.2700 -0.3529
   24MOL   C15816764   5.931   2.722   0.935 -0.2605  0.2379  0.3071
   24MOL   C15916765   5.702   2.826   1.008 -0.3106 -0.0710  0.2796
   24MOL   H16016766   6.020   3.116   7.739 -2.0608 -1.0947 -1.5827
   24MOL   H16116767   5.850   3.112   0.009  0.1361  1.5988  0.2224
   24MOL   H16216768   5.956   2.997   0.064  1.9799  0.9143  2.0106
   24MOL   H16316769   6.093   3.159   0.180  0.7709 -0.5421 -0.7739
   24MOL   H16416770   6.001   3.297   0.110 -1.9801 -0.5140 -0.2473
   24MOL   H16516771   5.857   3.090   0.287 -1.6805  0.2787 -2.2564
   24MOL   H16616772   5.802   3.250   0.260  0.0056 -0.3824 -2.0297
   24MOL   H16716773   6.023   3.152   0.440  1.1747  1.7747  0.1546
   24MOL   H16816774   6.004   3.319   0.395  0.1224 -0.6636 -0.1310
   24MOL   H16916775   5.765   3.166   0.490  2.2995 -2.4512  0.4320
   24MOL   H17016776   5.789   3.341   0.491 -0.8802 -0.4338 -0.6485
   24MOL   H17116777   5.961   3.306   0.676  0.6901 -0.1905  1.8569
   24MOL   H17216778   5.931   3.132   0.652  1.8166  0.5894 -2.8676
   24MOL   H17316779   5.726   3.324   0.754  0.5459  1.0693 -2.4209
   24MOL   H17416780   5.698   3.160   0.739 -0.1840  0.6409 -0.2169
   24MOL   H17516781   5.955   3.218   0.892  0.8685  1.6310 -1.0060
   24MOL   H17616782   5.801   3.264   0.968 -2.9096  0.6984 -2.2713
   24MOL   H17716783   5.899   2.694   0.835 -0.0396  1.6832 -0.1817
   24MOL   H17816784   5.904   2.637   0.998  2.3040  0.4263  1.7583
   24MOL   H17916785   6.038   2.732   0.917  0.1302 -0.3978  2.1019
   24MOL   H18016786   5.668   2.917   1.058 -1.2704 -0.3259  0.0913
   24MOL   H18116787   5.706   2.749   1.084  2.1843 -0.7194 -0.4550
   24MOL   C18216788   6.428   2.765   0.101 -0.0701  0.1412 -0.4848
   24MOL   C18316789   6.295   2.776   0.180 -0.3141  0.5383 -0.0543
   24MOL   C18416790   6.271   2.689   0.309 -0.0149 -0.4214  0.6070
   24MOL   C18516791   6.186   2.767   0.412  0.3490 -0.1713  0.1530
   24MOL   C18616792   6.043   2.778   0.368  0.2963 -0.6605  0.0086
   24MOL   C18716793   5.947   2.806   0.488 -0.3061  0.0115  0.3272
   24MOL   C18816794   5.794   2.800   0.447 -0.4457  0.2154 -0.2797
   24MOL   C18916795   5.697   2.872   0.547 -0.1683  0.2684 -0.2786
   24MOL   O19016796   5.709   2.828   0.680 -0.1556 -0.2171 -0.2071
   24MOL   C19116797   5.617   2.864   0.762 -0.1765  0.9851  0.4637
   24MOL   O19216798   5.532   2.952   0.744  0.1221  0.5456 -0.4945
   24MOL   C19316799   5.607   2.772   0.892  0.5044 -0.2762  0.5728
   24MOL   C19416800   5.469   2.810   0.954 -0.3042  0.6294  0.1432
   24MOL   C19516801   5.624   2.617   0.860  0.0730  0.2182  0.2265
   24MOL   H19616802   6.409   2.790   7.776 -2.8713 -2.1807 -0.5832
   24MOL   H19716803   6.497   2.836   0.146  0.5412  0.6593 -2.1820
   24MOL   H19816804   6.468   2.666   0.120  1.6349  0.7736 -0.6709
   24MOL   H19916805   6.210   2.752   0.116  0.9392 -1.9574 -0.8593
   24MOL   H20016806   6.274   2.881   0.199 -0.6337  0.5561 -0.5101
   24MOL   H20116807   6.219   2.595   0.292  1.0611 -0.9654  0.2580
   24MOL   H20216808   6.371   2.661   0.343  1.0778  1.4052 -0.9843
   24MOL   H20316809   6.200   2.711   0.504 -1.3001  1.1282  1.2014
   24MOL   H20416810   6.234   2.865   0.421 -0.0552 -0.0630  1.1530
   24MOL   H20516811   6.007   2.692   0.312 -0.4999  0.7050 -1.6212
   24MOL   H20616812   6.028   2.855   0.292  1.0091  0.5318  1.0415
   24MOL   H20716813   5.971   2.909   0.516 -2.6827  1.3116 -2.2476
   24MOL   H20816814   5.969   2.739   0.571  1.4353  0.9843  0.6935
   24MOL   H20916815   5.773   2.840   0.348 -1.1463  3.2748  1.0691
   24MOL   H21016816   5.757   2.697   0.446 -0.7658  0.3323 -0.5842
   24MOL   H21116817   5.594   2.865   0.512 -0.6630  0.6174  1.0925
   24MOL   H21216818   5.730   2.976   0.547  1.1237 -0.1358  0.1832
   24MOL   H21316819   5.441   2.915   0.959 -2.6805  0.0010  0.8801
   24MOL   H21416820   5.383   2.765   0.903 -0.3910 -0.1386  0.9529
   24MOL   H21516821   5.458   2.763   1.052  0.1262  2.0299  0.8773
   24MOL   H21616822   5.716   2.609   0.802 -0.5515 -2.1340 -0.4715
   24MOL   H21716823   5.652   2.571   0.955 -3.0833 -0.4814  0.8800
   24MOL   C21816824   5.187   1.739   0.571  0.7957 -0.8143  0.9602
   24MOL   C21916825   5.081   1.766   0.678  0.1446  0.1997  0.0798
   24MOL   C22016826   5.035   1.913   0.669  0.4163  0.4060  0.5071
   24MOL   C22116827   5.137   2.021   0.687 -0.8226 -0.3115 -0.5075
   24MOL   C22216828   5.207   2.027   0.828 -0.6251  0.1346 -0.7029
   24MOL   C22316829   5.268   2.167   0.863  0.3390 -0.5288 -0.5131
   24MOL   C22416830   5.328   2.181   1.009  0.7791 -0.3328 -0.4969
   24MOL   C22516831   5.351   2.325   1.063 -0.3121  0.3779  0.4597
   24MOL   O22616832   5.447   2.402   0.977  0.1876  0.1656 -0.0797
   24MOL   C22716833   5.407   2.490   0.885 -0.1191  0.9738 -0.4226
   24MOL   O22816834   5.298   2.542   0.891  0.0512 -0.2761  0.6178
   24MOL   C22916835   5.514   2.529   0.786 -0.7876 -0.4222 -0.2159
   24MOL   C23016836   5.602   2.405   0.755  0.2087  0.5964  0.1910
   24MOL   C23116837   5.460   2.606   0.657 -0.1566  0.1855 -0.3866
   24MOL   H23216838   5.176   1.632   0.552  0.5543 -0.9867  2.0319
   24MOL   H23316839   5.288   1.764   0.605  1.3853 -1.4315 -0.3166
   24MOL   H23416840   5.150   1.781   0.478 -1.4961 -1.5775  1.4850
   24MOL   H23516841   5.105   1.728   0.777  1.6032 -1.6158 -0.9182
   24MOL   H23616842   4.992   1.706   0.657 -0.4454  0.6644  1.1977
   24MOL   H23716843   4.989   1.931   0.572  0.8491 -3.3335 -0.4430
   24MOL   H23816844   4.961   1.927   0.748 -0.2015  1.6190 -0.2628
   24MOL   H23916845   5.206   2.025   0.602 -0.5299 -1.5064 -0.3287
   24MOL   H24016846   5.081   2.114   0.674 -1.9029 -0.8845  0.0185
   24MOL   H24116847   5.137   2.009   0.909  2.5878 -0.1263  2.1139
   24MOL   H24216848   5.280   1.947   0.835  1.0647  1.8812  2.6560
   24MOL   H24316849   5.344   2.186   0.787  1.7434 -0.1633  0.9607
   24MOL   H24416850   5.188   2.240   0.852  0.2034 -0.6843 -0.5646
   24MOL   H24516851   5.412   2.116   1.034  0.3757 -0.2140  1.2131
   24MOL   H24616852   5.244   2.142   1.065 -1.2118 -0.6476 -3.5746
   24MOL   H24716853   5.375   2.318   1.169  0.5763  0.3017  0.2547
   24MOL   H24816854   5.257   2.380   1.058 -1.3689 -1.2384  1.9653
   24MOL   H24916855   5.688   2.422   0.690 -0.2252  0.3916 -0.4332
   24MOL   H25016856   5.544   2.332   0.698 -0.4574  0.8187  0.5789
   24MOL   H25116857   5.651   2.369   0.846 -0.7572  1.6578  1.1448
   24MOL   H25216858   5.405   2.691   0.696 -2.3358 -1.2636 -0.2374
   24MOL   H25316859   5.550   2.646   0.610 -0.3385 -0.7177 -1.5444
   24MOL   C25416860   5.391   3.328   0.885  0.2337 -0.3788  0.6254
   24MOL   C25516861   5.304   3.399   0.777  0.7100  0.1390  0.1720
   24MOL   C25616862   5.202   3.306   0.710 -0.3152  0.2151 -0.4313
   24MOL   C25716863   5.259   3.172   0.647  0.2429  0.5089 -0.6232
   24MOL   C25816864   5.156   3.083   0.586 -0.4688  0.5449  0.0308
   24MOL   C25916865   5.207   2.958   0.526 -0.5372 -0.5195  0.6120
   24MOL   C26016866   5.305   2.978   0.410  0.2549 -0.8113  0.2212
   24MOL   C26116867   5.326   2.850   0.334  0.8270  0.3696  0.5689
   24MOL   O26216868   5.384   2.747   0.412 -0.1333  0.1466 -0.1860
   24MOL   C26316869   5.309   2.645   0.458  0.2837 -0.2339  0.4205
   24MOL   O26416870   5.187   2.635   0.441 -0.3118 -0.0112 -0.3962
   24MOL   C26516871   5.384   2.538   0.535 -0.1654  0.3608 -0.4812
   24MOL   C26616872   5.286   2.440   0.598 -0.6053  0.2978  0.1448
   24MOL   C26716873   5.494   2.481   0.438  0.3972  0.0084 -0.0143
   24MOL   H26816874   5.330   3.281   0.962 -0.0860  1.2285  1.3819
   24MOL   H26916875   5.449   3.259   0.824  1.2988  2.8335 -2.1626
   24MOL   H27016876   5.468   3.398   0.919  1.7979 -1.9566  0.3670
   24MOL   H27116877   5.262   3.486   0.828 -1.1991 -1.2432  1.0101
   24MOL   H27216878   5.369   3.438   0.699  0.9717  2.2505  1.4010
   24MOL   H27316879   5.154   3.354   0.626 -0.0949  1.5769  0.2135
   24MOL   H27416880   5.128   3.271   0.782 -0.9514  0.7702 -0.8134
   24MOL   H27516881   5.309   3.116   0.725 -0.1834  1.2004  0.1609
   24MOL   H27616882   5.343   3.208   0.587 -0.0509  3.0981  0.4586
   24MOL   H27716883   5.084   3.049   0.660 -1.4186 -1.8112 -1.9005
   24MOL   H27816884   5.098   3.135   0.510  0.3770  1.4894  0.0148
   24MOL   H27916885   5.129   2.890   0.491 -1.1678  0.5961 -0.1548
   24MOL   H28016886   5.254   2.903   0.608  2.5164 -1.7135 -1.8508
   24MOL   H28116887   5.284   3.060   0.341  1.1310  2.0822  3.2515
   24MOL   H28216888   5.395   3.014   0.461  0.4363  1.9380 -1.9181
   24MOL   H28316889   5.234   2.815   0.288  0.1425  3.0874 -0.2141
   24MOL   H28416890   5.399   2.875   0.257  0.2162 -1.1762 -0.5310
   24MOL   H28516891   5.214   2.496   0.658  1.2157 -0.6899  3.4036
   24MOL   H28616892   5.227   2.378   0.530  0.0081  0.3834 -0.4693
   24MOL   H28716893   5.342   2.369   0.660 -0.1911 -0.0797 -0.6580
   24MOL   H28816894   5.580   2.438   0.488 -0.6309 -0.8643  1.0111
   24MOL   H28916895   5.529   2.562   0.373  0.5606 -0.5719 -0.6543
   24MOL   C29016896   4.654   2.209   0.005 -0.7888  0.4394 -0.0450
   24MOL   C29116897   4.619   2.086   0.090 -0.2283  0.7819  0.3563
   24MOL   C29216898   4.744   2.002   0.132  0.1706  0.2809 -0.6585
   24MOL   C29316899   4.859   2.062   0.218 -0.2516  0.0361  0.5378
   24MOL   C29416900   4.994   1.981   0.211 -0.3746  0.0545  0.6890
   24MOL   C29516901   5.115   2.038   0.290 -0.1837  0.2842 -0.1504
   24MOL   C29616902   5.247   1.964   0.262 -0.2529 -0.2289 -0.1878
   24MOL   C29716903   5.365   2.009   0.341 -0.0925  0.3780  0.4385
   24MOL   O29816904   5.408   2.138   0.306 -0.1924 -0.2024 -0.1143
   24MOL   C29916905   5.443   2.236   0.391  0.3542 -0.3850  0.9763
   24MOL   O30016906   5.450   2.217   0.513 -0.3251  0.5073 -0.0010
   24MOL   C30116907   5.466   2.377   0.328  0.4902  0.9556 -0.0026
   24MOL   C30216908   5.336   2.409   0.260 -0.8765  0.6645  0.6496
   24MOL   C30316909   5.572   2.374   0.217 -0.5157 -0.0549  0.2656
   24MOL   H30416910   4.735   2.269   0.046 -0.6368 -0.5147  1.0671
   24MOL   H30516911   4.562   2.267   7.774 -3.0854 -2.5813  2.3204
   24MOL   H30616912   4.672   2.180   7.681 -0.3580  0.8152 -0.0767
   24MOL   H30716913   4.555   2.020   0.032  0.3238  1.6691 -1.2752
   24MOL   H30816914   4.560   2.113   0.177 -1.4544 -0.1415 -0.1765
   24MOL   H30916915   4.794   1.951   0.049 -0.5378 -0.1266 -0.8415
   24MOL   H31016916   4.710   1.925   0.202  1.3826  0.0715 -0.2953
   24MOL   H31116917   4.875   2.164   0.183  0.4219 -0.8847 -1.9383
   24MOL   H31216918   4.823   2.080   0.319 -0.3705  2.0589  0.1631
   24MOL   H31316919   4.974   1.882   0.250  3.5727 -1.1078  0.0126
   24MOL   H31416920   5.029   1.965   0.108 -0.8112  0.2696  0.5062
   24MOL   H31516921   5.103   2.040   0.399  0.9451  0.9264 -0.0337
   24MOL   H31616922   5.138   2.138   0.255 -2.1573  0.1771 -1.8242
   24MOL   H31716923   5.273   1.977   0.157  4.7663 -0.4031  0.9148
   24MOL   H31816924   5.239   1.857   0.283  2.5514 -0.0398  2.1106
   24MOL   H31916925   5.445   1.937   0.326  0.8959  1.5517 -0.0057
   24MOL   H32016926   5.339   2.001   0.447 -0.2732 -1.5951  0.2547
   24MOL   H32116927   5.246   2.407   0.322  1.0624 -0.3468  3.5636
   24MOL   H32216928   5.323   2.330   0.187  2.1587  1.7466 -1.1375
   24MOL   H32316929   5.344   2.498   0.197 -0.3490 -1.4312 -2.3086
   24MOL   H32416930   5.533   2.309   0.139 -2.3801  3.0088 -1.4704
   24MOL   H32516931   5.572   2.467   0.159 -1.2614  1.4837  2.6394
   24MOL   C32616932   5.901   1.397   0.051 -0.1585  0.2917  0.0607
   24MOL   C32716933   5.824   1.516   0.091 -0.2049  0.6659  0.1828
   24MOL   C32816934   5.812   1.622   7.752  0.2582 -0.4561 -0.1469
   24MOL   C32916935   5.716   1.734   0.009  0.9204 -0.4927 -0.2759
   24MOL   C33016936   5.730   1.850   7.689  0.3515 -0.1486 -0.2830
   24MOL   C33116937   5.639   1.962   7.738 -0.7995  0.4077  0.2269
   24MOL   C33216938   5.652   2.088   7.659 -0.1624  0.6440  0.1160
   24MOL   C33316939   5.775   2.170   7.701 -0.5056 -0.8156 -0.2462
   24MOL   O33416940   5.738   2.210   0.056  0.2375  0.3443  0.3001
   24MOL   C33516941   5.787   2.324   0.102 -0.1158  0.2308  0.4379
   24MOL   O33616942   5.855   2.404   0.036  0.3247  0.3533  0.2198
   24MOL   C33716943   5.728   2.355   0.244 -0.8939  0.3996 -0.1480
   24MOL   C33816944   5.790   2.490   0.294 -0.9477 -0.5113 -0.5053
   24MOL   C33916945   5.772   2.239   0.355  0.7816 -0.4553  0.5156
   24MOL   H34016946   5.851   1.352   7.745 -0.0209  1.4652 -0.6430
   24MOL   H34116947   5.905   1.323   0.131 -0.0064  0.8944  0.6089
   24MOL   H34216948   6.003   1.414   0.015 -0.6733 -2.6722 -3.0305
   24MOL   H34316949   5.859   1.577   0.174 -3.8262  2.3129  0.5868
   24MOL   H34416950   5.721   1.490   0.117 -0.1242 -0.4727 -0.6016
   24MOL   H34516951   5.781   1.556   7.671 -0.4917  0.6959 -0.8104
   24MOL   H34616952   5.912   1.662   7.736  1.0216 -3.3121 -3.0574
   24MOL   H34716953   5.740   1.764   0.110  0.7006 -3.5852  0.7585
   24MOL   H34816954   5.612   1.704   0.022  0.2691  1.5115 -0.6805
   24MOL   H34916955   5.833   1.887   7.684  0.3690 -0.0445  0.6656
   24MOL   H35016956   5.715   1.815   7.587  1.5403  0.4532 -0.6830
   24MOL   H35116957   5.534   1.933   7.736 -1.0185  1.1323  0.7821
   24MOL   H35216958   5.642   1.987   0.064 -0.2214  2.9708 -0.3504
   24MOL   H35316959   5.567   2.149   7.689 -2.9580 -3.4402  0.9240
   24MOL   H35416960   5.650   2.074   7.551  2.3259 -1.8570  0.3531
   24MOL   H35516961   5.866   2.112   7.711 -0.2773 -0.4285 -0.0583
   24MOL   H35616962   5.793   2.260   7.641  0.3654 -1.2749 -0.6788
   24MOL   H35716963   5.734   2.566   0.240  0.6451  1.6391  0.8031
   24MOL   H35816964   5.778   2.497   0.402  4.9386 -2.1285  0.4597
   24MOL   H35916965   5.896   2.505   0.273 -1.0047 -1.0060 -1.1590
   24MOL   H36016966   5.734   2.260   0.455  0.7727  0.4884  0.3181
   24MOL   H36116967   5.719   2.147   0.330  0.8351 -0.5796  0.8682
   24MOL   C36216968   6.065   1.819   1.266  0.1391  0.7434 -0.9771
   24MOL   C36316969   6.010   1.887   1.142 -0.5110  0.6122  0.1674
   24MOL   C36416970   6.079   2.014   1.088  0.2935  0.6601  0.0748
   24MOL   C36516971   5.990   2.095   0.988 -0.1543  0.1403 -0.1819
   24MOL   C36616972   6.060   2.226   0.948  0.3037 -0.4640  0.1385
   24MOL   C36716973   5.978   2.298   0.828  0.1658  0.7199  0.4348
   24MOL   C36816974   6.054   2.411   0.752  0.0283 -0.4584 -0.5811
   24MOL   C36916975   5.967   2.462   0.631 -0.2263 -0.4935  0.7549
   24MOL   O37016976   5.925   2.349   0.553 -0.4267 -0.0231  0.0977
   24MOL   C37116977   5.991   2.308   0.445  0.6272 -0.4060  0.5208
   24MOL   O37216978   6.099   2.349   0.410  0.6801 -0.0187 -0.1015
   24MOL   C37316979   5.919   2.187   0.377 -0.2067 -0.4036  0.8992
   24MOL   C37416980   6.000   2.145   0.251  0.5186  0.6374  0.3844
   24MOL   C37516981   5.941   2.068   0.489 -0.5987 -0.3116  0.4640
   24MOL   H37616982   5.997   1.745   1.308  3.0684  0.2831  3.2544
   24MOL   H37716983   6.163   1.774   1.253  0.3263  0.6480  0.7048
   24MOL   H37816984   6.063   1.887   1.351 -1.0833 -0.1278 -0.3023
   24MOL   H37916985   5.906   1.914   1.163 -1.1531  0.4188 -2.5895
   24MOL   H38016986   6.007   1.824   1.053 -1.6530  1.4684 -0.4113
   24MOL   H38116987   6.174   1.993   1.040 -0.0348  1.0884 -0.7723
   24MOL   H38216988   6.110   2.070   1.176  0.5096 -2.1394  1.8798
   24MOL   H38316989   5.900   2.115   1.045  0.8842 -1.7832  2.2377
   24MOL   H38416990   5.967   2.033   0.902  0.4169 -0.3785  0.0342
   24MOL   H38516991   6.067   2.287   1.038 -0.7102 -0.2365  0.0722
   24MOL   H38616992   6.160   2.211   0.907  0.0707 -2.4887  0.2686
   24MOL   H38716993   5.885   2.342   0.864  0.3270  0.7170  0.8539
   24MOL   H38816994   5.959   2.222   0.752 -2.6388  3.1536 -1.4260
   24MOL   H38916995   6.143   2.372   0.704 -0.7866 -1.3369 -1.4072
   24MOL   H39016996   6.075   2.500   0.811 -0.5259  1.0158 -2.5435
   24MOL   H39116997   5.882   2.516   0.672  0.1241 -0.2203  1.1289
   24MOL   H39216998   6.025   2.524   0.562  1.8906 -2.2809  0.8481
   24MOL   H39316999   6.096   2.102   0.279 -0.2411 -1.9600 -0.8421
   24MOL   H39417000   5.946   2.068   0.196 -2.1604  0.7370  2.7660
   24MOL   H39517001   6.042   2.225   0.190  1.4510  0.0328  0.2212
   24MOL   H39617002   6.044   2.036   0.499 -0.5333 -0.0638  0.5780
   24MOL   H39717003   5.922   2.111   0.587  0.6855  1.7151 -0.1538
   24MOL   C39817004   5.200   1.734   1.177  0.6279 -0.1364 -0.0604
   24MOL   C39917005   5.224   1.610   1.099 -0.0113  0.5039  0.1802
   24MOL   C40017006   5.375   1.591   1.058 -0.1171 -0.7682  0.4108
   24MOL   C40117007   5.413   1.702   0.962 -0.4340 -0.1728  0.7068
   24MOL   C40217008   5.565   1.705   0.951  1.5381 -0.0739  0.1654
   24MOL   C40317009   5.607   1.796   0.831  0.2333 -0.0905  0.1437
   24MOL   C40417010   5.594   1.946   0.852 -0.2565 -0.0976  0.4916
   24MOL   C40517011   5.583   2.021   0.721  0.3233 -0.6375  0.1290
   24MOL   O40617012   5.703   2.017   0.650 -0.3560 -0.1041 -0.0369
   24MOL   C40717013   5.711   1.956   0.532 -0.7834  1.0533 -0.7159
   24MOL   O40817014   5.610   1.919   0.474 -0.1198  0.2269  1.0419
   24MOL   C40917015   5.854   1.932   0.483 -0.1195 -0.0550  1.0092
   24MOL   C41017016   5.854   1.866   0.334 -0.2838 -0.6831  0.0652
   24MOL   C41117017   5.917   1.829   0.593  0.1857 -0.2817 -0.3753
   24MOL   H41217018   5.259   1.721   1.268  2.1285 -3.9317 -1.4722
   24MOL   H41317019   5.095   1.737   1.204  0.9350 -2.4881  1.5759
   24MOL   H41417020   5.223   1.829   1.129 -2.0314  0.3713 -0.3696
   24MOL   H41517021   5.153   1.597   1.017 -0.3834 -1.2596  0.7520
   24MOL   H41617022   5.195   1.532   1.170  1.9887 -0.6486 -0.2178
   24MOL   H41717023   5.422   1.598   1.156 -0.3368 -1.3509  0.5601
   24MOL   H41817024   5.393   1.493   1.013  1.4286 -0.0238 -0.6289
   24MOL   H41917025   5.387   1.806   0.985 -0.8492  0.1277 -1.0657
   24MOL   H42017026   5.361   1.683   0.868  2.0682  0.7848 -0.9089
   24MOL   H42117027   5.610   1.738   1.045  0.0180 -1.0697  1.2530
   24MOL   H42217028   5.605   1.606   0.932  1.4958 -0.0902  0.1616
   24MOL   H42317029   5.544   1.765   0.747  2.0488 -0.6351 -1.0671
   24MOL   H42417030   5.707   1.762   0.803 -0.0325 -1.7202  1.0917
   24MOL   H42517031   5.505   1.976   0.907 -0.2832 -0.9519  0.9173
   24MOL   H42617032   5.678   1.988   0.907 -0.8140  0.4361  0.9513
   24MOL   H42717033   5.500   1.991   0.658 -0.9528  0.8378  1.0602
   24MOL   H42817034   5.557   2.125   0.742  1.5811 -0.5471  1.3041
   24MOL   H42917035   5.954   1.845   0.297 -1.0830 -5.1219  0.1232
   24MOL   H43017036   5.798   1.929   0.265  1.9244  1.6459  0.3626
   24MOL   H43117037   5.805   1.768   0.335 -1.4308 -0.1087  1.6816
   24MOL   H43217038   5.836   1.757   0.606 -1.3630  1.0937 -1.9694
   24MOL   H43317039   5.918   1.875   0.691  2.2953  1.8288 -1.3239
   24MOL   C43417040   6.867   1.783   1.220 -0.1536  0.9056 -0.1003
   24MOL   C43517041   6.771   1.766   1.101  0.0959 -0.0841 -0.6008
   24MOL   C43617042   6.674   1.882   1.093  0.0419 -0.1022 -0.6647
   24MOL   C43717043   6.561   1.861   0.993  0.4555  0.4657  0.2165
   24MOL   C43817044   6.499   1.996   0.954 -0.7535 -0.1829  0.0429
   24MOL   C43917045   6.380   1.984   0.860  0.4782  0.1353 -0.2508
   24MOL   C44017046   6.417   1.956   0.714  0.0486 -0.2944 -0.4197
   24MOL   C44117047   6.307   1.987   0.613  0.3215  0.1655  0.1136
   24MOL   O44217048   6.193   1.901   0.638 -0.0339 -0.1060  0.5289
   24MOL   C44317049   6.160   1.812   0.542  0.2300  0.5460  0.1881
   24MOL   O44417050   6.211   1.803   0.427 -0.0754  0.4333 -0.5933
   24MOL   C44517051   6.039   1.730   0.590 -0.0069  0.1026  0.2237
   24MOL   C44617052   6.021   1.617   0.487  0.0385 -0.0388  0.1917
   24MOL   C44717053   6.048   1.674   0.740 -0.0486  0.6348 -0.4524
   24MOL   H44817054   6.899   1.887   1.219  0.4101  0.7329 -0.1924
   24MOL   H44917055   6.961   1.728   1.210  0.0095  1.1577  0.0237
   24MOL   H45017056   6.824   1.755   1.316 -0.7804 -0.2923 -0.7233
   24MOL   H45117057   6.727   1.669   1.124  0.9402 -0.9617 -2.5496
   24MOL   H45217058   6.821   1.747   1.006 -0.3219  2.2812 -1.3309
   24MOL   H45317059   6.735   1.972   1.083 -1.2276  1.2259  2.7881
   24MOL   H45417060   6.630   1.901   1.191  0.1998 -2.0492 -0.2054
   24MOL   H45517061   6.488   1.782   1.012  0.2427  0.1346 -1.8811
   24MOL   H45617062   6.616   1.827   0.905  0.0377  0.2444  0.0412
   24MOL   H45717063   6.463   2.033   1.050 -0.5714  0.0527  0.0195
   24MOL   H45817064   6.585   2.052   0.917  0.0834 -0.7777  1.0534
   24MOL   H45917065   6.316   2.072   0.873 -0.5341 -0.5432 -0.5966
   24MOL   H46017066   6.313   1.902   0.888 -1.5802  0.5865 -3.6831
   24MOL   H46117067   6.499   2.024   0.691 -0.6459 -0.0172 -2.1122
   24MOL   H46217068   6.448   1.852   0.704 -0.2676 -0.6133  1.6423
   24MOL   H46317069   6.349   1.992   0.513 -0.7948 -0.1972 -0.3735
   24MOL   H46417070   6.272   2.088   0.633  0.1914 -0.1676  1.6847
   24MOL   H46517071   6.008   1.657   0.386 -0.1958 -1.6204 -0.4316
   24MOL   H46617072   6.110   1.554   0.476 -0.3190 -0.6170  0.5528
   24MOL   H46717073   5.942   1.549   0.521  0.9386 -1.0972  0.2169
   24MOL   H46817074   6.078   1.754   0.808 -0.9650 -0.4647  1.2615
   24MOL   H46917075   5.946   1.643   0.762 -0.8014  3.3178  0.0231
   24MOL   C47017076   5.618   1.510   1.372  0.2045  0.5200  0.3390
   24MOL   C47117077   5.544   1.371   1.329 -0.5731 -0.4625 -0.4821
   24MOL   C47217078   5.636   1.248   1.302  0.1432  0.6461  0.7417
   24MOL   C47317079   5.739   1.255   1.185 -0.1600  0.0002 -0.0781
   24MOL   C47417080   5.673   1.260   1.049 -0.5405  0.7360  0.7190
   24MOL   C47517081   5.784   1.262   0.950 -0.2392 -0.2705 -0.4698
   24MOL   C47617082   5.749   1.278   0.802 -0.1693 -0.0947 -0.8763
   24MOL   C47717083   5.880   1.281   0.717 -0.4684 -0.5044  0.1676
   24MOL   O47817084   5.951   1.395   0.755  0.3086 -0.5614 -0.3358
   24MOL   C47917085   6.078   1.415   0.733  0.0258 -0.3091 -0.1804
   24MOL   O48017086   6.144   1.331   0.668  0.5445 -0.2139  0.5084
   24MOL   C48117087   6.137   1.547   0.788  0.0290 -0.1892  0.0018
   24MOL   C48217088   6.281   1.563   0.740 -0.5401  0.4288 -0.6198
   24MOL   C48317089   6.134   1.544   0.942 -0.9599 -0.4398 -0.5569
   24MOL   H48417090   5.714   1.525   1.324  0.5352 -0.9101  0.5361
   24MOL   H48517091   5.643   1.503   1.478 -2.8471  1.3935  1.1829
   24MOL   H48617092   5.551   1.596   1.368 -0.4329 -0.0415 -1.7298
   24MOL   H48717093   5.470   1.361   1.409 -1.3104  0.9124 -0.9861
   24MOL   H48817094   5.494   1.395   1.236 -0.1098  1.9422 -0.1219
   24MOL   H48917095   5.690   1.211   1.390 -1.5173 -0.1310  1.4575
   24MOL   H49017096   5.578   1.156   1.294  1.9749 -0.3057 -2.1792
   24MOL   H49117097   5.793   1.350   1.193 -1.6740  0.8359  0.4317
   24MOL   H49217098   5.795   1.163   1.196 -1.3985 -0.9677 -1.6438
   24MOL   H49317099   5.598   1.182   1.034  0.5941 -0.0378 -1.0508
   24MOL   H49417100   5.622   1.355   1.061 -0.1706  1.0206 -0.0143
   24MOL   H49517101   5.855   1.340   0.975  0.8661 -1.5917  0.6122
   24MOL   H49617102   5.842   1.171   0.964 -0.2728 -0.0023  1.6124
   24MOL   H49717103   5.685   1.195   0.769 -0.4244 -0.4109  0.3921
   24MOL   H49817104   5.697   1.373   0.790  0.3765  0.0674 -1.9963
   24MOL   H49917105   5.849   1.304   0.615  0.7473  0.6766  0.0553
   24MOL   H50017106   5.933   1.186   0.723  1.7215  0.7070  0.4531
   24MOL   H50117107   6.359   1.495   0.774  1.9049  2.4954 -1.9215
   24MOL   H50217108   6.296   1.659   0.790  1.6508  0.0279 -0.4631
   24MOL   H50317109   6.294   1.573   0.632 -1.5573 -1.7954 -0.9564
   24MOL   H50417110   6.139   1.643   0.988 -0.0702 -1.3072  1.2798
   24MOL   H50517111   6.030   1.517   0.961 -1.1734  1.2204  0.8120
   24MOL   C50617112   6.868   0.552   1.060  1.2889 -0.5196 -0.1414
   24MOL   C50717113   6.762   0.636   0.999 -0.4815 -0.4442  0.0572
   24MOL   C50817114   6.720   0.741   1.106 -0.5125  0.3995  0.0866
   24MOL   C50917115   6.647   0.850   1.031  0.9872  0.2560  0.4900
   24MOL   C51017116   6.575   0.953   1.114 -0.2151  0.9453  0.1237
   24MOL   C51117117   6.457   1.015   1.042 -0.0717  0.1576  0.0722
   24MOL   C51217118   6.492   1.111   0.929 -0.3941 -0.3696  0.3883
   24MOL   C51317119   6.380   1.184   0.857  0.0979 -0.8428  0.5008
   24MOL   O51417120   6.339   1.300   0.932 -0.3895 -0.2376  0.6052
   24MOL   C51517121   6.229   1.311   0.990  0.1476  0.1277 -0.8125
   24MOL   O51617122   6.134   1.230   0.984 -0.0648 -0.5066  0.0286
   24MOL   C51717123   6.212   1.452   1.042  0.1410  0.4057 -0.0983
   24MOL   C51817124   6.351   1.526   1.072  0.3501  0.1705 -0.1543
   24MOL   C51917125   6.127   1.456   1.173  0.2255  0.1451 -0.7762
   24MOL   H52017126   6.953   0.615   1.085  0.6028 -0.5556  2.4240
   24MOL   H52117127   6.910   0.479   0.990 -1.3553 -0.5234 -1.7729
   24MOL   H52217128   6.836   0.495   1.148 -0.9164 -2.6206 -2.2436
   24MOL   H52317129   6.677   0.571   0.974 -0.1731 -0.6692 -0.4172
   24MOL   H52417130   6.796   0.692   0.912  0.6961 -2.0444 -0.5466
   24MOL   H52517131   6.664   0.708   1.193  0.7103  0.1264  0.7765
   24MOL   H52617132   6.809   0.789   1.144 -0.3911  1.3574 -1.3498
   24MOL   H52717133   6.704   0.904   0.956  0.2335  0.7443  0.2612
   24MOL   H52817134   6.568   0.799   0.976 -1.6605  1.7058  2.8430
   24MOL   H52917135   6.536   0.910   1.206 -2.7169  1.1183 -0.8338
   24MOL   H53017136   6.646   1.026   1.154  0.5494  0.1222  0.2866
   24MOL   H53117137   6.397   1.069   1.114  1.0162 -0.3093  1.3468
   24MOL   H53217138   6.394   0.936   1.003  0.6739 -0.9815  1.1390
   24MOL   H53317139   6.540   1.061   0.845  1.4320  1.2271  0.4211
   24MOL   H53417140   6.563   1.181   0.974  1.6442 -1.3031 -1.2589
   24MOL   H53517141   6.295   1.120   0.831 -0.7721  1.5886 -2.9924
   24MOL   H53617142   6.410   1.232   0.764 -0.8647  1.7274  1.4676
   24MOL   H53717143   6.422   1.459   1.121 -1.3058 -2.6433 -1.4605
   24MOL   H53817144   6.347   1.607   1.145  1.9373  0.1941 -0.0802
   24MOL   H53917145   6.395   1.571   0.983  1.1862 -2.6831 -1.2468
   24MOL   H54017146   6.107   1.562   1.187  0.7885  0.2095 -0.4448
   24MOL   H54117147   6.023   1.427   1.160 -1.0046  2.0542  3.9392
   24MOL   C54217148   5.369   0.786   1.495 -0.0344  0.0983  0.0344
   24MOL   C54317149   5.476   0.891   1.499  0.6982  0.0423 -0.1310
   24MOL   C54417150   5.599   0.831   1.560 -0.5611 -0.5059 -0.1557
   24MOL   C54517151   5.731   0.917   1.569 -0.3149 -0.4506  0.6193
   24MOL   C54617152   5.824   0.916   1.445 -0.6108 -0.2737  0.1172
   24MOL   C54717153   5.956   0.983   1.444  0.4524  0.4577 -0.4229
   24MOL   C54817154   6.035   0.960   1.321  0.0426  0.5176 -0.5163
   24MOL   C54917155   6.171   1.029   1.304 -0.2578 -0.7353 -0.5547
   24MOL   O55017156   6.140   1.163   1.316 -0.4886 -0.1910  0.8162
   24MOL   C55117157   6.237   1.254   1.306 -1.0221 -0.4379  0.0784
   24MOL   O55217158   6.361   1.239   1.286  0.0516 -0.2093  0.1830
   24MOL   C55317159   6.177   1.399   1.314  0.0239  0.5235  0.0104
   24MOL   C55417160   6.052   1.396   1.399  0.3531  0.0138 -0.0663
   24MOL   C55517161   6.285   1.492   1.379 -0.5299 -0.2112 -0.6041
   24MOL   H55617162   5.274   0.835   1.474 -1.2159 -1.2871  1.9638
   24MOL   H55717163   5.359   0.726   1.585 -1.3406  0.5325  0.1923
   24MOL   H55817164   5.372   0.712   1.415  0.3662  0.9093 -0.7230
   24MOL   H55917165   5.501   0.934   1.402  0.6359  0.2411 -0.0580
   24MOL   H56017166   5.443   0.973   1.562 -0.9943 -0.3905 -0.4507
   24MOL   H56117167   5.624   0.730   1.530 -2.1208 -0.5000 -1.5352
   24MOL   H56217168   5.574   0.825   1.666 -1.5364 -0.4034 -0.3788
   24MOL   H56317169   5.715   1.022   1.590  0.5635 -0.0798 -0.4851
   24MOL   H56417170   5.781   0.877   1.657  2.3504  0.7905 -0.2475
   24MOL   H56517171   5.762   0.960   1.367  1.2263  0.8945 -0.7232
   24MOL   H56617172   5.844   0.811   1.429  1.7154  0.2139 -0.3752
   24MOL   H56717173   5.937   1.089   1.460 -2.8373 -0.2541  0.6283
   24MOL   H56817174   6.006   0.943   1.533  0.8083  1.2744 -0.2432
   24MOL   H56917175   6.049   0.852   1.312  0.2459  0.7161 -2.8396
   24MOL   H57017176   5.975   0.990   1.235  1.4515  2.1640 -0.9514
   24MOL   H57117177   6.227   1.010   1.213 -0.4141 -1.1548 -0.5648
   24MOL   H57217178   6.236   0.988   1.382  0.5405 -1.5893 -1.6511
   24MOL   H57317179   6.000   1.491   1.412  3.7955  1.8371  1.0498
   24MOL   H57417180   6.064   1.360   1.501 -0.9586 -1.4405 -0.3946
   24MOL   H57517181   5.981   1.322   1.361  1.4967 -0.9230 -0.3929
   24MOL   H57617182   6.261   1.596   1.357  1.9618  0.6822  0.7005
   24MOL   H57717183   6.385   1.465   1.345 -0.9376 -0.5187 -1.5663
   24MOL   C57817184   6.823   0.495   1.515 -0.5507 -0.1573 -0.2006
   24MOL   C57917185   6.879   0.609   1.596  0.2386 -0.0185 -0.4642
   24MOL   C58017186   6.785   0.731   1.601 -0.1102  0.2552 -0.2956
   24MOL   C58117187   6.751   0.807   1.470  0.4675 -0.3231 -0.5605
   24MOL   C58217188   6.742   0.963   1.487  0.1257 -0.3503 -0.3415
   24MOL   C58317189   6.623   0.992   1.577 -0.4818  0.3204 -0.2546
   24MOL   C58417190   6.583   1.124   1.555  0.3159 -0.0855 -0.1775
   24MOL   C58517191   6.473   1.179   1.647 -0.0754  0.3609 -0.5153
   24MOL   O58617192   6.444   1.308   1.596  0.3673 -0.1994  0.3336
   24MOL   C58717193   6.329   1.371   1.617 -0.3426 -0.1924 -0.9513
   24MOL   O58817194   6.257   1.343   1.712 -0.2631  0.2349 -0.6068
   24MOL   C58917195   6.318   1.504   1.532  0.1776  0.2432  0.1087
   24MOL   C59017196   6.196   1.583   1.599  0.3055 -0.1213 -0.2112
   24MOL   C59117197   6.454   1.594   1.540 -0.3613  0.0531  0.0223
   24MOL   H59217198   6.715   0.492   1.526 -0.7410 -0.2206 -1.9353
   24MOL   H59317199   6.880   0.409   1.550  0.2926  0.6823  0.5414
   24MOL   H59417200   6.835   0.520   1.409 -0.1824  0.6164  0.0163
   24MOL   H59517201   6.973   0.637   1.548  1.3371  0.3378  1.8265
   24MOL   H59617202   6.900   0.583   1.699 -1.1380  1.6312  0.2501
   24MOL   H59717203   6.835   0.798   1.671 -1.5480 -0.2633  1.2637
   24MOL   H59817204   6.693   0.708   1.655 -0.1433  1.5062  0.1972
   24MOL   H59917205   6.665   0.761   1.422  0.1579 -1.6771  1.2469
   24MOL   H60017206   6.839   0.792   1.407 -0.3117  1.0998 -2.0567
   24MOL   H60117207   6.733   1.015   1.392 -2.1600 -1.3651 -0.7224
   24MOL   H60217208   6.832   1.003   1.534 -1.0028  1.3300  0.4783
   24MOL   H60317209   6.646   0.983   1.683 -0.1175  0.8014 -0.2943
   24MOL   H60417210   6.545   0.919   1.555 -0.0861 -0.2986  0.3619
   24MOL   H60517211   6.553   1.147   1.453 -1.2937 -3.6254 -0.5494
   24MOL   H60617212   6.667   1.192   1.574  0.3529  0.1300 -1.0379
   24MOL   H60717213   6.390   1.108   1.640  1.1865 -1.0575 -1.3607
   24MOL   H60817214   6.501   1.181   1.752  0.1958 -1.5293 -0.5253
   24MOL   H60917215   6.212   1.589   1.706 -1.3703  0.5288  0.0116
   24MOL   H61017216   6.197   1.681   1.552  2.3940  0.9373  1.9480
   24MOL   H61117217   6.097   1.540   1.583  1.0538 -2.1734  0.4618
   24MOL   H61217218   6.431   1.668   1.463  1.1900  1.0396  0.4775
   24MOL   H61317219   6.537   1.543   1.489 -1.0223 -0.7614 -0.2459
   24MOL   C61417220   6.599   2.671   1.264 -0.2655 -0.9134 -0.1184
   24MOL   C61517221   6.605   2.519   1.242  0.2753  0.4302  0.5885
   24MOL   C61617222   6.478   2.445   1.296  0.0695  0.0959  0.4587
   24MOL   C61717223   6.469   2.297   1.241 -0.9023  0.0534 -0.3373
   24MOL   C61817224   6.356   2.221   1.307  0.1208  0.0187 -0.2098
   24MOL   C61917225   6.392   2.164   1.448 -0.0924 -0.3331 -0.2954
   24MOL   C62017226   6.283   2.057   1.495 -0.4071  0.6843  0.7977
   24MOL   C62117227   6.317   1.993   1.631  0.1605  0.3640 -0.4847
   24MOL   O62217228   6.402   1.885   1.610 -0.3082  0.5770  0.4232
   24MOL   C62317229   6.423   1.792   1.707 -0.3574 -0.1995  0.1876
   24MOL   O62417230   6.362   1.785   1.815  0.8434 -0.0812 -0.0731
   24MOL   C62517231   6.520   1.673   1.658 -0.0067  0.1563  0.3886
   24MOL   C62617232   6.547   1.577   1.773 -0.1085  0.8900  0.7717
   24MOL   C62717233   6.657   1.735   1.598  0.9035 -0.2467  1.0980
   24MOL   H62817234   6.598   2.690   1.371 -3.7546  1.3343 -0.4861
   24MOL   H62917235   6.507   2.721   1.235  0.0623  1.0881  2.0955
   24MOL   H63017236   6.681   2.726   1.218 -1.1122  0.4522 -0.0147
   24MOL   H63117237   6.624   2.488   1.139  1.6655 -1.7571  1.4546
   24MOL   H63217238   6.689   2.483   1.302 -0.2703  0.8969  1.6243
   24MOL   H63317239   6.389   2.498   1.262  0.9807  1.2826 -0.0728
   24MOL   H63417240   6.470   2.445   1.405 -4.9411 -1.0650  0.2277
   24MOL   H63517241   6.563   2.243   1.225  0.0163  1.2372  0.9813
   24MOL   H63617242   6.432   2.305   1.138 -0.9544  1.7968 -0.1823
   24MOL   H63717243   6.273   2.291   1.309 -0.1467 -0.1773 -2.8140
   24MOL   H63817244   6.329   2.133   1.249  0.2689 -0.5742  0.6039
   24MOL   H63917245   6.488   2.114   1.445 -0.4613 -1.0070 -1.4379
   24MOL   H64017246   6.391   2.244   1.521  0.4701  0.6920 -1.4055
   24MOL   H64117247   6.278   1.979   1.419 -1.6265  1.8745 -0.3601
   24MOL   H64217248   6.191   2.115   1.498  0.2408  1.6768  1.5476
   24MOL   H64317249   6.344   2.070   1.702 -1.0201  1.2516 -0.9721
   24MOL   H64417250   6.223   1.952   1.667 -0.3771  0.2150 -2.0016
   24MOL   H64517251   6.592   1.626   1.859 -1.1609  1.0916  1.2114
   24MOL   H64617252   6.609   1.490   1.746 -1.1444 -0.6638  3.2787
   24MOL   H64717253   6.451   1.537   1.805  0.7470 -0.5677  1.5443
   24MOL   H64817254   6.620   1.815   1.534 -1.5702 -0.7493  1.8457
   24MOL   H64917255   6.709   1.670   1.528 -0.2873  1.5183 -1.4868
   24MOL   C65017256   7.305   2.658   1.174  0.0795 -0.0695  1.3229
   24MOL   C65117257   7.194   2.563   1.127 -0.5396  0.3138 -0.6223
   24MOL   C65217258   7.148   2.470   1.245 -0.7007  0.3657  0.5268
   24MOL   C65317259   7.048   2.361   1.200 -0.3032  0.5968 -0.1334
   24MOL   C65417260   6.969   2.302   1.315 -0.3814  0.1940  0.3926
   24MOL   C65517261   6.860   2.201   1.268 -0.3789 -0.7167 -0.8124
   24MOL   C65617262   6.787   2.132   1.382 -0.1011 -0.7935  0.1346
   24MOL   C65717263   6.892   2.052   1.465 -0.7477 -0.1083 -0.2562
   24MOL   O65817264   6.817   1.978   1.549 -0.0095  0.4181 -0.0678
   24MOL   C65917265   6.863   1.859   1.600  0.2303 -0.3515 -0.1262
   24MOL   O66017266   6.973   1.813   1.568  0.2882 -0.2386  0.1179
   24MOL   C66117267   6.767   1.784   1.695 -0.0985  0.0647  0.2590
   24MOL   C66217268   6.844   1.664   1.762  0.7803  0.1724 -0.7396
   24MOL   C66317269   6.719   1.885   1.801  0.3431  0.0186 -0.2903
   24MOL   H66417270   7.274   2.747   1.228 -1.1780 -0.6798  1.6234
   24MOL   H66517271   7.342   2.711   1.086  2.3683 -1.6256  1.3150
   24MOL   H66617272   7.394   2.613   1.218  0.5210  2.1274  2.7230
   24MOL   H66717273   7.218   2.501   1.040 -2.0045 -0.4687 -0.4852
   24MOL   H66817274   7.107   2.617   1.090 -0.9317 -0.3992 -0.7596
   24MOL   H66917275   7.107   2.522   1.331  0.7488 -2.4157  2.9681
   24MOL   H67017276   7.236   2.420   1.285 -0.6397  0.8504  0.9985
   24MOL   H67117277   7.104   2.285   1.146  1.8354  1.2435  1.0842
   24MOL   H67217278   6.984   2.412   1.128 -1.2568  0.7843  0.8319
   24MOL   H67317279   6.920   2.384   1.368  0.6147  1.8550 -1.1838
   24MOL   H67417280   7.027   2.259   1.397 -0.9488 -0.4244  0.4780
   24MOL   H67517281   6.788   2.249   1.201  2.2567  2.5635 -1.4281
   24MOL   H67617282   6.906   2.121   1.210 -0.8301 -1.8024  0.3037
   24MOL   H67717283   6.718   2.054   1.353 -0.9911  0.0255  0.0361
   24MOL   H67817284   6.723   2.193   1.445 -1.4399  0.1519 -2.0850
   24MOL   H67917285   6.970   2.101   1.522 -0.5459 -1.5243  0.6998
   24MOL   H68017286   6.944   1.985   1.396 -0.3049 -0.8583  0.7999
   24MOL   H68117287   6.823   1.571   1.710 -1.2635 -0.5036  1.2484
   24MOL   H68217288   6.817   1.644   1.866  1.9582 -0.2697 -0.4990
   24MOL   H68317289   6.953   1.668   1.752  0.7016  1.7087 -1.2006
   24MOL   H68417290   6.652   1.959   1.759 -0.9026 -0.9989 -0.1064
   24MOL   H68517291   6.641   1.837   1.859  0.8693 -1.8758 -1.1125
   24MOL   C68617292   6.274   1.292   2.080 -0.5654 -0.0350 -0.2074
   24MOL   C68717293   6.221   1.414   2.162 -0.1249 -0.4883  0.0485
   24MOL   C68817294   6.278   1.554   2.119  0.1221  0.1755  0.4538
   24MOL   C68917295   6.227   1.657   2.224  0.4613 -0.5687 -0.1206
   24MOL   C69017296   6.230   1.800   2.169  0.1037  0.1086  0.0243
   24MOL   C69117297   6.370   1.868   2.174 -0.1396  0.5604  0.1056
   24MOL   C69217298   6.382   1.991   2.086 -0.6600 -0.1619 -0.4042
   24MOL   C69317299   6.511   2.065   2.110 -0.6350 -0.4672 -0.3600
   24MOL   O69417300   6.608   2.004   2.026 -0.5412 -0.0230 -0.1550
   24MOL   C69517301   6.727   2.063   1.994 -0.2370  0.4201 -0.3727
   24MOL   O69617302   6.754   2.181   2.019 -0.1123 -0.8432 -0.4500
   24MOL   C69717303   6.814   1.967   1.904  0.6246  0.9349 -0.2593
   24MOL   C69817304   6.918   2.060   1.831  0.1791  0.6409 -0.5863
   24MOL   C69917305   6.887   1.876   1.998  0.1910  0.8364 -0.0692
   24MOL   H70017306   6.274   1.329   1.978 -1.1678 -1.1046 -0.6032
   24MOL   H70117307   6.212   1.202   2.076  0.8632 -0.9993 -1.4867
   24MOL   H70217308   6.380   1.272   2.099 -0.5728 -0.3173 -0.4508
   24MOL   H70317309   6.257   1.398   2.264  2.0353 -1.0745 -0.7913
   24MOL   H70417310   6.112   1.420   2.157  0.0543  1.1285 -3.1481
   24MOL   H70517311   6.242   1.580   2.019 -0.9019 -0.1542  0.7304
   24MOL   H70617312   6.387   1.557   2.119  0.1150  0.5532  0.3912
   24MOL   H70717313   6.270   1.657   2.324 -0.5058  1.1652  0.3316
   24MOL   H70817314   6.125   1.637   2.259  0.7615  1.0476  1.8100
   24MOL   H70917315   6.159   1.858   2.228 -1.9977 -1.7491 -0.6241
   24MOL   H71017316   6.188   1.810   2.069  0.4311  0.9538 -0.0326
   24MOL   H71117317   6.381   1.892   2.280  0.7334  0.0750  0.1361
   24MOL   H71217318   6.455   1.804   2.150  0.4575  1.0050  0.9686
   24MOL   H71317319   6.373   1.958   1.982  0.5075 -0.1246 -0.5218
   24MOL   H71417320   6.298   2.055   2.113 -1.7062 -0.7778 -2.0614
   24MOL   H71517321   6.541   2.052   2.214  0.6458 -0.4693 -0.7202
   24MOL   H71617322   6.516   2.170   2.081  2.4195  0.3206  2.6588
   24MOL   H71717323   6.999   1.996   1.796  0.0558 -0.6704  1.4313
   24MOL   H71817324   6.871   2.119   1.753 -0.4015 -1.5225 -1.9149
   24MOL   H71917325   6.964   2.140   1.889 -3.0473  0.6628  2.0076
   24MOL   H72017326   6.978   1.833   1.956  1.8639  3.6899  0.4486
   24MOL   H72117327   6.811   1.806   2.033  0.1756 -0.1347 -1.9831
   24MOL   H72217328   6.918   1.933   2.085  0.4876 -0.8651  0.9410
   25MOL     C117329   4.994   5.596   1.177 -1.1876 -0.0617 -0.1369
   25MOL     C217330   5.101   5.680   1.263 -0.2981  0.1757  0.9923
   25MOL     C317331   5.238   5.613   1.239 -0.2334 -0.2779  0.0860
   25MOL     C417332   5.347   5.658   1.337  0.3065  0.0615 -0.0159
   25MOL     C517333   5.491   5.615   1.291  0.0356 -0.2448  0.2175
   25MOL     C617334   5.599   5.687   1.374 -0.0525 -0.1340 -0.0042
   25MOL     C717335   5.733   5.672   1.312 -0.5075  0.7480  0.4743
   25MOL     C817336   5.784   5.527   1.287 -0.3623 -0.3525  0.9927
   25MOL     O917337   5.928   5.523   1.259 -0.1781  0.6154 -0.2746
   25MOL    C1017338   6.013   5.479   1.350  0.5854  0.1722 -0.0888
   25MOL    O1117339   5.988   5.454   1.467 -0.3225  0.8389  0.3026
   25MOL    C1217340   6.156   5.468   1.296 -0.0236  0.1913 -0.0301
   25MOL    C1317341   6.184   5.587   1.199 -0.2726  0.3261  0.2183
   25MOL    C1417342   6.267   5.442   1.394  0.0678  0.0036  0.2840
   25MOL    H1517343   5.008   5.490   1.194 -2.1097  0.1952  2.4871
   25MOL    H1617344   5.012   5.607   1.070 -0.2020  0.4950  0.0778
   25MOL    H1717345   4.889   5.622   1.189 -0.9859 -0.4038  2.8747
   25MOL    H1817346   5.069   5.683   1.367  0.4238  0.4026  1.2118
   25MOL    H1917347   5.105   5.782   1.224  0.6857  0.0914  0.8632
   25MOL    H2017348   5.233   5.504   1.242  2.1739 -0.5078 -2.4081
   25MOL    H2117349   5.277   5.633   1.139  0.4470  0.5462  0.5222
   25MOL    H2217350   5.337   5.764   1.357 -1.2147  0.0916 -0.8341
   25MOL    H2317351   5.330   5.625   1.440  1.6563  0.3320  0.3067
   25MOL    H2417352   5.498   5.634   1.184 -1.6209 -0.5100  0.0551
   25MOL    H2517353   5.493   5.506   1.304 -2.1712 -0.3146  0.2048
   25MOL    H2617354   5.602   5.656   1.478  0.9961 -0.1920 -0.0536
   25MOL    H2717355   5.579   5.794   1.386 -1.6689 -0.5959  1.5979
   25MOL    H2817356   5.813   5.716   1.372 -0.3322 -1.3016  1.7965
   25MOL    H2917357   5.727   5.724   1.216 -0.4946  0.2768  0.2161
   25MOL    H3017358   5.731   5.490   1.200 -1.1705  0.4658  1.1203
   25MOL    H3117359   5.767   5.471   1.379  0.9449 -1.8941  0.3050
   25MOL    H3217360   6.238   5.542   1.115 -0.9639 -1.2847  0.6204
   25MOL    H3317361   6.104   5.640   1.147 -1.6469 -1.0639  0.8783
   25MOL    H3417362   6.245   5.669   1.237 -0.1702  0.2878  0.1377
   25MOL    H3517363   6.236   5.473   1.494 -2.0436 -0.4466 -0.2097
   25MOL    H3617364   6.356   5.500   1.369  2.2621 -3.0722  0.7649
   25MOL    H3717365   6.149   5.383   1.228 -0.0553  0.3588 -0.2375
   25MOL    C3817366   7.471   5.488   1.543  0.1312 -1.2565  0.3359
   25MOL    C3917367   7.389   5.357   1.547 -0.5234 -0.3931 -0.1287
   25MOL    C4017368   7.237   5.372   1.530  0.1686 -0.0587  0.4983
   25MOL    C4117369   7.159   5.244   1.565 -0.3835 -0.5404  0.0999
   25MOL    C4217370   7.004   5.257   1.530  0.4781 -0.6530  0.0169
   25MOL    C4317371   6.928   5.118   1.522  0.0033  0.3518  0.2922
   25MOL    C4417372   6.783   5.140   1.465  0.3127 -0.1600 -0.3977
   25MOL    C4517373   6.689   5.232   1.535 -0.1620 -0.0735 -0.6399
   25MOL    O4617374   6.569   5.245   1.454 -0.5745 -0.1729 -0.3666
   25MOL    C4717375   6.465   5.316   1.498  0.2656 -0.2200 -0.3743
   25MOL    O4817376   6.475   5.400   1.590 -0.4449 -0.0596 -0.0409
   25MOL    C4917377   6.330   5.296   1.413 -0.3832  0.0626 -0.2120
   25MOL    C5017378   6.353   5.224   1.267  0.8279 -0.7107 -0.6650
   25MOL    C5117379   6.224   5.220   1.504  0.3096  0.6020 -0.7196
   25MOL    H5217380   7.536   5.488   1.630 -0.3877  0.6113  0.7341
   25MOL    H5317381   7.417   5.581   1.562  1.8566  0.1238 -1.3098
   25MOL    H5417382   7.536   5.500   1.456  0.4014 -0.1163  0.6917
   25MOL    H5517383   7.413   5.293   1.631 -2.4963 -2.6379 -1.2123
   25MOL    H5617384   7.421   5.301   1.459 -2.2383 -4.2068  1.5333
   25MOL    H5717385   7.201   5.448   1.599 -1.7216  0.2495 -0.7923
   25MOL    H5817386   7.200   5.391   1.429 -0.4178 -1.1729  0.4864
   25MOL    H5917387   7.158   5.218   1.671 -0.5857  0.1214  0.2626
   25MOL    H6017388   7.223   5.177   1.508  0.6502  0.6552 -0.1729
   25MOL    H6117389   6.954   5.329   1.593  0.5727 -0.3976 -0.1994
   25MOL    H6217390   7.002   5.300   1.430  0.3666  0.5705  0.5396
   25MOL    H6317391   6.971   5.050   1.449 -0.2343 -0.5158  0.9465
   25MOL    H6417392   6.909   5.075   1.621  0.2210  0.8222  0.5378
   25MOL    H6517393   6.741   5.042   1.488 -0.6265  0.2567 -0.2880
   25MOL    H6617394   6.786   5.158   1.357 -0.2306  0.3002 -0.3387
   25MOL    H6717395   6.732   5.332   1.537 -2.1828  0.7869  2.0979
   25MOL    H6817396   6.672   5.196   1.636  1.4484  1.8279  0.3431
   25MOL    H6917397   6.436   5.153   1.259  1.5042  0.0749 -0.7113
   25MOL    H7017398   6.270   5.161   1.234 -0.8168  1.4891 -0.8952
   25MOL    H7117399   6.366   5.306   1.196  1.3265 -0.6924 -0.5540
   25MOL    H7217400   6.131   5.205   1.450 -0.0064  0.2205 -0.0700
   25MOL    H7317401   6.193   5.291   1.581 -0.0867  2.8475 -2.8780
   25MOL    C7417402   6.287   4.128   1.802  0.3826 -0.2778 -0.6834
   25MOL    C7517403   6.260   4.239   1.696 -0.1006 -0.6439 -0.4186
   25MOL    C7617404   6.380   4.319   1.643  0.7504 -0.3529 -0.4153
   25MOL    C7717405   6.336   4.428   1.544 -0.4669  0.4391  0.5891
   25MOL    C7817406   6.443   4.537   1.547  0.4011  0.2308  0.7916
   25MOL    C7917407   6.423   4.641   1.439 -0.5178  0.1048  0.3548
   25MOL    C8017408   6.535   4.741   1.456  0.2940  0.7842 -0.3405
   25MOL    C8117409   6.506   4.870   1.386 -0.7601 -0.0512 -0.3130
   25MOL    O8217410   6.439   4.954   1.479 -0.0289  0.3344 -0.4580
   25MOL    C8317411   6.304   4.968   1.470  0.4769 -0.3638  0.4623
   25MOL    O8417412   6.236   4.907   1.386  0.6581 -0.2535  0.0067
   25MOL    C8517413   6.247   5.076   1.568 -1.0097  0.2238  0.0715
   25MOL    C8617414   6.343   5.090   1.685  0.2513  0.1748 -0.4269
   25MOL    C8717415   6.102   5.036   1.617  1.1087 -0.0903  0.3693
   25MOL    H8817416   6.336   4.171   1.889 -0.9609 -1.1667  0.5091
   25MOL    H8917417   6.342   4.044   1.759 -1.1069 -1.8896  0.5114
   25MOL    H9017418   6.199   4.089   1.851 -0.1177 -0.3315 -1.6091
   25MOL    H9117419   6.178   4.302   1.733 -1.5001 -2.3213 -0.6185
   25MOL    H9217420   6.208   4.194   1.612 -0.9132  1.4707 -1.0700
   25MOL    H9317421   6.444   4.366   1.718  0.5938 -0.5397 -0.1603
   25MOL    H9417422   6.439   4.244   1.592  1.9367 -0.9956  1.8336
   25MOL    H9517423   6.238   4.469   1.567 -0.1077  1.5081  0.2627
   25MOL    H9617424   6.338   4.386   1.443  0.2401  1.1417  0.3045
   25MOL    H9717425   6.451   4.593   1.640 -0.3389  1.4104  0.1539
   25MOL    H9817426   6.540   4.489   1.531  0.2904  0.4663 -0.6743
   25MOL    H9917427   6.422   4.602   1.338 -0.0891 -0.0969  0.4267
   25MOL   H10017428   6.328   4.688   1.465 -0.5254  1.5543 -2.1414
   25MOL   H10117429   6.572   4.768   1.555  0.8963  0.6248 -0.5194
   25MOL   H10217430   6.619   4.692   1.407  1.0678  1.1095  0.6471
   25MOL   H10317431   6.466   4.857   1.286 -1.1329 -0.9395 -0.0591
   25MOL   H10417432   6.607   4.903   1.363 -1.3640  1.0114 -1.4824
   25MOL   H10517433   6.300   5.152   1.764 -0.9711 -1.2291  0.0512
   25MOL   H10617434   6.440   5.136   1.670  0.2236  0.4612  0.2535
   25MOL   H10717435   6.352   4.998   1.743 -0.0691  0.4348  0.0408
   25MOL   H10817436   6.047   5.125   1.648 -1.0041 -0.7976 -1.2610
   25MOL   H10917437   6.049   4.999   1.530 -0.5489  1.6651  0.5959
   25MOL   C11017438   5.295   5.181   2.176  0.2272 -0.6387 -0.6605
   25MOL   C11117439   5.419   5.219   2.257  0.8587  0.0395 -0.4095
   25MOL   C11217440   5.547   5.246   2.168 -0.1033  0.0902  0.1845
   25MOL   C11317441   5.653   5.325   2.246  0.6763  0.1908  0.5498
   25MOL   C11417442   5.782   5.343   2.167 -0.0466  0.4516  0.5926
   25MOL   C11517443   5.861   5.204   2.140 -0.4551  0.5923  0.3922
   25MOL   C11617444   6.003   5.228   2.084 -0.2436  0.2866  0.1533
   25MOL   C11717445   6.075   5.094   2.051  0.1570  0.1718  0.8132
   25MOL   O11817446   6.049   5.069   1.909 -0.2585  0.4293  0.6853
   25MOL   C11917447   6.103   4.955   1.868  0.4192 -0.0104  0.5057
   25MOL   O12017448   6.178   4.878   1.931 -0.5242 -0.0006  0.9482
   25MOL   C12117449   6.052   4.921   1.724  0.3623 -0.3170 -0.4166
   25MOL   C12217450   6.121   4.792   1.692  0.3339  0.0743 -0.1860
   25MOL   C12317451   5.892   4.914   1.718  0.0220 -0.0045  0.3035
   25MOL   H12417452   5.275   5.250   2.094 -1.5228  2.0765  1.9682
   25MOL   H12517453   5.309   5.080   2.136  0.0549 -0.2631 -1.6935
   25MOL   H12617454   5.201   5.182   2.232  0.1846  0.4490 -0.7534
   25MOL   H12717455   5.434   5.143   2.333  2.7275 -1.3088 -2.0597
   25MOL   H12817456   5.389   5.303   2.318  0.6579 -1.2149  1.2605
   25MOL   H12917457   5.519   5.299   2.077 -0.2024 -1.1197 -0.4994
   25MOL   H13017458   5.585   5.148   2.138 -2.8100 -1.2444  1.0081
   25MOL   H13117459   5.625   5.430   2.253  1.0172  0.4852 -1.9148
   25MOL   H13217460   5.670   5.283   2.345 -0.1303  0.3828  0.7803
   25MOL   H13317461   5.846   5.404   2.231  0.6962 -1.7065  1.9778
   25MOL   H13417462   5.754   5.379   2.068  0.9064  1.5293  0.7137
   25MOL   H13517463   5.857   5.154   2.237 -2.2653 -1.7780 -0.8603
   25MOL   H13617464   5.807   5.151   2.062  2.3366  2.2311 -2.8109
   25MOL   H13717465   6.060   5.273   2.166  0.2127  1.7164 -0.9346
   25MOL   H13817466   6.004   5.300   2.003 -2.8310 -0.3800 -0.5250
   25MOL   H13917467   6.183   5.101   2.060  0.2737 -1.3513  0.7702
   25MOL   H14017468   6.048   5.007   2.111 -2.9623  1.3680  1.2802
   25MOL   H14117469   6.118   4.711   1.764  2.1148  2.4437  2.6717
   25MOL   H14217470   6.079   4.743   1.604  1.1423  0.1741 -0.6312
   25MOL   H14317471   6.227   4.810   1.674  0.1535  0.6932 -0.6770
   25MOL   H14417472   5.877   4.924   1.611 -0.1932  0.8418  0.4070
   25MOL   H14517473   5.852   5.005   1.763 -2.5490 -0.7723 -0.3431
   25MOL   C14617474   5.332   4.579   2.873  0.1301 -0.7176  0.3767
   25MOL   C14717475   5.460   4.657   2.818 -0.0870 -0.7145 -0.5863
   25MOL   C14817476   5.462   4.656   2.661 -0.1297 -0.3456  0.2512
   25MOL   C14917477   5.582   4.725   2.592  0.1423 -0.2017 -0.2612
   25MOL   C15017478   5.573   4.720   2.439 -0.0596  0.7802 -0.6167
   25MOL   C15117479   5.698   4.774   2.380  0.1634  0.7960  0.5442
   25MOL   C15217480   5.687   4.790   2.222 -0.0323 -0.2295 -0.6144
   25MOL   C15317481   5.825   4.832   2.162  0.2084  0.0070  0.0977
   25MOL   O15417482   5.806   4.851   2.022  0.9754  1.0310  0.6504
   25MOL   C15517483   5.856   4.770   1.926 -0.2945 -0.9244  0.3900
   25MOL   O15617484   5.931   4.675   1.955  0.4650 -0.1470  0.3010
   25MOL   C15717485   5.811   4.797   1.779 -0.6155 -0.4240 -0.1541
   25MOL   C15817486   5.661   4.847   1.791  0.0541 -0.7777  0.9528
   25MOL   C15917487   5.825   4.670   1.684  0.0884 -0.8701 -0.0934
   25MOL   H16017488   5.236   4.623   2.847 -0.2298 -1.6573  0.1036
   25MOL   H16117489   5.326   4.568   2.981 -1.5006 -1.5798  0.2172
   25MOL   H16217490   5.327   4.479   2.830 -2.4481 -0.0133 -1.0729
   25MOL   H16317491   5.457   4.759   2.858 -0.7273 -0.6101 -0.9062
   25MOL   H16417492   5.547   4.604   2.858  0.5823  1.7736  1.3888
   25MOL   H16517493   5.370   4.700   2.623 -0.0833 -1.3218 -1.0226
   25MOL   H16617494   5.473   4.558   2.614 -0.6899  0.2227 -1.0952
   25MOL   H16717495   5.594   4.827   2.630  0.2261 -0.1604 -0.3970
   25MOL   H16817496   5.663   4.668   2.637  0.7598  0.5789 -0.3761
   25MOL   H16917497   5.486   4.779   2.409 -1.5131 -1.5139 -1.0884
   25MOL   H17017498   5.551   4.616   2.413 -0.4685  0.6801  0.0943
   25MOL   H17117499   5.781   4.704   2.386 -1.8303 -1.7616 -0.4958
   25MOL   H17217500   5.735   4.868   2.420  1.1821  0.9873 -0.8080
   25MOL   H17317501   5.658   4.693   2.182  0.3661 -0.6508  0.1176
   25MOL   H17417502   5.612   4.863   2.192 -0.3585 -0.3725 -0.1453
   25MOL   H17517503   5.856   4.929   2.200  2.5218 -0.7397  0.1768
   25MOL   H17617504   5.895   4.751   2.183 -0.1647 -0.3614 -0.0588
   25MOL   H17717505   5.675   4.950   1.824 -2.5318 -0.2492  0.4805
   25MOL   H17817506   5.591   4.802   1.861 -1.4471 -0.3521 -0.2502
   25MOL   H17917507   5.599   4.864   1.703 -0.3675 -0.5604  1.2929
   25MOL   H18017508   5.919   4.626   1.715 -0.0759 -1.5584 -0.5564
   25MOL   H18117509   5.841   4.705   1.582  0.1828  0.9928  0.5486
   25MOL   C18217510   5.392   4.072   0.978  0.5164 -0.2761  0.1643
   25MOL   C18317511   5.433   4.185   1.063 -0.4772  0.0288 -0.1096
   25MOL   C18417512   5.494   4.300   0.981  0.3899 -0.0974 -0.3823
   25MOL   C18517513   5.563   4.408   1.067 -0.0926  0.3658 -0.7178
   25MOL   C18617514   5.462   4.475   1.159  0.6314 -0.1572 -0.0321
   25MOL   C18717515   5.534   4.571   1.245 -0.1458 -0.2068  0.4242
   25MOL   C18817516   5.440   4.631   1.349 -0.4716 -0.3914  0.0275
   25MOL   C18917517   5.520   4.733   1.425  0.1826 -0.2132  0.8795
   25MOL   O19017518   5.617   4.663   1.501  0.3807  0.4372  0.1466
   25MOL   C19117519   5.586   4.613   1.628  0.0821 -0.0521  0.1680
   25MOL   O19217520   5.474   4.616   1.679 -0.9791 -0.0783 -0.1648
   25MOL   C19317521   5.717   4.555   1.694  0.6452 -0.1225 -0.5714
   25MOL   C19417522   5.686   4.509   1.841  0.1474  0.1736  0.6862
   25MOL   C19517523   5.778   4.440   1.613 -0.7145 -0.1188 -0.1925
   25MOL   H19617524   5.475   4.037   0.917 -0.1717 -2.2444  0.3013
   25MOL   H19717525   5.344   3.985   1.023 -0.3284 -0.7308 -1.5445
   25MOL   H19817526   5.322   4.107   0.902  0.2323  1.3102  1.1403
   25MOL   H19917527   5.515   4.153   1.127 -1.1614  0.9176  1.2338
   25MOL   H20017528   5.355   4.220   1.131  0.9236  0.2451  1.4130
   25MOL   H20117529   5.571   4.255   0.919  0.7837 -0.4439  0.3460
   25MOL   H20217530   5.415   4.337   0.916 -1.1806 -1.0010  0.9707
   25MOL   H20317531   5.633   4.356   1.132 -1.6719  0.0661  0.8165
   25MOL   H20417532   5.617   4.480   1.006  0.0742  1.3201  0.5216
   25MOL   H20517533   5.414   4.402   1.224 -0.1728 -0.8337 -1.3550
   25MOL   H20617534   5.385   4.525   1.101  0.4827 -0.3993 -0.0465
   25MOL   H20717535   5.592   4.634   1.177 -0.6586 -1.7789 -1.5075
   25MOL   H20817536   5.610   4.518   1.303  1.6810  0.7491 -1.0179
   25MOL   H20917537   5.354   4.690   1.316 -0.9965 -1.7441 -1.0631
   25MOL   H21017538   5.402   4.553   1.414  0.8523 -0.6415  0.5172
   25MOL   H21117539   5.454   4.788   1.492  1.2273  2.1328  0.0233
   25MOL   H21217540   5.574   4.804   1.363  1.0633 -0.6168  1.1708
   25MOL   H21317541   5.780   4.480   1.889  0.5315 -2.6368 -1.6234
   25MOL   H21417542   5.649   4.592   1.900 -1.2172 -0.9137  1.3768
   25MOL   H21517543   5.606   4.435   1.836  1.0455 -0.7586 -0.3072
   25MOL   H21617544   5.766   4.476   1.511  1.0769 -0.8532 -0.6868
   25MOL   H21717545   5.885   4.430   1.632 -0.5656 -0.0862 -1.0042
   25MOL   C21817546   5.163   4.591   2.228  0.3421  0.2698  0.0952
   25MOL   C21917547   5.161   4.441   2.224  0.6480  0.1664 -0.5428
   25MOL   C22017548   5.309   4.392   2.218  0.3581  0.7277 -0.5551
   25MOL   C22117549   5.335   4.240   2.196 -0.0789 -0.1084 -0.1910
   25MOL   C22217550   5.283   4.187   2.057 -0.3722 -0.4602 -0.0864
   25MOL   C22317551   5.382   4.205   1.936 -1.0768  0.0762  0.4155
   25MOL   C22417552   5.319   4.163   1.800  0.0980  0.2348  0.3442
   25MOL   C22517553   5.375   4.242   1.679  0.0731  0.4000 -0.0959
   25MOL   O22617554   5.519   4.245   1.683 -0.3322  0.0756  0.4129
   25MOL   C22717555   5.593   4.281   1.577  0.2987  0.9801  0.1068
   25MOL   O22817556   5.549   4.321   1.473  0.2221 -0.3732  0.2783
   25MOL   C22917557   5.740   4.287   1.610 -0.1442 -0.2134 -0.4529
   25MOL   C23017558   5.774   4.222   1.753 -0.0081  0.3497 -0.1351
   25MOL   C23117559   5.814   4.220   1.489  0.1427  0.4279  0.6022
   25MOL   H23217560   5.066   4.618   2.271  0.2035 -0.5194  0.2737
   25MOL   H23317561   5.169   4.634   2.128  0.5850 -0.2838 -0.1298
   25MOL   H23417562   5.240   4.635   2.291 -0.0238 -0.4984  1.0799
   25MOL   H23517563   5.100   4.402   2.143 -1.4212  1.2161  0.4839
   25MOL   H23617564   5.129   4.405   2.322  0.2042  2.9775  0.3678
   25MOL   H23717565   5.351   4.448   2.134 -0.8692  1.0106 -0.9952
   25MOL   H23817566   5.362   4.436   2.302  1.7972 -2.6832  0.3727
   25MOL   H23917567   5.443   4.226   2.203  0.1127  2.0401  2.0211
   25MOL   H24017568   5.284   4.179   2.271  1.6952 -2.0598 -0.5298
   25MOL   H24117569   5.253   4.082   2.058  1.6532 -1.0582 -0.5231
   25MOL   H24217570   5.182   4.226   2.048 -0.4221 -0.7359 -0.7420
   25MOL   H24317571   5.409   4.310   1.940 -1.8561  0.2591  1.1450
   25MOL   H24417572   5.469   4.142   1.953  1.4309  3.0844 -0.9099
   25MOL   H24517573   5.213   4.186   1.791  0.1463  0.1972 -0.3111
   25MOL   H24617574   5.332   4.055   1.793  1.0056  0.4425 -1.5109
   25MOL   H24717575   5.354   4.348   1.698 -0.2258  0.0302  1.7747
   25MOL   H24817576   5.329   4.211   1.585  0.5888 -2.0920  0.4566
   25MOL   H24917577   5.877   4.230   1.786 -0.1069 -1.2335  0.5981
   25MOL   H25017578   5.762   4.113   1.747  2.4219  0.0424  0.0581
   25MOL   H25117579   5.714   4.246   1.840 -0.6138 -0.3851 -0.3424
   25MOL   H25217580   5.783   4.279   1.402 -0.1648  1.8600  1.6677
   25MOL   H25317581   5.915   4.259   1.490  0.4284 -0.3114  1.8214
   25MOL   C25417582   4.970   4.413   1.459  0.3477 -0.1825  0.0377
   25MOL   C25517583   4.901   4.280   1.496 -0.0105 -0.7126  0.5870
   25MOL   C25617584   4.988   4.159   1.491  0.1800  0.4809 -0.3105
   25MOL   C25717585   5.074   4.141   1.367 -1.2490 -0.7181  0.6322
   25MOL   C25817586   5.098   3.997   1.329 -0.1728  0.3294  0.1657
   25MOL   C25917587   5.210   3.934   1.411  0.7576  1.0145  0.1582
   25MOL   C26017588   5.353   3.986   1.386  0.1244 -0.3999  0.3607
   25MOL   C26117589   5.468   3.934   1.476 -0.1141  0.0355 -0.1914
   25MOL   O26217590   5.585   3.984   1.424  0.7139 -0.0211  0.6059
   25MOL   C26317591   5.695   3.981   1.504 -0.9976 -0.6357 -0.5767
   25MOL   O26417592   5.699   3.907   1.606 -0.3714 -0.1030  0.0608
   25MOL   C26517593   5.816   4.069   1.460 -0.3002  0.2322 -0.1892
   25MOL   C26617594   5.941   4.008   1.531 -0.5169 -0.4826  0.3525
   25MOL   C26717595   5.835   4.067   1.300  0.3049  0.4026 -0.3870
   25MOL   H26817596   4.905   4.497   1.483 -1.1218 -1.0593 -0.7789
   25MOL   H26917597   5.055   4.424   1.526  0.1382 -0.7466  0.4013
   25MOL   H27017598   5.000   4.417   1.355  1.8323  0.8341  0.4803
   25MOL   H27117599   4.859   4.288   1.596  1.2594 -0.7407  1.1266
   25MOL   H27217600   4.813   4.274   1.432  0.5031 -1.1565 -0.0934
   25MOL   H27317601   4.928   4.070   1.508  2.2317 -1.2334 -1.6705
   25MOL   H27417602   5.054   4.170   1.577 -1.4296 -0.6121  1.1012
   25MOL   H27517603   5.163   4.200   1.390 -0.3890 -1.1375 -1.5642
   25MOL   H27617604   5.023   4.185   1.282  0.7228  0.4356  0.0256
   25MOL   H27717605   5.008   3.937   1.342  0.1611 -0.5816 -1.6817
   25MOL   H27817606   5.124   3.987   1.224 -2.8305  2.5072 -0.7619
   25MOL   H27917607   5.200   3.833   1.373  0.1746  0.6280  1.3194
   25MOL   H28017608   5.200   3.921   1.519  0.2114 -0.2164 -0.0312
   25MOL   H28117609   5.377   3.962   1.283  2.9593  1.5701  0.4826
   25MOL   H28217610   5.360   4.095   1.393  1.2548 -0.4717  0.4219
   25MOL   H28317611   5.455   3.975   1.576 -0.6358 -0.2272 -0.1530
   25MOL   H28417612   5.467   3.825   1.485 -2.2178  0.2163  2.0083
   25MOL   H28517613   5.955   3.901   1.516 -1.8557 -0.8574  1.6472
   25MOL   H28617614   6.036   4.050   1.499 -1.0814 -1.0256 -2.1904
   25MOL   H28717615   5.936   4.012   1.640 -3.1081 -1.7687  0.3343
   25MOL   H28817616   5.909   4.145   1.280 -0.9296  1.5114 -0.6942
   25MOL   H28917617   5.743   4.102   1.254  0.3195  3.4818  1.7696
   25MOL   C29017618   5.638   3.266   1.334 -0.5244 -0.6940 -0.3838
   25MOL   C29117619   5.789   3.244   1.334 -0.3358  0.0207  0.2631
   25MOL   C29217620   5.850   3.368   1.272 -0.3663 -0.8437  0.1036
   25MOL   C29317621   6.003   3.359   1.238 -0.4521 -0.4272 -0.5324
   25MOL   C29417622   6.059   3.501   1.203  0.2306 -1.1080  0.0119
   25MOL   C29517623   6.206   3.517   1.247 -0.2102  1.1048 -0.8714
   25MOL   C29617624   6.266   3.656   1.207 -0.3670 -0.3876  0.0599
   25MOL   C29717625   6.222   3.772   1.291  0.1337 -0.3229 -0.4212
   25MOL   O29817626   6.088   3.800   1.257  0.1941 -0.0116 -0.5523
   25MOL   C29917627   6.048   3.929   1.242  0.5048  0.5074 -0.0922
   25MOL   O30017628   6.128   4.023   1.241 -0.3281  0.1499 -0.4103
   25MOL   C30117629   5.895   3.943   1.223  0.0552 -0.2456  0.5306
   25MOL   C30217630   5.828   3.807   1.268  1.0956  0.5334 -0.0289
   25MOL   C30317631   5.868   3.992   1.075  0.2080  0.2244  0.0944
   25MOL   H30417632   5.576   3.178   1.349 -1.5650  0.4794  2.5030
   25MOL   H30517633   5.608   3.301   1.235  2.2670  1.4231 -0.5357
   25MOL   H30617634   5.594   3.344   1.396 -2.1047 -1.6103 -0.3277
   25MOL   H30717635   5.813   3.156   1.276  0.7168  1.1396 -1.0201
   25MOL   H30817636   5.829   3.227   1.434  0.3039  1.8040  0.3297
   25MOL   H30917637   5.830   3.452   1.339 -0.7895 -0.6462 -0.2627
   25MOL   H31017638   5.800   3.400   1.181  0.4507 -1.3990 -0.5433
   25MOL   H31117639   6.045   3.321   1.331  0.3082  0.6579 -0.4154
   25MOL   H31217640   6.034   3.302   1.151 -0.7650  1.1866 -1.7425
   25MOL   H31317641   6.029   3.521   1.100  1.2705  0.2439 -0.0388
   25MOL   H31417642   6.005   3.579   1.255  0.9915  0.8474 -2.0060
   25MOL   H31517643   6.269   3.442   1.200  1.0057  1.7564 -0.2938
   25MOL   H31617644   6.209   3.498   1.354 -3.7665  1.6911 -0.5870
   25MOL   H31717645   6.234   3.675   1.104 -0.2626 -1.0048 -0.0943
   25MOL   H31817646   6.374   3.652   1.205 -0.3937 -1.8443  1.0514
   25MOL   H31917647   6.291   3.854   1.272  1.7476 -1.5551 -0.0780
   25MOL   H32017648   6.231   3.757   1.399  0.2752  2.0806 -0.0693
   25MOL   H32117649   5.846   3.780   1.372  0.5466 -0.2159 -0.1230
   25MOL   H32217650   5.856   3.728   1.198 -0.3925  0.3981 -0.4906
   25MOL   H32317651   5.721   3.823   1.285  1.1658 -0.6598  1.6257
   25MOL   H32417652   5.759   3.997   1.065 -0.0723 -1.4312  2.1301
   25MOL   H32517653   5.902   4.095   1.062 -0.3660  0.3161 -0.7890
   25MOL   C32617654   5.248   3.885   0.141  0.4198  0.1746  0.0168
   25MOL   C32717655   5.276   3.922   0.285  0.1604  0.3680  0.1798
   25MOL   C32817656   5.354   3.813   0.358  0.1151 -0.2822 -0.5897
   25MOL   C32917657   5.377   3.844   0.509  0.2936  0.3134  0.0674
   25MOL   C33017658   5.465   3.736   0.568 -0.2955 -0.0361 -0.3662
   25MOL   C33117659   5.493   3.767   0.715  0.1619 -0.3016  0.7420
   25MOL   C33217660   5.603   3.668   0.766 -0.3474  0.1887 -0.2610
   25MOL   C33317661   5.635   3.670   0.916  0.1255 -0.3558  0.2570
   25MOL   O33417662   5.717   3.782   0.939  0.4748  0.0308  0.4008
   25MOL   C33517663   5.852   3.779   0.933  0.2813 -0.3403 -1.0587
   25MOL   O33617664   5.927   3.680   0.943 -0.2350 -0.0745  0.9555
   25MOL   C33717665   5.917   3.919   0.945 -0.3992 -0.5780 -0.0333
   25MOL   C33817666   5.849   3.991   0.823  0.1678 -0.2285  0.2429
   25MOL   C33917667   6.078   3.919   0.934 -0.2357  0.2443 -0.4250
   25MOL   H34017668   5.201   3.786   0.145  1.5507 -0.4445 -1.4152
   25MOL   H34117669   5.345   3.866   0.094  0.1832  1.5610 -1.0658
   25MOL   H34217670   5.177   3.951   0.092  1.7039  1.2568 -0.4165
   25MOL   H34317671   5.179   3.945   0.330  0.0364  1.6339 -0.6952
   25MOL   H34417672   5.317   4.021   0.305  2.7594 -1.0045  1.9099
   25MOL   H34517673   5.451   3.792   0.312  0.3610  0.1965 -0.2920
   25MOL   H34617674   5.305   3.716   0.351  2.6109 -1.4736 -2.6817
   25MOL   H34717675   5.282   3.838   0.561  0.8811 -0.7220  1.0429
   25MOL   H34817676   5.417   3.945   0.522  1.5040 -0.2135  0.4488
   25MOL   H34917677   5.428   3.634   0.561 -1.1028  0.2101  0.1117
   25MOL   H35017678   5.561   3.738   0.517 -0.2465  1.9333 -0.2602
   25MOL   H35117679   5.517   3.872   0.730 -1.6388  0.1726  0.3767
   25MOL   H35217680   5.403   3.750   0.773 -0.1247  0.0675  0.4108
   25MOL   H35317681   5.693   3.684   0.707  0.1332 -0.4640  0.2805
   25MOL   H35417682   5.570   3.567   0.743  1.5039  0.1139 -2.7896
   25MOL   H35517683   5.537   3.665   0.964  0.5651  0.2312  1.2150
   25MOL   H35617684   5.688   3.580   0.946  0.3603  0.0559  1.0747
   25MOL   H35717685   5.839   3.924   0.737  1.8724 -2.0747  1.4146
   25MOL   H35817686   5.750   4.032   0.842 -0.2175 -1.2300  0.4105
   25MOL   H35917687   5.912   4.074   0.792  0.7162 -1.0785 -0.9463
   25MOL   H36017688   6.115   4.011   0.978 -0.9124  1.0403 -1.5054
   25MOL   H36117689   6.106   3.850   1.014 -0.6278 -0.1795 -0.6518
   25MOL   C36217690   6.519   2.678   0.784 -0.0459 -0.3118 -0.1028
   25MOL   C36317691   6.501   2.806   0.711  0.0512 -0.7888 -0.4786
   25MOL   C36417692   6.470   2.927   0.804  0.7337 -0.6910 -0.2740
   25MOL   C36517693   6.408   3.046   0.730  0.2639 -0.7818  0.2497
   25MOL   C36617694   6.353   3.167   0.819  0.2470 -0.2853 -0.4202
   25MOL   C36717695   6.267   3.271   0.752 -0.1307  0.2471 -0.2713
   25MOL   C36817696   6.282   3.407   0.809 -0.1765 -0.6039 -0.1967
   25MOL   C36917697   6.173   3.502   0.770  0.1438  0.3689  0.0005
   25MOL   O37017698   6.203   3.642   0.801 -0.2898  0.1605 -0.0232
   25MOL   C37117699   6.135   3.747   0.746 -0.0796  0.2258 -0.0564
   25MOL   O37217700   6.066   3.732   0.646 -0.0395  0.7670 -0.0082
   25MOL   C37317701   6.161   3.887   0.804  0.2939  0.0592  0.2658
   25MOL   C37417702   6.312   3.882   0.848 -1.2330 -0.2154 -0.0195
   25MOL   C37517703   6.138   4.002   0.697 -0.0969  0.5817  0.8073
   25MOL   H37617704   6.545   2.602   0.710  1.3607  2.5336 -2.6043
   25MOL   H37717705   6.607   2.695   0.846  0.3696 -0.1699 -0.7219
   25MOL   H37817706   6.428   2.657   0.840  0.5580  1.0687  1.4304
   25MOL   H37917707   6.420   2.792   0.639 -1.6239 -1.0235  1.4256
   25MOL   H38017708   6.585   2.828   0.644 -0.3117  0.8536 -0.4073
   25MOL   H38117709   6.567   2.947   0.849  1.4989  0.2420 -2.2736
   25MOL   H38217710   6.405   2.896   0.885 -1.6512 -2.7744 -2.8968
   25MOL   H38317711   6.309   3.012   0.698 -0.5101  1.7076 -0.1490
   25MOL   H38417712   6.467   3.080   0.645 -0.7573 -0.2559 -0.2585
   25MOL   H38517713   6.289   3.129   0.898  0.8601 -0.2008  0.1188
   25MOL   H38617714   6.446   3.210   0.856 -0.2447 -2.3179  3.4547
   25MOL   H38717715   6.162   3.243   0.739 -0.5025  0.4470  2.1869
   25MOL   H38817716   6.306   3.268   0.650  0.7423 -0.1481  0.0712
   25MOL   H38917717   6.380   3.441   0.775 -0.6312  1.1056  0.1460
   25MOL   H39017718   6.283   3.389   0.917  1.1614 -2.4903 -0.4866
   25MOL   H39117719   6.154   3.492   0.663  1.3883  0.7176 -0.2622
   25MOL   H39217720   6.076   3.476   0.813  0.3184 -1.0452 -0.4193
   25MOL   H39317721   6.333   3.806   0.924  0.6842  1.4110  1.1473
   25MOL   H39417722   6.383   3.848   0.773 -0.6346 -0.3228  0.5925
   25MOL   H39517723   6.355   3.978   0.876  1.2799 -1.2017 -0.3978
   25MOL   H39617724   6.046   3.973   0.647 -0.7226  2.3703  0.8868
   25MOL   H39717725   6.112   4.093   0.751 -1.6563  0.2106  0.6846
   25MOL   C39817726   6.751   3.834   1.060  0.5072  0.3395  0.3698
   25MOL   C39917727   6.618   3.907   1.053 -0.3051  0.1518  0.0776
   25MOL   C40017728   6.590   4.006   1.167  0.0650  0.3957  0.0762
   25MOL   C40117729   6.448   4.060   1.142  0.7447  0.5355  0.3623
   25MOL   C40217730   6.454   4.182   1.041  0.3789 -0.3724  0.1290
   25MOL   C40317731   6.321   4.250   1.009 -0.3894  0.0054 -0.5690
   25MOL   C40417732   6.340   4.361   0.902 -0.3747  0.6986  0.9052
   25MOL   C40517733   6.401   4.323   0.765 -0.1368  0.2106 -0.3815
   25MOL   O40617734   6.307   4.233   0.702  0.0862  0.2360 -0.1522
   25MOL   C40717735   6.345   4.122   0.649 -0.4010  0.8296 -0.6894
   25MOL   O40817736   6.459   4.089   0.635 -0.0881 -0.4098 -0.5798
   25MOL   C40917737   6.237   4.043   0.579  0.4220  0.0891 -1.2540
   25MOL   C41017738   6.294   3.923   0.490 -0.6870 -0.8997 -0.0606
   25MOL   C41117739   6.153   4.141   0.484  0.0957 -0.8741 -0.4551
   25MOL   H41217740   6.766   3.771   1.148  2.0392  1.0268  0.6273
   25MOL   H41317741   6.825   3.914   1.065 -0.4185  1.2966 -0.8724
   25MOL   H41417742   6.775   3.766   0.978 -0.3972  0.5058 -0.0367
   25MOL   H41517743   6.542   3.832   1.033 -1.1219  0.5454  1.6278
   25MOL   H41617744   6.615   3.966   0.961 -1.8564 -2.0857 -1.3465
   25MOL   H41717745   6.604   3.952   1.261 -0.6859  3.1597  1.8349
   25MOL   H41817746   6.665   4.085   1.161 -0.8237  1.1010 -2.1228
   25MOL   H41917747   6.395   4.091   1.232 -1.3445 -0.4083 -0.5260
   25MOL   H42017748   6.373   3.985   1.117  1.1836 -0.4786  2.0382
   25MOL   H42117749   6.515   4.258   1.089 -0.3265  1.0931 -1.2571
   25MOL   H42217750   6.490   4.135   0.949  0.1274  0.6838 -0.5192
   25MOL   H42317751   6.289   4.304   1.098  1.6268 -0.1259  0.2554
   25MOL   H42417752   6.245   4.177   0.980 -0.2026 -1.0122  1.4056
   25MOL   H42517753   6.246   4.413   0.882 -0.8607 -0.9144 -1.2571
   25MOL   H42617754   6.411   4.431   0.946  0.1269  0.9175 -0.2481
   25MOL   H42717755   6.407   4.411   0.701 -1.4085 -0.6676 -1.7555
   25MOL   H42817756   6.499   4.276   0.775  0.6686  2.4514  2.9114
   25MOL   H42917757   6.325   3.838   0.550 -0.6302 -0.8267  0.0134
   25MOL   H43017758   6.375   3.957   0.424 -0.7786  1.7771  1.1224
   25MOL   H43117759   6.220   3.896   0.414  1.4710 -0.1114 -2.5359
   25MOL   H43217760   6.096   4.209   0.548 -1.2229 -1.6004 -0.8249
   25MOL   H43317761   6.068   4.085   0.442 -1.5066  1.0006  0.2163
   25MOL   C43417762   6.470   3.115   0.064  0.1456 -0.3574 -0.3762
   25MOL   C43517763   6.452   3.248   0.140  0.4060  0.4342  0.2416
   25MOL   C43617764   6.357   3.350   0.076 -0.5392  0.7081 -0.4119
   25MOL   C43717765   6.372   3.490   0.143 -0.1861  0.2913 -0.0115
   25MOL   C43817766   6.271   3.601   0.111 -0.7033  0.1940  0.1572
   25MOL   C43917767   6.326   3.747   0.124  1.0019 -0.0889  0.2688
   25MOL   C44017768   6.229   3.852   0.069 -0.2510  0.4729 -0.2660
   25MOL   C44117769   6.277   4.000   0.070 -0.4754 -0.0892  0.1060
   25MOL   O44217770   6.287   4.054   0.205  0.3153 -0.3331  0.2376
   25MOL   C44317771   6.187   4.143   0.239  0.8869 -0.3900  0.3779
   25MOL   O44417772   6.085   4.156   0.172 -0.3516 -0.0020  0.1775
   25MOL   C44517773   6.212   4.228   0.368 -0.1721 -0.6752  0.3754
   25MOL   C44617774   6.369   4.260   0.378 -0.0032  0.5606 -0.1390
   25MOL   C44717775   6.144   4.369   0.356  0.3936 -0.2238 -0.1017
   25MOL   H44817776   6.457   3.135   7.737  0.8096 -1.2689 -0.6289
   25MOL   H44917777   6.396   3.043   0.099  2.1027 -2.3673 -0.2450
   25MOL   H45017778   6.562   3.058   0.080 -0.3751 -1.1172 -0.0635
   25MOL   H45117779   6.545   3.304   0.154  0.4360  0.4209  0.0915
   25MOL   H45217780   6.431   3.229   0.245  0.1253 -1.8232 -0.2077
   25MOL   H45317781   6.257   3.305   0.076 -0.3883  0.3539 -2.2606
   25MOL   H45417782   6.372   3.366   7.749 -1.3880 -1.5894 -0.9017
   25MOL   H45517783   6.475   3.524   0.126 -0.7231  1.9595 -0.0215
   25MOL   H45617784   6.363   3.474   0.250 -1.8817 -2.5579 -0.5399
   25MOL   H45717785   6.229   3.595   0.011  0.2252 -1.5039 -0.1431
   25MOL   H45817786   6.180   3.583   0.168 -0.3131 -0.8895  0.4396
   25MOL   H45917787   6.423   3.767   0.077  1.5267 -2.2078  0.3685
   25MOL   H46017788   6.337   3.764   0.231  0.1026  0.0782  0.3323
   25MOL   H46117789   6.225   3.826   7.743  1.7238  2.5328 -0.8874
   25MOL   H46217790   6.126   3.853   0.105 -0.5285  0.3375 -1.0518
   25MOL   H46317791   6.212   4.069   0.017  1.0327 -1.2583 -3.4283
   25MOL   H46417792   6.370   4.016   0.015  0.1356  0.5013  1.2854
   25MOL   H46517793   6.410   4.290   0.282 -1.4515  0.3478 -0.8405
   25MOL   H46617794   6.387   4.334   0.456 -2.4464 -0.0992  1.1296
   25MOL   H46717795   6.437   4.179   0.402  1.2532  1.8272  0.6508
   25MOL   H46817796   6.044   4.351   0.318  1.8169 -0.3769 -4.0154
   25MOL   H46917797   6.120   4.397   0.458  1.9134 -0.1390  0.2482
   25MOL   C47017798   6.816   4.951   1.160 -0.5602  0.1524 -0.4357
   25MOL   C47117799   6.684   4.999   1.093  0.2110  0.0927  0.4395
   25MOL   C47217800   6.609   4.882   1.031  0.1115  0.1168 -0.3570
   25MOL   C47317801   6.471   4.922   0.985 -0.1080 -0.2057 -0.7235
   25MOL   C47417802   6.401   4.812   0.904 -0.0313 -0.5823  0.1898
   25MOL   C47517803   6.442   4.800   0.755 -0.2589 -0.2770  0.1044
   25MOL   C47617804   6.336   4.715   0.685 -0.0809 -0.4801  0.1338
   25MOL   C47717805   6.387   4.688   0.546 -0.1626  0.3242 -0.1481
   25MOL   O47817806   6.292   4.597   0.479  0.5957  0.6381 -0.5515
   25MOL   C47917807   6.313   4.571   0.344 -0.8847  0.4915 -0.2350
   25MOL   O48017808   6.409   4.616   0.285  0.0132 -0.1487 -0.1497
   25MOL   C48117809   6.198   4.496   0.279  0.5495  0.1677  0.3522
   25MOL   C48217810   6.241   4.463   0.128  0.3327  0.2725 -0.4139
   25MOL   C48317811   6.075   4.596   0.285  0.2717 -0.3254  0.3248
   25MOL   H48417812   6.879   4.911   1.080  1.3192 -0.5328  1.3547
   25MOL   H48517813   6.808   4.877   1.240  0.9258  0.1137 -0.3109
   25MOL   H48617814   6.862   5.043   1.195 -0.0789  0.9410 -3.0189
   25MOL   H48717815   6.634   5.050   1.175  1.9157 -0.3956  1.8406
   25MOL   H48817816   6.715   5.072   1.019  2.6489 -1.2144  0.0957
   25MOL   H48917817   6.660   4.837   0.945  0.2996  0.0335 -0.2002
   25MOL   H49017818   6.590   4.795   1.092  0.8721 -0.0908 -0.4069
   25MOL   H49117819   6.407   4.949   1.069  1.4993 -0.6577  0.6727
   25MOL   H49217820   6.475   5.022   0.942  0.5040  0.5354  1.0063
   25MOL   H49317821   6.396   4.710   0.943 -1.2048 -0.2149  1.0082
   25MOL   H49417822   6.300   4.850   0.916  0.4411  1.0249 -0.8411
   25MOL   H49517823   6.430   4.893   0.700  1.3414 -1.7363 -2.8519
   25MOL   H49617824   6.543   4.760   0.752  1.0791  3.0708 -1.1058
   25MOL   H49717825   6.327   4.624   0.744  0.9968 -0.9604 -0.4155
   25MOL   H49817826   6.243   4.769   0.672  0.3471  0.0496 -0.8075
   25MOL   H49917827   6.479   4.628   0.545 -0.4499 -0.2101  2.1101
   25MOL   H50017828   6.399   4.780   0.489  1.1905  0.0189 -0.3833
   25MOL   H50117829   6.279   4.551   0.077 -0.9226 -0.3773 -2.5179
   25MOL   H50217830   6.160   4.443   0.058 -0.1124  0.6464 -0.0118
   25MOL   H50317831   6.295   4.370   0.109 -1.0415 -0.1558 -2.3817
   25MOL   H50417832   6.001   4.547   0.223  1.2670  0.5763 -1.6264
   25MOL   H50517833   6.035   4.589   0.387 -3.1520  2.0531 -0.7575
   25MOL   C50617834   6.082   3.954   7.479  0.0641  0.4287  0.6468
   25MOL   C50717835   5.977   4.063   7.468  0.1584  0.4395 -0.1080
   25MOL   C50817836   5.960   4.127   7.604 -0.2214  0.3673 -0.2523
   25MOL   C50917837   5.868   4.253   7.601 -0.3093  0.8644 -0.4788
   25MOL   C51017838   5.935   4.380   7.563  0.3345  0.4537 -0.5843
   25MOL   C51117839   5.863   4.504   7.614  0.5011  0.6316  0.4633
   25MOL   C51217840   5.931   4.627   7.562 -0.4407  0.0541  0.0440
   25MOL   C51317841   6.051   4.685   7.635  0.0422  0.1877  0.6943
   25MOL   O51417842   6.007   4.706   7.769  0.2871 -0.1653 -0.1307
   25MOL   C51517843   6.091   4.763   0.082 -0.5093  0.5026 -0.3539
   25MOL   O51617844   6.195   4.819   0.057 -0.1541  0.0895 -0.3895
   25MOL   C51717845   6.058   4.746   0.232  0.2800  0.1247 -0.2859
   25MOL   C51817846   5.906   4.777   0.247  0.2141 -0.1208 -0.0916
   25MOL   C51917847   6.140   4.846   0.332  0.3383  0.2355 -0.6826
   25MOL   H52017848   6.101   3.899   7.387  2.7981 -0.1924  1.5319
   25MOL   H52117849   6.056   3.878   7.553 -4.0411  1.7361  0.6851
   25MOL   H52217850   6.181   3.987   7.510  0.6046 -1.2482  0.7165
   25MOL   H52317851   5.880   4.030   7.432 -0.7679  1.0194  1.7772
   25MOL   H52417852   6.020   4.135   7.398 -1.0675  1.2602 -0.0263
   25MOL   H52517853   5.919   4.054   7.674  1.2643  0.1771  0.4258
   25MOL   H52617854   6.061   4.146   7.639 -0.7750  1.0862  0.9980
   25MOL   H52717855   5.779   4.233   7.542 -0.8035  2.0981 -0.1630
   25MOL   H52817856   5.826   4.253   7.702 -3.0425  0.8098 -1.5755
   25MOL   H52917857   6.037   4.372   7.602  0.2849 -3.7087 -1.0298
   25MOL   H53017858   5.947   4.385   7.455  1.7785  0.2070 -0.4540
   25MOL   H53117859   5.863   4.501   7.723 -1.3537  1.1829  0.5058
   25MOL   H53217860   5.760   4.501   7.577  0.3784  0.5160  0.8048
   25MOL   H53317861   5.858   4.707   7.567  0.2885  0.6579  1.1493
   25MOL   H53417862   5.951   4.622   7.455  0.5660 -0.5250  0.2535
   25MOL   H53517863   6.080   4.775   7.582 -1.3179  0.1330 -0.1612
   25MOL   H53617864   6.138   4.619   7.638  1.3614  1.9255  2.1376
   25MOL   H53717865   5.836   4.707   0.202 -0.4240 -0.7606  1.8706
   25MOL   H53817866   5.881   4.875   0.206  0.3092  0.4900  1.2781
   25MOL   H53917867   5.895   4.779   0.355  2.1326 -0.4194  0.1267
   25MOL   H54017868   6.124   4.809   0.433 -3.2852  0.9449 -0.9246
   25MOL   H54117869   6.248   4.842   0.315  0.5929  0.0581  0.9214
   25MOL   C54217870   6.011   4.431   1.230 -0.0021  0.2202 -0.4951
   25MOL   C54317871   6.048   4.539   1.124  0.0849 -0.4351 -0.1318
   25MOL   C54417872   5.927   4.562   1.023  0.0230 -0.3765 -0.0058
   25MOL   C54517873   5.965   4.663   0.913  0.8712  0.3670  0.2325
   25MOL   C54617874   5.848   4.713   0.829 -0.1527 -0.0190  0.0257
   25MOL   C54717875   5.893   4.811   0.719  0.2585 -0.4939 -0.4292
   25MOL   C54817876   5.780   4.884   0.646 -0.4254 -0.1083  0.5369
   25MOL   C54917877   5.831   5.010   0.586  0.3239 -0.4425  0.1784
   25MOL   O55017878   5.952   4.979   0.520  0.1433  0.1262 -0.0016
   25MOL   C55117879   5.972   5.030   0.405  0.6954  0.5810 -0.3315
   25MOL   O55217880   5.885   5.097   0.346 -0.3019 -0.4075  0.1127
   25MOL   C55317881   6.111   4.997   0.341 -1.1576 -0.3573 -0.1481
   25MOL   C55417882   6.113   5.060   0.199  0.2375  0.0575 -0.3174
   25MOL   C55517883   6.225   5.043   0.434  0.0458  0.1723  0.2285
   25MOL   H55617884   6.042   4.340   1.178  2.0136  1.4259 -1.4676
   25MOL   H55717885   5.904   4.429   1.250  0.0105 -0.8393 -0.4964
   25MOL   H55817886   6.054   4.432   1.330  0.8305  1.4290 -0.8542
   25MOL   H55917887   6.064   4.632   1.180  0.5575  0.0102 -0.9994
   25MOL   H56017888   6.141   4.521   1.070 -1.5009 -0.9888 -2.7173
   25MOL   H56117889   5.839   4.597   1.077  0.7841  0.6850  0.5661
   25MOL   H56217890   5.897   4.471   0.972 -2.0996 -1.3726  2.9518
   25MOL   H56317891   6.014   4.745   0.967  0.8290  0.4864  0.0905
   25MOL   H56417892   6.042   4.616   0.852 -2.1033 -2.1991 -1.6151
   25MOL   H56517893   5.776   4.760   0.895  0.7678  0.8694  0.4037
   25MOL   H56617894   5.802   4.632   0.772 -0.2080 -0.8795  1.2600
   25MOL   H56717895   5.948   4.885   0.778  0.9453 -1.7337  0.5173
   25MOL   H56817896   5.958   4.757   0.651  0.8712 -1.3939  0.8579
   25MOL   H56917897   5.734   4.814   0.577 -0.7091 -1.3452  1.9582
   25MOL   H57017898   5.700   4.907   0.716 -1.2606  3.0371 -1.3283
   25MOL   H57117899   5.860   5.083   0.662  0.0699 -0.1725  0.0198
   25MOL   H57217900   5.750   5.057   0.531 -0.1786 -1.7802 -0.2293
   25MOL   H57317901   6.043   5.025   0.123 -1.0116  1.2487  0.2567
   25MOL   H57417902   6.215   5.061   0.163  0.2190  4.1226 -0.4858
   25MOL   H57517903   6.091   5.167   0.203  1.0059  0.1433  3.4942
   25MOL   H57617904   6.318   4.994   0.406  1.0282  0.6808  2.5378
   25MOL   H57717905   6.216   4.994   0.531 -2.8898 -1.0241 -0.5733
   25MOL   C57817906   6.316   4.660   7.346  0.2121  0.5256 -0.2797
   25MOL   C57917907   6.424   4.762   7.369  0.6025  0.0609 -0.2873
   25MOL   C58017908   6.368   4.899   7.425 -0.2050  0.2471  0.1591
   25MOL   C58117909   6.420   4.943   7.566 -0.0133  0.0120 -0.0176
   25MOL   C58217910   6.372   5.074   7.613  0.5494  0.5375 -0.5915
   25MOL   C58317911   6.436   5.093   7.753  0.1325 -0.4844 -0.3343
   25MOL   C58417912   6.442   5.239   0.028  1.2213 -0.8984  0.8111
   25MOL   C58517913   6.497   5.246   0.172  0.0554 -0.1687  0.1473
   25MOL   O58617914   6.411   5.188   0.273 -0.6745 -0.2158  0.3085
   25MOL   C58717915   6.313   5.259   0.331 -0.1165 -0.1840 -0.2253
   25MOL   O58817916   6.260   5.365   0.296  0.1629 -0.1978  0.7068
   25MOL   C58917917   6.262   5.194   0.464  0.6399 -0.4507  0.3283
   25MOL   C59017918   6.378   5.184   0.570  0.3102  0.0584  0.3625
   25MOL   C59117919   6.139   5.270   0.527  0.6658  0.4409  0.7008
   25MOL   H59217920   6.349   4.577   7.284 -1.2472  0.9279 -1.6169
   25MOL   H59317921   6.227   4.704   7.302 -1.0417 -1.8513 -0.1874
   25MOL   H59417922   6.279   4.625   7.443 -0.5621 -3.6935 -1.9797
   25MOL   H59517923   6.457   4.779   7.266  0.6624 -0.3085 -0.3278
   25MOL   H59617924   6.511   4.725   7.423  0.7478  0.6843 -0.0862
   25MOL   H59717925   6.266   4.878   7.459 -0.9728 -2.8544 -3.6901
   25MOL   H59817926   6.361   4.979   7.350  1.0581  0.8267  0.6436
   25MOL   H59917927   6.529   4.947   7.553 -0.0695  0.8165 -0.3014
   25MOL   H60017928   6.392   4.871   7.642 -1.4760  0.4753 -0.1061
   25MOL   H60117929   6.267   5.059   7.638  0.9520  0.8107  1.3896
   25MOL   H60217930   6.385   5.153   7.539  1.7748  0.2156 -0.7409
   25MOL   H60317931   6.542   5.068   7.756  0.3407  0.5336  1.1424
   25MOL   H60417932   6.380   5.027   0.039  1.5657 -0.5270  0.8652
   25MOL   H60517933   6.341   5.277   0.042  2.4293  2.5849  0.6320
   25MOL   H60617934   6.494   5.309   7.743  0.1751  0.0459  0.9758
   25MOL   H60717935   6.604   5.228   0.174  0.1235  0.2971  1.2672
   25MOL   H60817936   6.489   5.351   0.202  1.7804 -0.8185  3.0740
   25MOL   H60917937   6.419   5.280   0.600  1.8511 -1.2411  2.5702
   25MOL   H61017938   6.347   5.144   0.667  0.3487 -0.9973 -0.0513
   25MOL   H61117939   6.454   5.113   0.535  1.1318  1.6901 -1.2102
   25MOL   H61217940   6.093   5.188   0.583  3.0040 -0.7988  0.8472
   25MOL   H61317941   6.070   5.286   0.444 -0.2043  0.7605  1.4800
   25MOL   C61417942   5.664   5.081   1.398  0.2184  0.5449  0.2550
   25MOL   C61517943   5.802   5.133   1.348 -0.1273  0.3179 -0.6864
   25MOL   C61617944   5.877   5.015   1.284  0.5327  0.9854  0.1972
   25MOL   C61717945   5.836   4.965   1.141 -0.2269 -0.2780  0.2316
   25MOL   C61817946   5.805   5.072   1.036 -0.1776  0.5802  0.5783
   25MOL   C61917947   5.927   5.165   1.010 -0.1984  0.0881  0.0268
   25MOL   C62017948   6.057   5.093   0.987  0.7213 -0.1265 -0.0818
   25MOL   C62117949   6.167   5.189   0.936 -0.2804  0.4244 -0.5404
   25MOL   O62217950   6.137   5.253   0.811  0.5973  0.2165  0.3481
   25MOL   C62317951   6.208   5.354   0.765 -0.3039 -0.4751  0.2417
   25MOL   O62417952   6.307   5.407   0.819  0.1447 -0.1117  0.0849
   25MOL   C62517953   6.152   5.391   0.627 -0.0812  0.6929 -0.1597
   25MOL   C62617954   6.240   5.499   0.556 -0.1511 -0.1441  1.1697
   25MOL   C62717955   6.005   5.446   0.639 -0.2258  0.4871  0.1210
   25MOL   H62817956   5.673   4.990   1.456 -1.5041  0.4355  0.3525
   25MOL   H62917957   5.598   5.061   1.313 -1.0612  1.6558  0.9730
   25MOL   H63017958   5.615   5.157   1.458  1.0829  0.9162  0.5091
   25MOL   H63117959   5.797   5.215   1.276 -0.3064  1.3517  0.4781
   25MOL   H63217960   5.869   5.155   1.431  0.2066  0.6840 -1.0475
   25MOL   H63317961   5.858   4.930   1.350  0.1372  0.8816 -0.0503
   25MOL   H63417962   5.984   5.036   1.283  0.7973 -0.2525  0.5874
   25MOL   H63517963   5.746   4.903   1.142 -0.5105  0.1214  2.1454
   25MOL   H63617964   5.907   4.888   1.109 -0.0478  0.5672 -1.4066
   25MOL   H63717965   5.772   5.027   0.942  2.2237  0.6583 -0.3384
   25MOL   H63817966   5.727   5.138   1.072  0.3406  0.5593  1.7801
   25MOL   H63917967   5.897   5.221   0.921 -0.4859 -2.1163 -1.3151
   25MOL   H64017968   5.951   5.244   1.081 -0.5633  1.8694 -1.7625
   25MOL   H64117969   6.038   5.005   0.925 -0.7845  0.0830  0.0635
   25MOL   H64217970   6.091   5.043   1.078 -1.5319 -0.5354  0.5711
   25MOL   H64317971   6.191   5.267   1.008  0.0433 -0.1304 -0.0396
   25MOL   H64417972   6.258   5.132   0.918 -0.2906  1.0345 -2.5375
   25MOL   H64517973   6.256   5.586   0.620  0.2890  1.8890 -1.6017
   25MOL   H64617974   6.200   5.552   0.470 -0.5972  2.0564  2.6649
   25MOL   H64717975   6.338   5.462   0.527 -0.5941 -0.8184  0.5319
   25MOL   H64817976   5.949   5.364   0.684  0.2689  0.5540  0.8674
   25MOL   H64917977   5.965   5.448   0.538  0.9925 -0.8833 -0.4120
   25MOL   C65017978   6.056   6.517   0.064 -0.3920  0.0117 -0.0449
   25MOL   C65117979   6.149   6.396   0.074 -0.0090 -0.3530 -0.2012
   25MOL   C65217980   6.115   6.310   0.192  0.4046  0.5913 -0.1849
   25MOL   C65317981   6.184   6.175   0.167 -0.1880  0.7856  0.0582
   25MOL   C65417982   6.168   6.072   0.288 -0.4367  0.2987  0.8743
   25MOL   C65517983   6.191   5.919   0.254 -0.0025 -0.5889  0.9799
   25MOL   C65617984   6.173   5.820   0.367  0.8297 -0.6397 -0.2784
   25MOL   C65717985   6.034   5.835   0.437  0.8784  0.1061  0.0672
   25MOL   O65817986   5.982   5.720   0.513  0.0882  0.1599  0.2187
   25MOL   C65917987   6.022   5.696   0.647 -0.2964 -0.2055  0.0512
   25MOL   O66017988   6.105   5.770   0.703 -0.1966  0.2659  0.0165
   25MOL   C66117989   5.968   5.574   0.716  0.0882  0.1381 -0.0164
   25MOL   C66217990   6.024   5.579   0.867  0.4367  0.0557 -0.5016
   25MOL   C66317991   5.815   5.603   0.707 -0.8478  0.0155  0.0702
   25MOL   H66417992   6.095   6.575   7.760 -0.7537 -0.9931 -0.9254
   25MOL   H66517993   6.056   6.574   0.158 -2.7508  0.3889 -0.2330
   25MOL   H66617994   5.954   6.484   0.043  0.0331 -2.1419  1.1623
   25MOL   H66717995   6.249   6.439   0.084 -1.3239  3.0630 -1.0108
   25MOL   H66817996   6.152   6.335   7.763 -1.0706 -0.6958 -0.0166
   25MOL   H66917997   6.007   6.296   0.206  0.5881 -0.0353  0.6301
   25MOL   H67017998   6.166   6.352   0.279  1.8634  1.2624 -1.3662
   25MOL   H67117999   6.289   6.174   0.137 -0.3402  0.8223 -0.4831
   25MOL   H67218000   6.125   6.128   0.088  0.2497  1.9735 -0.9810
   25MOL   H67318001   6.067   6.082   0.327 -1.1286 -1.1453 -0.4621
   25MOL   H67418002   6.232   6.098   0.372  1.1897 -1.0541  0.0863
   25MOL   H67518003   6.131   5.889   0.168  0.6329 -0.2547  0.4186
   25MOL   H67618004   6.291   5.910   0.211  0.1791 -1.6123  1.5778
   25MOL   H67718005   6.261   5.813   0.430  1.1014 -1.4858 -0.7329
   25MOL   H67818006   6.163   5.729   0.307  0.4985 -0.2340 -0.8401
   25MOL   H67918007   5.962   5.857   0.358  0.9847  1.5118  0.3442
   25MOL   H68018008   6.027   5.920   0.505 -1.0227 -1.6392  2.1455
   25MOL   H68118009   6.133   5.589   0.873  0.2749  0.6721  1.9493
   25MOL   H68218010   5.999   5.484   0.914  0.4376  1.1861  1.8745
   25MOL   H68318011   5.979   5.654   0.932  2.6892  1.0051  0.0077
   25MOL   H68418012   5.793   5.693   0.764  1.9188 -0.3032  1.7783
   25MOL   H68518013   5.781   5.635   0.609  1.5109  2.3619 -0.0379
   25MOL   C68618014   5.916   5.905   7.679  0.0626  0.4531 -0.1616
   25MOL   C68718015   5.763   5.915   7.698  0.4281  0.2538 -0.5137
   25MOL   C68818016   5.692   5.784   7.730 -0.1455 -0.5131  0.2667
   25MOL   C68918017   5.719   5.723   0.092 -0.2984 -0.5099 -0.1134
   25MOL   C69018018   5.633   5.603   0.135  0.2718  0.1077 -0.1878
   25MOL   C69118019   5.683   5.523   0.261 -0.1224 -0.3778  0.3958
   25MOL   C69218020   5.596   5.412   0.310  0.0780  0.8491 -0.1622
   25MOL   C69318021   5.664   5.340   0.424  0.0712 -0.4781  0.2026
   25MOL   O69418022   5.662   5.425   0.537 -0.4025 -0.3515 -0.1438
   25MOL   C69518023   5.688   5.391   0.668  0.3970  0.3528  0.2557
   25MOL   O69618024   5.699   5.276   0.708 -0.0551 -0.0652  0.4859
   25MOL   C69718025   5.705   5.510   0.761  0.3126  0.3027 -0.0688
   25MOL   C69818026   5.573   5.592   0.759  0.2788  0.0363  0.5079
   25MOL   C69918027   5.723   5.468   0.908  0.3924 -0.9534 -0.3606
   25MOL   H70018028   5.939   5.830   7.604 -1.4705  0.3235 -0.5065
   25MOL   H70118029   5.955   5.867   7.773  0.2964  2.0927  0.4248
   25MOL   H70218030   5.952   6.004   7.648  1.1050  0.2861  0.4825
   25MOL   H70318031   5.721   5.968   7.613 -0.4812  1.7790  0.8647
   25MOL   H70418032   5.747   5.979   0.005  1.0275 -2.4593  1.6820
   25MOL   H70518033   5.717   5.717   7.647 -0.6056  0.5122 -0.7149
   25MOL   H70618034   5.585   5.804   7.728 -0.2719 -0.8725  2.4713
   25MOL   H70718035   5.709   5.802   0.166  2.1136  0.9481 -1.2769
   25MOL   H70818036   5.823   5.700   0.114 -0.1226 -0.3381 -0.7428
   25MOL   H70918037   5.636   5.530   0.054  2.7568  2.9757 -2.7777
   25MOL   H71018038   5.526   5.626   0.143 -0.1470 -1.6244 -0.5993
   25MOL   H71118039   5.782   5.481   0.243 -0.1989  0.0676 -1.1486
   25MOL   H71218040   5.697   5.595   0.342  0.6375  2.8519 -2.4807
   25MOL   H71318041   5.500   5.453   0.342 -0.0366 -0.8574  1.7456
   25MOL   H71418042   5.565   5.342   0.232 -0.3299  0.8500 -0.0029
   25MOL   H71518043   5.761   5.312   0.382 -1.0509 -0.1532 -2.7096
   25MOL   H71618044   5.610   5.249   0.448  0.8184 -0.6960  1.0828
   25MOL   H71718045   5.528   5.598   0.660 -1.5280  2.5897  1.4311
   25MOL   H71818046   5.497   5.547   0.823  0.4549 -0.6709  0.2343
   25MOL   H71918047   5.577   5.696   0.789  0.5082  0.0090  0.5736
   25MOL   H72018048   5.726   5.557   0.971  0.4004 -0.2501 -1.3500
   25MOL   H72118049   5.815   5.411   0.919  0.9625  0.2807  1.4180
   25MOL   H72218050   5.649   5.404   0.957  0.8518 -0.5758  0.8422
   26MOL     C118051   6.113   2.841   7.450  0.3217 -0.3056 -0.2655
   26MOL     C218052   6.052   2.944   7.355  0.4864  0.2495  0.2924
   26MOL     C318053   5.941   3.020   7.431  0.2973  0.2906 -1.0683
   26MOL     C418054   5.842   3.083   7.336 -0.0470 -0.3175  0.5973
   26MOL     C518055   5.907   3.153   7.218 -0.1398 -0.2868 -0.4360
   26MOL     C618056   5.809   3.246   7.140 -0.0271 -0.3541  0.2067
   26MOL     C718057   5.681   3.179   7.090 -0.1583 -0.7660  0.0451
   26MOL     C818058   5.702   3.092   6.964 -0.0201  0.2042 -0.2423
   26MOL     O918059   5.766   2.973   6.989 -0.4053  0.3535  0.2003
   26MOL    C1018060   5.758   2.865   6.904  0.1235  0.7414  0.6102
   26MOL    O1118061   5.680   2.861   6.812  0.4257  0.2558  0.0115
   26MOL    C1218062   5.823   2.739   6.952  0.2497  0.2700 -0.3461
   26MOL    C1318063   5.964   2.740   6.897  0.1942  0.3345 -0.7949
   26MOL    C1418064   5.811   2.724   7.109 -0.5629  0.0013  0.6158
   26MOL    H1518065   6.188   2.775   7.406 -0.2651 -0.9423 -0.3214
   26MOL    H1618066   6.046   2.770   7.498 -2.2900  0.6926 -2.3109
   26MOL    H1718067   6.173   2.882   7.532  0.6245 -2.5315  0.6601
   26MOL    H1818068   6.014   2.908   7.260  2.2941  0.5136 -0.5681
   26MOL    H1918069   6.127   3.020   7.331 -0.2338  0.9312  0.1625
   26MOL    H2018070   5.894   2.949   7.499 -1.0607  0.3434 -1.9384
   26MOL    H2118071   5.988   3.092   7.498  1.4253 -1.2893 -0.1194
   26MOL    H2218072   5.767   3.005   7.322  0.4146 -0.6252 -0.1562
   26MOL    H2318073   5.780   3.161   7.381  0.5081  1.5235 -1.7104
   26MOL    H2418074   5.958   3.094   7.142  2.1152 -0.1838  0.9741
   26MOL    H2518075   5.989   3.214   7.255 -1.1031 -0.1905  1.5961
   26MOL    H2618076   5.858   3.298   7.057  0.2520  0.2961  0.7780
   26MOL    H2718077   5.767   3.321   7.207 -0.8594 -1.1987  0.6326
   26MOL    H2818078   5.615   3.256   7.050 -0.8371 -0.7155  1.2266
   26MOL    H2918079   5.635   3.125   7.173 -0.8752 -1.3410 -0.7180
   26MOL    H3018080   5.762   3.151   6.895 -0.8715  0.1330 -1.0355
   26MOL    H3118081   5.610   3.068   6.911 -0.9883 -0.8394  1.8269
   26MOL    H3218082   6.007   2.642   6.917 -1.9535 -1.0957 -2.8690
   26MOL    H3318083   5.970   2.754   6.789  2.8231 -3.1022 -1.1891
   26MOL    H3418084   6.027   2.814   6.945 -0.1345  0.9633 -1.3252
   26MOL    H3518085   5.784   2.819   7.156 -0.4639  1.1907 -1.6331
   26MOL    H3618086   5.907   2.704   7.156  1.2292 -1.1427 -3.3450
   26MOL    H3718087   5.765   2.663   6.901 -0.8100  2.3809 -2.3942
   26MOL    C3818088   5.254   2.395   6.204  0.2547 -0.6200  0.0090
   26MOL    C3918089   5.356   2.421   6.316  0.2358 -0.0307 -0.3123
   26MOL    C4018090   5.284   2.457   6.447 -0.2012 -0.2937  0.5028
   26MOL    C4118091   5.357   2.561   6.533 -0.6700  0.4273 -0.6423
   26MOL    C4218092   5.292   2.598   6.670 -0.3703 -0.6581  0.5807
   26MOL    C4318093   5.385   2.641   6.774 -0.2991 -0.0296 -0.1255
   26MOL    C4418094   5.319   2.667   6.911 -1.3181  0.1231 -0.5869
   26MOL    C4518095   5.396   2.771   6.987  0.2990 -0.0998 -0.0452
   26MOL    O4618096   5.524   2.711   7.023  0.2134 -0.4559 -0.1585
   26MOL    C4718097   5.557   2.684   7.149 -0.3516 -0.2507 -0.4592
   26MOL    O4818098   5.479   2.695   7.246 -0.2027  0.0038 -0.3395
   26MOL    C4918099   5.697   2.629   7.173  0.1020  1.1172 -0.7103
   26MOL    C5018100   5.730   2.624   7.328  0.0926  0.0435  0.4346
   26MOL    C5118101   5.707   2.484   7.111 -0.0675 -0.1321 -0.2904
   26MOL    H5218102   5.172   2.334   6.243  2.2758 -2.3322  1.7493
   26MOL    H5318103   5.308   2.342   6.125 -1.1243  0.2634 -1.5350
   26MOL    H5418104   5.217   2.487   6.159  0.0637 -1.1341 -0.9130
   26MOL    H5518105   5.406   2.513   6.286  0.3433  0.4339  1.2555
   26MOL    H5618106   5.435   2.348   6.332 -0.9175 -1.4885 -1.1244
   26MOL    H5718107   5.188   2.496   6.414 -0.2985  0.6121  1.7879
   26MOL    H5818108   5.259   2.371   6.509  0.1171 -1.5009 -1.0380
   26MOL    H5918109   5.365   2.656   6.479  0.8338  0.8804  0.3489
   26MOL    H6018110   5.453   2.512   6.550 -2.1663 -1.7257  1.8994
   26MOL    H6118111   5.215   2.670   6.645  0.9628  0.5248 -0.2198
   26MOL    H6218112   5.248   2.504   6.704 -1.8061 -0.4829 -0.7883
   26MOL    H6318113   5.463   2.567   6.787 -1.9082 -1.8207 -0.4078
   26MOL    H6418114   5.419   2.734   6.729 -1.4209  1.0316  1.1630
   26MOL    H6518115   5.311   2.574   6.968 -2.7086 -0.3446 -1.5059
   26MOL    H6618116   5.215   2.700   6.906 -0.8586  1.5819 -0.5625
   26MOL    H6718117   5.342   2.803   7.077  1.0789  0.0211  0.3801
   26MOL    H6818118   5.400   2.856   6.920 -0.9794 -1.5917 -2.0807
   26MOL    H6918119   5.646   2.591   7.389 -0.1642 -0.5129 -0.2115
   26MOL    H7018120   5.819   2.571   7.361 -1.4110 -2.3851  0.7451
   26MOL    H7118121   5.750   2.730   7.344  1.0869 -0.1226  0.3594
   26MOL    H7218122   5.813   2.460   7.118  0.0671  0.4958 -0.0739
   26MOL    H7318123   5.697   2.493   7.003  1.4068 -1.3597 -0.5393
   26MOL    C7418124   5.889   2.724   7.752 -0.0091  0.2532  0.6846
   26MOL    C7518125   5.770   2.812   7.779 -0.2118 -0.3962 -0.3792
   26MOL    C7618126   5.635   2.731   0.015 -0.5620  0.2554  0.0625
   26MOL    C7718127   5.600   2.639   7.680  0.2456  0.1327 -0.3609
   26MOL    C7818128   5.450   2.604   7.692 -0.2509  0.0937 -0.0802
   26MOL    C7918129   5.400   2.511   7.576 -0.0304 -0.2942 -0.4718
   26MOL    C8018130   5.458   2.378   7.591 -0.0149  0.6782  0.3598
   26MOL    C8118131   5.426   2.282   7.471  0.0376  0.1947 -0.3142
   26MOL    O8218132   5.472   2.326   7.346  0.1706 -0.0921  0.0927
   26MOL    C8318133   5.603   2.333   7.306  1.1682 -0.3180  0.2511
   26MOL    O8418134   5.695   2.315   7.388 -0.3703  0.2288  0.3880
   26MOL    C8518135   5.627   2.359   7.151  0.4647 -0.6251  0.2982
   26MOL    C8618136   5.490   2.373   7.076 -0.3017 -0.0600 -0.5683
   26MOL    C8718137   5.702   2.231   7.086 -0.4396 -0.5236  0.2413
   26MOL    H8818138   5.907   2.663   0.060  1.9184  1.2506  1.0179
   26MOL    H8918139   5.980   2.781   7.731  1.2078 -1.3144  1.6650
   26MOL    H9018140   5.869   2.657   7.668 -1.3065 -1.9489  2.6960
   26MOL    H9118141   5.751   2.883   7.697  0.4413  0.0067 -0.1842
   26MOL    H9218142   5.781   2.863   0.095  0.5868  0.1467 -0.7555
   26MOL    H9318143   5.626   2.680   0.112  0.0313 -0.3997 -0.2222
   26MOL    H9418144   5.560   2.810   0.014  1.8943  2.6701  0.3308
   26MOL    H9518145   5.665   2.552   7.689  1.2971  0.8570 -0.8746
   26MOL    H9618146   5.622   2.690   7.586 -1.5277  2.9042  0.6605
   26MOL    H9718147   5.449   2.547   0.005 -0.3593 -2.1014 -1.3954
   26MOL    H9818148   5.391   2.695   7.699 -0.4654 -0.1292  1.0737
   26MOL    H9918149   5.292   2.506   7.587 -0.1152 -0.2075 -1.2032
   26MOL   H10018150   5.415   2.562   7.480  0.1881 -0.4626 -0.5263
   26MOL   H10118151   5.567   2.376   7.597  0.0009 -1.5480 -0.1717
   26MOL   H10218152   5.414   2.338   7.682 -0.5993 -0.7327 -0.5288
   26MOL   H10318153   5.319   2.276   7.453 -0.0175 -2.4762  0.8069
   26MOL   H10418154   5.460   2.179   7.486  0.6936  0.3098 -0.9613
   26MOL   H10518155   5.502   2.399   6.970 -0.7512  0.9670 -0.3762
   26MOL   H10618156   5.423   2.447   7.120 -0.2539  0.5513 -1.4988
   26MOL   H10718157   5.416   2.292   7.073 -0.9526  0.4925  0.3299
   26MOL   H10818158   5.736   2.244   6.983 -2.8306  0.7697 -0.4360
   26MOL   H10918159   5.797   2.252   7.135 -0.8439  2.8433 -0.2609
   26MOL   C11018160   6.192   2.325   6.701  0.1221 -0.1225  0.2651
   26MOL   C11118161   6.071   2.297   6.606  0.3082  0.8651 -0.0229
   26MOL   C11218162   5.929   2.354   6.644  0.1464 -0.2166 -0.2339
   26MOL   C11318163   5.816   2.332   6.530  0.6738 -0.2379 -0.0041
   26MOL   C11418164   5.681   2.390   6.568 -0.3741 -0.5011 -0.3253
   26MOL   C11518165   5.616   2.326   6.690  0.1122 -0.2176 -0.1811
   26MOL   C11618166   5.563   2.184   6.657 -0.5707 -0.4319  0.1401
   26MOL   C11718167   5.479   2.108   6.771  0.6931 -0.3426 -0.0776
   26MOL   O11818168   5.568   2.103   6.878  0.0313 -0.8111 -0.3411
   26MOL   C11918169   5.541   2.071   6.997  0.5402 -0.4662 -0.8627
   26MOL   O12018170   5.432   2.022   7.028 -0.6125 -0.6772  0.1411
   26MOL   C12118171   5.653   2.081   7.098  0.1829 -0.1863  0.5079
   26MOL   C12218172   5.598   2.033   7.232 -0.1200 -0.3101 -0.4065
   26MOL   C12318173   5.781   2.004   7.048  0.3512  0.5505 -0.1101
   26MOL   H12418174   6.164   2.298   6.803 -0.6609  2.1224  0.6835
   26MOL   H12518175   6.278   2.261   6.681  0.1059 -0.1577  0.3060
   26MOL   H12618176   6.224   2.430   6.706 -0.5707  0.0649  0.7392
   26MOL   H12718177   6.068   2.191   6.581  2.1277  0.9156 -0.5396
   26MOL   H12818178   6.096   2.335   6.506 -0.4222  0.5005 -0.3505
   26MOL   H12918179   5.944   2.460   6.667  1.2871 -0.3497 -0.3417
   26MOL   H13018180   5.895   2.296   6.729 -0.2292 -1.4070 -1.1727
   26MOL   H13118181   5.853   2.380   6.440 -2.1844  1.3105 -0.4114
   26MOL   H13218182   5.809   2.224   6.515 -0.1095 -0.4487  1.7850
   26MOL   H13318183   5.615   2.376   6.482 -1.2108 -1.6535  0.5008
   26MOL   H13418184   5.696   2.494   6.596 -1.4116  0.0470 -1.7297
   26MOL   H13518185   5.672   2.317   6.783 -2.0086  2.9703  1.5011
   26MOL   H13618186   5.529   2.382   6.725 -2.8851 -3.7695 -1.6656
   26MOL   H13718187   5.646   2.117   6.634  0.0439  0.1072  0.7580
   26MOL   H13818188   5.510   2.179   6.562 -0.7102  0.2083  0.1834
   26MOL   H13918189   5.385   2.155   6.800  1.1733  0.7547 -0.2980
   26MOL   H14018190   5.459   2.006   6.739  0.0972 -0.6067  1.1198
   26MOL   H14118191   5.675   2.038   7.309  0.6867 -4.8760 -0.7648
   26MOL   H14218192   5.508   2.086   7.265 -0.1193 -1.3990  1.4221
   26MOL   H14318193   5.567   1.929   7.221 -0.5242 -0.0600 -1.6862
   26MOL   H14418194   5.860   2.049   7.107 -0.2064  1.0254  0.2811
   26MOL   H14518195   5.802   2.030   6.945  3.2536  0.7985  0.5077
   26MOL   C14618196   6.653   1.346   7.446  0.1722  0.2363  0.2278
   26MOL   C14718197   6.512   1.392   7.416 -0.0253 -0.1808  0.4396
   26MOL   C14818198   6.455   1.515   7.491 -0.1890 -0.2725 -0.2935
   26MOL   C14918199   6.318   1.566   7.443 -0.5393 -0.4807  0.2274
   26MOL   C15018200   6.269   1.705   7.496  0.2999 -0.0458  0.0019
   26MOL   C15118201   6.147   1.739   7.412  0.2380  0.0596 -0.2170
   26MOL   C15218202   6.072   1.863   7.446  0.0265  0.2855 -0.2667
   26MOL   C15318203   5.924   1.860   7.408 -0.1124  0.6491 -0.2508
   26MOL   O15418204   5.922   1.871   7.268 -0.6621  0.5324  0.0877
   26MOL   C15518205   5.816   1.803   7.195 -0.8348  0.0639  0.2675
   26MOL   O15618206   5.746   1.713   7.245  0.1594 -0.1891 -0.1847
   26MOL   C15718207   5.796   1.846   7.048 -0.9894 -1.1120 -0.0238
   26MOL   C15818208   5.686   1.766   6.986 -0.3797 -0.6035 -0.3215
   26MOL   C15918209   5.941   1.820   6.976 -0.1776 -0.9481  0.9668
   26MOL   H16018210   6.676   1.311   7.546  1.1583 -2.0395 -0.7508
   26MOL   H16118211   6.729   1.421   7.424  0.5538 -0.3592 -0.5472
   26MOL   H16218212   6.672   1.259   7.383  0.6764 -0.0225  0.7316
   26MOL   H16318213   6.519   1.416   7.310  0.2154 -1.4901  0.1463
   26MOL   H16418214   6.438   1.313   7.425  0.4552 -0.8537 -1.3615
   26MOL   H16518215   6.522   1.600   7.482  1.7081 -1.1526  4.3454
   26MOL   H16618216   6.462   1.501   7.599  3.4903  1.6658 -0.1918
   26MOL   H16718217   6.325   1.574   7.334  1.8202  2.2774  0.5271
   26MOL   H16818218   6.243   1.499   7.486 -2.1705  0.3662 -1.2502
   26MOL   H16918219   6.352   1.774   7.482 -0.2258  1.0627  2.1134
   26MOL   H17018220   6.246   1.681   7.600 -2.0882 -3.1252 -1.1619
   26MOL   H17118221   6.080   1.653   7.418  1.0890 -0.5198  1.4050
   26MOL   H17218222   6.164   1.753   7.306 -0.8198  1.0863 -0.2621
   26MOL   H17318223   6.079   1.876   7.554 -0.7123 -0.6105 -0.1034
   26MOL   H17418224   6.128   1.944   7.399  2.2944  0.1618  2.1397
   26MOL   H17518225   5.875   1.768   7.440 -1.9894  1.0590 -1.8932
   26MOL   H17618226   5.884   1.946   7.462  3.6507  0.6450  2.8153
   26MOL   H17718227   5.692   1.658   7.002  0.0087 -0.4245  0.8041
   26MOL   H17818228   5.684   1.780   6.878  2.3737 -0.1009 -0.3345
   26MOL   H17918229   5.588   1.796   7.023 -0.2904 -1.7626  0.8746
   26MOL   H18018230   6.011   1.875   7.039  0.4029  0.1968 -0.6580
   26MOL   H18118231   5.941   1.873   6.881 -0.4755 -0.2511  1.3514
   26MOL   C18218232   6.137   2.154   6.130  0.1921  0.3023  0.6287
   26MOL   C18318233   6.202   2.034   6.206 -0.3354 -0.1194  0.2590
   26MOL   C18418234   6.112   1.916   6.238  0.3106 -0.1197 -0.2182
   26MOL   C18518235   6.021   1.940   6.355  0.4870 -0.6581 -0.5746
   26MOL   C18618236   5.921   1.833   6.388  0.4939 -0.3891 -0.6649
   26MOL   C18718237   5.827   1.877   6.499  0.1011 -0.2313  0.9112
   26MOL   C18818238   5.733   1.759   6.548  0.2277  0.3780 -0.0451
   26MOL   C18918239   5.796   1.641   6.620 -0.2043  0.8412  0.2280
   26MOL   O19018240   5.858   1.696   6.731 -0.1331 -0.3028 -0.6531
   26MOL   C19118241   5.917   1.617   6.821 -0.0983 -0.2285  0.7579
   26MOL   O19218242   5.913   1.496   6.815  0.1129 -0.6034  0.1878
   26MOL   C19318243   5.996   1.680   6.938 -0.1934 -0.3919  0.1077
   26MOL   C19418244   5.993   1.583   7.058 -0.0259  0.0399 -0.0085
   26MOL   C19518245   6.158   1.687   6.899 -0.7309  0.0747  0.7489
   26MOL   H19618246   6.205   2.237   6.151  0.0245  0.2972  1.1901
   26MOL   H19718247   6.108   2.146   6.025  0.8654 -0.0579  0.4634
   26MOL   H19818248   6.041   2.181   6.172 -0.3840  1.7216 -1.5193
   26MOL   H19918249   6.255   2.075   6.292  1.9136 -1.7069 -0.3305
   26MOL   H20018250   6.279   1.995   6.140 -0.9489  2.2510 -1.9761
   26MOL   H20118251   6.064   1.878   6.148  1.9917  0.1973 -1.2916
   26MOL   H20218252   6.177   1.830   6.257  3.1262  1.8127 -0.7081
   26MOL   H20318253   6.075   1.943   6.449 -1.1292 -0.7215  0.3704
   26MOL   H20418254   5.964   2.033   6.348  0.8889 -0.3450  0.2438
   26MOL   H20518255   5.978   1.745   6.417 -4.5671 -3.6392  0.1777
   26MOL   H20618256   5.857   1.794   6.308  0.2992 -2.1293  0.3044
   26MOL   H20718257   5.765   1.952   6.449  2.4494  0.6369 -0.7618
   26MOL   H20818258   5.866   1.921   6.591  1.4978  0.4495  0.0027
   26MOL   H20918259   5.648   1.804   6.599 -0.0486  0.9281 -0.9847
   26MOL   H21018260   5.690   1.709   6.462 -1.8797  0.1785  1.0858
   26MOL   H21118261   5.861   1.582   6.555 -0.0947  1.2626 -0.0437
   26MOL   H21218262   5.714   1.572   6.644 -0.5047  1.7244  1.7968
   26MOL   H21318263   6.036   1.622   7.150 -3.0819  1.8485  0.7195
   26MOL   H21418264   5.893   1.549   7.081 -0.5215 -0.2954 -2.5263
   26MOL   H21518265   6.053   1.494   7.035  1.7436  1.1423  0.2097
   26MOL   H21618266   6.211   1.699   6.994  0.9728 -1.3454 -0.0007
   26MOL   H21718267   6.189   1.588   6.867 -0.0527  0.3943  0.4276
   26MOL   C21818268   6.199   2.484   7.709 -0.0756  0.8033 -0.1828
   26MOL   C21918269   6.162   2.519   7.562 -0.2622 -0.7374  0.0473
   26MOL   C22018270   6.153   2.394   7.472 -0.3239  0.8440 -0.7795
   26MOL   C22118271   6.100   2.440   7.335 -0.9617  0.0036 -0.4721
   26MOL   C22218272   6.072   2.323   7.241 -0.4927  0.4630  0.0095
   26MOL   C22318273   6.203   2.260   7.185  0.0829  0.6596  0.5503
   26MOL   C22418274   6.160   2.128   7.106 -0.0359 -0.2120  0.2396
   26MOL   C22518275   6.285   2.070   7.035 -0.0046 -0.0553  0.0164
   26MOL   O22618276   6.249   1.945   6.974  0.2632 -0.2358  0.2323
   26MOL   C22718277   6.212   1.932   6.841 -0.3565 -0.7912  0.1161
   26MOL   O22818278   6.175   2.021   6.760  0.4907 -0.0818  0.3428
   26MOL   C22918279   6.225   1.785   6.798 -0.0525  0.2492 -0.3262
   26MOL   C23018280   6.159   1.766   6.662 -0.4922 -0.2570 -0.3277
   26MOL   C23118281   6.371   1.733   6.780 -0.7741  0.1005  0.2091
   26MOL   H23218282   6.123   2.444   7.776 -1.6114  1.6853 -1.3532
   26MOL   H23318283   6.235   2.572   7.763  2.0699  0.3651 -0.8802
   26MOL   H23418284   6.292   2.428   7.715  1.5550  3.1938 -2.2512
   26MOL   H23518285   6.236   2.585   7.515 -0.0586  1.2552  3.0040
   26MOL   H23618286   6.065   2.568   7.559  1.1543  2.1785  0.0370
   26MOL   H23718287   6.248   2.342   7.462 -1.4972 -1.4546 -0.3870
   26MOL   H23818288   6.076   2.332   7.517 -0.4936  1.4421 -0.2322
   26MOL   H23918289   6.002   2.486   7.349 -0.1591  1.7597 -0.4239
   26MOL   H24018290   6.164   2.507   7.277  0.5493  0.2844  1.4639
   26MOL   H24118291   6.003   2.255   7.292 -0.9208  1.1189  0.3067
   26MOL   H24218292   6.014   2.354   7.155  0.3513  1.3863 -0.2313
   26MOL   H24318293   6.256   2.334   7.125  2.8205 -1.7411 -0.0921
   26MOL   H24418294   6.261   2.218   7.267  1.3963 -1.4546 -1.4095
   26MOL   H24518295   6.094   2.155   7.024 -1.0293 -2.1280  0.3789
   26MOL   H24618296   6.113   2.054   7.171 -0.0130  1.5218  2.3006
   26MOL   H24718297   6.361   2.050   7.111  2.6250  3.3472 -1.5879
   26MOL   H24818298   6.327   2.142   6.965 -0.9513 -1.8288 -2.4677
   26MOL   H24918299   6.215   1.811   6.580  1.7482  2.1863  2.4560
   26MOL   H25018300   6.058   1.807   6.661  0.2293  1.5889  1.0129
   26MOL   H25118301   6.132   1.661   6.647  0.6637 -0.2358 -2.8550
   26MOL   H25218302   6.398   1.691   6.877 -0.5488 -1.7681 -0.6483
   26MOL   H25318303   6.365   1.641   6.722  0.9619 -0.3163  0.6851
   26MOL   C25418304   7.292   1.891   7.545  0.0356  0.4813 -0.7719
   26MOL   C25518305   7.151   1.849   7.548  0.7068  0.1360  0.1932
   26MOL   C25618306   7.077   1.860   7.413 -1.4232 -0.0229  0.1109
   26MOL   C25718307   6.940   1.788   7.409 -0.2746 -0.2480 -0.9055
   26MOL   C25818308   6.854   1.811   7.282 -0.4046  0.0927  0.8249
   26MOL   C25918309   6.706   1.822   7.312 -0.0201 -0.1343  0.2482
   26MOL   C26018310   6.613   1.796   7.195  0.3658 -0.5458 -0.3566
   26MOL   C26118311   6.622   1.896   7.088 -0.4807  0.4127  0.3637
   26MOL   O26218312   6.570   1.835   6.971 -0.7487 -0.5443 -0.2476
   26MOL   C26318313   6.539   1.900   6.859  0.2474 -0.0613  0.9308
   26MOL   O26418314   6.533   2.019   6.853  0.0963 -0.7935 -0.4224
   26MOL   C26518315   6.498   1.813   6.736  0.0350  0.5064 -0.4297
   26MOL   C26618316   6.461   1.897   6.612  0.0731 -0.1435  0.2272
   26MOL   C26718317   6.613   1.706   6.700  1.1609  0.9260 -0.1553
   26MOL   H26818318   7.339   1.853   7.454 -0.7921  0.5979 -1.2484
   26MOL   H26918319   7.297   2.000   7.539 -0.5847  0.5077 -0.8354
   26MOL   H27018320   7.340   1.868   7.640 -1.7393  1.2208  0.3368
   26MOL   H27118321   7.141   1.749   7.590 -0.2095  0.3584  0.5102
   26MOL   H27218322   7.100   1.917   7.616  0.4616  0.9264 -0.7823
   26MOL   H27318323   7.137   1.808   7.339  2.2260  3.4967  0.4298
   26MOL   H27418324   7.057   1.963   7.384  1.2119  1.1983  2.3675
   26MOL   H27518325   6.884   1.826   7.494 -0.0232  1.5178 -1.5085
   26MOL   H27618326   6.972   1.686   7.430 -0.6352 -0.0695  0.5474
   26MOL   H27718327   6.871   1.904   7.227 -2.8874  0.5294  0.7002
   26MOL   H27818328   6.860   1.726   7.214 -4.2174 -0.5035  1.1350
   26MOL   H27918329   6.691   1.922   7.351  1.8372  0.0978  0.4110
   26MOL   H28018330   6.682   1.752   7.392 -2.5360 -0.6331 -0.8717
   26MOL   H28118331   6.626   1.692   7.166 -5.0286 -0.9545 -1.9495
   26MOL   H28218332   6.510   1.780   7.230  0.0349 -0.5914 -1.3474
   26MOL   H28318333   6.581   1.993   7.116 -1.1830  0.2094  0.0487
   26MOL   H28418334   6.726   1.912   7.059 -0.6433  2.0155  0.6179
   26MOL   H28518335   6.446   1.839   6.521 -1.9071 -0.3333  0.6599
   26MOL   H28618336   6.373   1.960   6.625 -1.2667 -2.0579  0.7777
   26MOL   H28718337   6.542   1.966   6.588 -1.3036  1.3803 -0.0960
   26MOL   H28818338   6.577   1.649   6.615 -1.2358 -0.1820  1.5582
   26MOL   H28918339   6.617   1.631   6.779 -0.7091  0.1228 -0.8002
   26MOL   C29018340   6.598   2.379   5.778  0.5603  0.2049  0.0154
   26MOL   C29118341   6.644   2.241   5.771  0.7176 -0.1022 -0.1310
   26MOL   C29218342   6.629   2.174   5.909 -0.0198 -0.2350  0.8261
   26MOL   C29318343   6.713   2.045   5.924  0.5190 -0.8086  0.0742
   26MOL   C29418344   6.709   1.994   6.062 -0.5177  0.4089 -0.7312
   26MOL   C29518345   6.790   1.861   6.073 -0.9296 -0.1502  0.2060
   26MOL   C29618346   6.813   1.803   6.211  0.3840  0.3924  0.3684
   26MOL   C29718347   6.684   1.811   6.299 -0.4396  0.5443 -0.0536
   26MOL   O29818348   6.711   1.746   6.422  0.7495  0.5815 -0.3348
   26MOL   C29918349   6.765   1.815   6.523  0.6406 -0.0875 -0.0610
   26MOL   O30018350   6.826   1.921   6.511  0.4904 -0.0302 -1.2028
   26MOL   C30118351   6.759   1.738   6.661 -0.0871 -0.1446  0.0790
   26MOL   C30218352   6.831   1.837   6.768 -0.1287  0.7364 -0.5722
   26MOL   C30318353   6.836   1.608   6.638  0.8455  0.6703  0.4332
   26MOL   H30418354   6.676   2.442   5.821  1.8831 -1.2550 -0.2199
   26MOL   H30518355   6.505   2.394   5.833  1.3031 -0.4664  1.4836
   26MOL   H30618356   6.574   2.413   5.677  3.5694  0.6325 -0.5833
   26MOL   H30718357   6.742   2.241   5.723  0.7597  1.5691 -0.0832
   26MOL   H30818358   6.574   2.198   5.700  0.1755  1.2949 -0.4582
   26MOL   H30918359   6.526   2.149   5.931 -0.9349  1.9442 -0.8167
   26MOL   H31018360   6.662   2.244   5.986  4.0865 -0.8112 -0.2651
   26MOL   H31118361   6.674   1.968   5.857 -2.1375  1.6807 -1.3230
   26MOL   H31218362   6.814   2.064   5.887 -0.1330  3.4336  0.2472
   26MOL   H31318363   6.760   2.067   6.125  0.6168  1.0404 -2.3553
   26MOL   H31418364   6.606   1.988   6.098 -0.3374  0.8102 -0.1358
   26MOL   H31518365   6.885   1.868   6.021 -1.5823  0.6511 -0.9163
   26MOL   H31618366   6.737   1.785   6.015 -1.3212  1.7845 -2.0593
   26MOL   H31718367   6.896   1.855   6.258  0.3841 -0.1185  0.9418
   26MOL   H31818368   6.833   1.697   6.199 -0.6540  0.3452 -1.0249
   26MOL   H31918369   6.596   1.767   6.253  0.2291 -0.8735 -0.0175
   26MOL   H32018370   6.658   1.914   6.323  0.5147  0.4331  1.5003
   26MOL   H32118371   6.779   1.932   6.783  0.1973  0.8170  0.0701
   26MOL   H32218372   6.931   1.861   6.733  1.3591  1.4356  3.8189
   26MOL   H32318373   6.841   1.785   6.864 -0.3405 -0.3289 -1.1192
   26MOL   H32418374   6.816   1.549   6.728  0.2255  0.9528  0.4833
   26MOL   H32518375   6.775   1.555   6.565  0.0211  2.8635 -0.4857
   26MOL   C32618376   0.133   1.851   6.655  0.4948  0.5339  0.2514
   26MOL   C32718377   0.017   1.943   6.625  0.2688  0.0069 -0.0483
   26MOL   C32818378   7.682   1.938   6.730  0.0591 -0.5599  0.6786
   26MOL   C32918379   7.580   2.046   6.726  0.3665 -0.1387 -0.0802
   26MOL   C33018380   7.461   2.026   6.824 -0.2756 -0.7884 -0.3837
   26MOL   C33118381   7.382   1.902   6.796  0.2267 -0.4275 -0.3832
   26MOL   C33218382   7.259   1.885   6.881  0.1610 -0.5126 -0.4269
   26MOL   C33318383   7.212   1.739   6.874  0.0864  0.0757  0.2512
   26MOL   O33418384   7.139   1.711   6.759 -0.0001 -0.5784 -0.3492
   26MOL   C33518385   7.068   1.602   6.754  0.2298 -0.5316  0.3231
   26MOL   O33618386   7.050   1.527   6.844  0.2319 -0.2004 -0.0351
   26MOL   C33718387   6.993   1.584   6.615 -0.4457  0.0255 -0.4138
   26MOL   C33818388   7.001   1.430   6.584  0.4548  0.5517  0.1634
   26MOL   C33918389   7.045   1.671   6.501  0.0748 -1.1784  0.3715
   26MOL   H34018390   0.163   1.871   6.758  0.9851 -0.5107  0.3204
   26MOL   H34118391   0.221   1.871   6.593  0.4570  0.2149  0.0922
   26MOL   H34218392   0.111   1.745   6.644  0.3336  0.7166 -1.2404
   26MOL   H34318393   7.748   1.918   6.531  2.6718 -0.4652 -1.2251
   26MOL   H34418394   0.061   2.043   6.622  0.7512 -0.2281 -1.4987
   26MOL   H34518395   7.727   1.934   6.829  1.5324 -0.3334  0.0355
   26MOL   H34618396   7.625   1.845   6.722 -1.2940  0.1592  1.8478
   26MOL   H34718397   7.530   2.056   6.629  0.4401  0.3605 -0.0662
   26MOL   H34818398   7.617   2.143   6.758 -0.2488  0.4226 -1.0280
   26MOL   H34918399   7.499   2.018   6.926 -0.5970  0.3962 -0.1624
   26MOL   H35018400   7.394   2.112   6.818 -0.3396 -0.7248  1.1117
   26MOL   H35118401   7.343   1.900   6.694 -0.2995 -0.1901 -0.1852
   26MOL   H35218402   7.445   1.814   6.805  1.9102  0.4712 -2.7727
   26MOL   H35318403   7.177   1.951   6.852  0.9163  2.3747  3.5281
   26MOL   H35418404   7.284   1.913   6.984 -1.3487 -0.1502 -0.1459
   26MOL   H35518405   7.299   1.674   6.868  1.0899  1.4670 -0.6671
   26MOL   H35618406   7.155   1.706   6.961  0.7999 -1.4150  0.1729
   26MOL   H35718407   6.955   1.407   6.488 -0.1204  2.9797 -0.1941
   26MOL   H35818408   7.106   1.401   6.583  0.1802 -0.4330 -0.0547
   26MOL   H35918409   6.949   1.374   6.662 -2.8850  2.7403 -0.3837
   26MOL   H36018410   6.962   1.681   6.431  1.2058  0.5311 -0.7561
   26MOL   H36118411   7.069   1.771   6.534  1.5000 -1.5266  0.4362
   26MOL   C36218412   6.431   1.225   5.576  0.1745  0.4546 -0.4491
   26MOL   C36318413   6.579   1.209   5.620 -0.0663 -0.4964  0.0437
   26MOL   C36418414   6.632   1.331   5.708 -0.3218 -0.3426  0.1537
   26MOL   C36518415   6.770   1.313   5.780 -0.0943  0.2736 -0.5787
   26MOL   C36618416   6.824   1.445   5.848 -0.1452 -0.0520  0.2981
   26MOL   C36718417   6.939   1.431   5.953  0.2365 -0.1192  0.4881
   26MOL   C36818418   6.908   1.358   6.080 -0.1683 -0.7622  0.2187
   26MOL   C36918419   7.026   1.360   6.181 -0.3474 -0.5279 -0.3164
   26MOL   O37018420   7.045   1.483   6.263 -0.5073  0.2138 -0.3188
   26MOL   C37118421   7.160   1.499   6.330  0.2632 -0.3152  0.3633
   26MOL   O37218422   7.247   1.416   6.338  0.0617 -0.3506  0.5245
   26MOL   C37318423   7.170   1.635   6.413  0.1318  0.0347  0.2204
   26MOL   C37418424   7.301   1.629   6.505 -0.5066 -0.2524  0.7637
   26MOL   C37518425   7.180   1.759   6.303 -0.0607 -0.5030 -0.5646
   26MOL   H37618426   6.382   1.138   5.533  1.2467 -0.5984  0.4445
   26MOL   H37718427   6.375   1.251   5.666 -0.6037  0.4382 -0.9241
   26MOL   H37818428   6.418   1.308   5.505 -1.3512  0.5313 -0.1037
   26MOL   H37918429   6.641   1.202   5.530  2.4116 -0.2218  1.6893
   26MOL   H38018430   6.595   1.123   5.685 -0.3811  0.6443  1.6593
   26MOL   H38118431   6.555   1.354   5.782  0.2679 -0.4104  0.7941
   26MOL   H38218432   6.630   1.414   5.638 -0.1683  0.0563  0.6181
   26MOL   H38318433   6.833   1.255   5.713 -0.7192  1.2533 -2.0414
   26MOL   H38418434   6.745   1.249   5.864  2.6727 -1.7476 -1.2113
   26MOL   H38518435   6.848   1.517   5.770 -1.8847  1.1048  0.7845
   26MOL   H38618436   6.739   1.488   5.901 -0.8769 -1.1264  0.0134
   26MOL   H38718437   6.945   1.538   5.973 -1.1825 -0.3853  2.5045
   26MOL   H38818438   7.034   1.409   5.905  0.6599  1.7370  0.4532
   26MOL   H38918439   6.868   1.256   6.081 -0.8921 -0.5001  2.4824
   26MOL   H39018440   6.828   1.415   6.127 -0.3185 -0.8835  0.1137
   26MOL   H39118441   6.997   1.280   6.248  0.7638 -0.9487 -0.3351
   26MOL   H39218442   7.117   1.341   6.125 -1.4162 -0.0433 -2.2800
   26MOL   H39318443   7.321   1.724   6.555 -1.4711  0.3945 -0.0574
   26MOL   H39418444   7.301   1.559   6.589 -0.2984  0.3590  1.2767
   26MOL   H39518445   7.383   1.607   6.436 -0.7851  0.0590  0.3355
   26MOL   H39618446   7.089   1.752   6.244  0.7830 -1.4778 -1.7548
   26MOL   H39718447   7.159   1.852   6.356 -0.6526 -0.3661 -1.0367
   26MOL   C39818448   7.505   1.047   6.341  0.3156  0.0638  0.4671
   26MOL   C39918449   7.599   1.106   6.235  0.3512  0.3968 -0.0583
   26MOL   C40018450   7.584   1.252   6.205  0.2685 -0.7702  0.4607
   26MOL   C40118451   7.653   1.347   6.302 -0.5966 -0.3875 -0.0190
   26MOL   C40218452   7.675   1.484   6.231  0.1466  0.8602 -0.0693
   26MOL   C40318453   7.767   1.571   6.322  0.2649 -0.9672 -0.4962
   26MOL   C40418454   7.779   1.719   6.278  0.1706  0.3998 -0.1568
   26MOL   C40518455   7.655   1.809   6.324 -0.0544 -0.4291 -0.7242
   26MOL   O40618456   7.542   1.777   6.255 -1.0949  0.3967  0.2597
   26MOL   C40718457   7.428   1.832   6.289  0.0819  0.2758  0.2131
   26MOL   O40818458   7.407   1.917   6.375 -0.0180 -0.2538 -0.3291
   26MOL   C40918459   7.304   1.785   6.203 -0.4318  0.2447 -0.4281
   26MOL   C41018460   7.339   1.656   6.122  0.6909 -0.5964  0.1104
   26MOL   C41118461   7.243   1.901   6.109  0.4123 -0.8229  0.1016
   26MOL   H41218462   7.400   1.066   6.318  1.1283  2.3803 -1.6609
   26MOL   H41318463   7.528   1.091   6.438 -0.4985  0.6662  0.3917
   26MOL   H41418464   7.517   0.939   6.347 -2.1240 -0.1660  2.0258
   26MOL   H41518465   7.579   1.056   6.140  2.4678  1.4215 -1.0896
   26MOL   H41618466   7.698   1.086   6.275 -0.2226  0.2414  1.3059
   26MOL   H41718467   7.632   1.274   6.110  1.9103  0.4531  1.5606
   26MOL   H41818468   7.480   1.281   6.189  0.1856 -0.7205  1.0939
   26MOL   H41918469   7.750   1.305   6.328  0.0380  1.0482 -0.0673
   26MOL   H42018470   7.587   1.380   6.382  0.3427  0.6716  0.3195
   26MOL   H42118471   7.731   1.473   6.138  2.1675 -2.7831  1.4510
   26MOL   H42218472   7.582   1.529   6.197 -1.7814 -2.2759  0.8558
   26MOL   H42318473   0.087   1.528   6.337  1.9019  1.9446 -2.6796
   26MOL   H42418474   7.727   1.587   6.422  2.6385  1.3655  0.1265
   26MOL   H42518475   0.086   1.764   6.328 -1.6818  2.0253  1.7241
   26MOL   H42618476   0.026   1.725   6.173  0.4789  0.1959 -0.0916
   26MOL   H42718477   7.636   1.787   6.429 -1.2535  2.5084 -0.2931
   26MOL   H42818478   7.666   1.917   6.325  0.7544 -0.4830  1.9935
   26MOL   H42918479   7.380   1.580   6.188 -0.8686 -0.2498  1.5210
   26MOL   H43018480   7.402   1.668   6.034  0.6059  0.4839  0.1835
   26MOL   H43118481   7.246   1.613   6.085  0.6435  0.2605 -0.7846
   26MOL   H43218482   7.221   1.978   6.183  0.1968  2.0563 -2.8118
   26MOL   H43318483   7.144   1.867   6.078  0.4189 -1.2567  0.5634
   26MOL   C43418484   6.498   1.985   5.141  0.0937  0.6631  0.1405
   26MOL   C43518485   6.593   1.875   5.204  0.6992  0.8464 -0.0952
   26MOL   C43618486   6.656   1.926   5.334  0.8056 -0.1482 -0.4249
   26MOL   C43718487   6.751   1.818   5.394  0.2149  0.2899  0.7173
   26MOL   C43818488   6.829   1.878   5.513  0.1868 -0.2447  0.4674
   26MOL   C43918489   6.945   1.784   5.561  0.4641  0.3065 -0.4920
   26MOL   C44018490   6.994   1.821   5.702  0.7181 -0.0521  0.4327
   26MOL   C44118491   7.126   1.754   5.746  0.2259  0.0439  0.1749
   26MOL   O44218492   7.170   1.824   5.860  0.2953  0.6633 -0.7628
   26MOL   C44318493   7.297   1.857   5.871  0.0699  0.1849  0.0684
   26MOL   O44418494   7.381   1.817   5.795  0.3455  0.3925  0.1656
   26MOL   C44518495   7.321   1.955   5.984  0.1637  0.2836 -0.4139
   26MOL   C44618496   7.472   1.969   6.008  0.6339  0.0027  0.1552
   26MOL   C44718497   7.256   2.087   5.933 -0.0693 -0.0832 -0.1071
   26MOL   H44818498   6.400   2.004   5.185 -0.3757 -0.7607 -0.2690
   26MOL   H44918499   6.468   1.957   5.041 -2.7216  2.4354  0.4239
   26MOL   H45018500   6.553   2.078   5.130 -1.6307  1.7787  0.7154
   26MOL   H45118501   6.663   1.852   5.124  0.4360  0.5892 -0.2547
   26MOL   H45218502   6.533   1.785   5.221 -0.2425  0.9363 -2.6611
   26MOL   H45318503   6.581   1.949   5.409  0.6297 -2.6988  0.2236
   26MOL   H45418504   6.721   2.012   5.317  1.0272 -0.0655  0.8053
   26MOL   H45518505   6.817   1.775   5.319  1.8120  2.2300  0.9775
   26MOL   H45618506   6.688   1.738   5.433 -0.5159  0.0304 -0.9639
   26MOL   H45718507   6.874   1.974   5.488 -1.4551  0.6388  0.8647
   26MOL   H45818508   6.770   1.909   5.600  1.0206 -0.8809  1.2672
   26MOL   H45918509   7.017   1.783   5.479 -0.2719 -1.7393 -1.1294
   26MOL   H46018510   6.899   1.685   5.566 -1.6004  1.1347 -2.0663
   26MOL   H46118511   7.014   1.928   5.694  1.5932 -0.3294 -1.3857
   26MOL   H46218512   6.922   1.809   5.783 -0.8721  0.0376 -0.9568
   26MOL   H46318513   7.200   1.761   5.666  0.8631 -1.0662  0.6574
   26MOL   H46418514   7.121   1.646   5.761  0.2420  0.2859  2.0505
   26MOL   H46518515   7.484   2.025   6.101 -0.1692  0.5252 -0.0502
   26MOL   H46618516   7.525   1.876   6.022 -1.9469 -1.5093  0.1843
   26MOL   H46718517   7.524   2.033   5.936 -0.8320  0.7133 -0.3039
   26MOL   H46818518   7.323   2.120   5.853  1.0158  0.2269  0.9179
   26MOL   H46918519   7.161   2.072   5.882 -0.3750 -0.1867  0.4911
   26MOL   C47018520   6.243   2.648   6.040  0.0348 -0.1948  0.9279
   26MOL   C47118521   6.357   2.555   6.029  0.1990  0.7007  0.0926
   26MOL   C47218522   6.417   2.534   6.167  0.3311  0.4650  0.4922
   26MOL   C47318523   6.545   2.445   6.157 -0.5389 -0.4909  0.5300
   26MOL   C47418524   6.630   2.449   6.289 -0.6673  0.2271 -0.0587
   26MOL   C47518525   6.741   2.339   6.307  0.5917 -0.2355  0.7460
   26MOL   C47618526   6.853   2.354   6.209  0.5544  0.0965  0.1611
   26MOL   C47718527   6.992   2.328   6.266 -0.2118  0.3092  0.9843
   26MOL   O47818528   7.096   2.324   6.173  0.6720  0.3379  0.3893
   26MOL   C47918529   7.116   2.213   6.103 -0.2546  0.3357 -0.2480
   26MOL   O48018530   7.045   2.114   6.100 -0.4320 -0.2214  0.2927
   26MOL   C48118531   7.248   2.216   6.022  1.5207 -0.1683 -0.3077
   26MOL   C48218532   7.365   2.236   6.132  0.0379  0.3734 -0.6005
   26MOL   C48318533   7.255   2.344   5.924 -0.6811  0.0989 -0.4242
   26MOL   H48418534   6.271   2.749   6.069  0.3438 -0.1879  0.6044
   26MOL   H48518535   6.164   2.624   6.111  0.0381  0.8550  1.2903
   26MOL   H48618536   6.185   2.658   5.949  0.2269  2.0482  1.0137
   26MOL   H48718537   6.311   2.462   5.995 -2.9767  2.6693 -1.2157
   26MOL   H48818538   6.434   2.586   5.959  1.7053 -2.7473  0.1019
   26MOL   H48918539   6.452   2.633   6.194 -0.1489  0.9586 -0.6300
   26MOL   H49018540   6.344   2.493   6.236  1.2015  0.4770  1.4223
   26MOL   H49118541   6.520   2.341   6.135 -4.4025  0.2848  0.9722
   26MOL   H49218542   6.608   2.490   6.081  0.5149 -0.2733  1.5173
   26MOL   H49318543   6.665   2.551   6.307 -0.8081  0.2843 -0.1115
   26MOL   H49418544   6.561   2.436   6.372 -0.8865 -0.5047 -0.3500
   26MOL   H49518545   6.778   2.344   6.409  0.1274  5.0319  0.7759
   26MOL   H49618546   6.694   2.242   6.291  1.6155 -0.5278 -0.5654
   26MOL   H49718547   6.826   2.291   6.124  1.6700 -3.2216  2.2293
   26MOL   H49818548   6.868   2.449   6.156  2.4015 -0.4361 -0.2963
   26MOL   H49918549   6.990   2.236   6.324 -1.3133 -1.0685 -1.1598
   26MOL   H50018550   7.006   2.408   6.339 -0.0371  1.1373  0.0507
   26MOL   H50118551   7.465   2.232   6.089 -0.8171 -1.8302 -2.4472
   26MOL   H50218552   7.359   2.157   6.208 -0.9114  0.1234 -0.9308
   26MOL   H50318553   7.341   2.329   6.183 -0.1626 -0.0376  0.0720
   26MOL   H50418554   7.259   2.423   5.998  0.1548 -0.6713  0.3685
   26MOL   H50518555   7.346   2.342   5.863 -0.2747  2.0304  0.0639
   26MOL   C50618556   7.701   2.533   5.013 -0.3646 -0.3079  0.1659
   26MOL   C50718557   7.670   2.449   5.138  0.9322  0.6761  0.3144
   26MOL   C50818558   7.548   2.356   5.115 -0.2635  0.0206 -0.4061
   26MOL   C50918559   7.521   2.254   5.227 -0.0022  0.1012  0.4536
   26MOL   C51018560   7.401   2.166   5.202 -0.2995  0.5110 -0.0893
   26MOL   C51118561   7.353   2.084   5.318 -0.2722  0.2417 -0.2408
   26MOL   C51218562   7.324   2.177   5.438 -0.2433 -0.4764  0.6178
   26MOL   C51318563   7.244   2.123   5.564 -0.8284  0.6512  0.1277
   26MOL   O51418564   7.243   2.222   5.663 -0.4819  0.0001 -0.0190
   26MOL   C51518565   7.131   2.269   5.706 -0.2063 -0.4638  0.3110
   26MOL   O51618566   7.016   2.231   5.676 -0.5702  0.7000 -0.4474
   26MOL   C51718567   7.151   2.384   5.809 -0.1529  0.0137  0.7015
   26MOL   C51818568   7.011   2.412   5.874  0.5356  0.1050 -0.3931
   26MOL   C51918569   7.205   2.513   5.740  0.5523 -0.3402 -0.4165
   26MOL   H52018570   7.605   2.566   4.973  0.6214  0.2745 -1.7983
   26MOL   H52118571   7.747   2.481   4.929 -0.7630  1.4612 -1.1752
   26MOL   H52218572   7.743   2.626   5.050 -0.6372  0.2794 -0.9902
   26MOL   H52318573   7.659   2.513   5.226  2.1988 -1.4710  2.0915
   26MOL   H52418574   7.758   2.386   5.153 -0.0352 -1.3142 -2.1289
   26MOL   H52518575   7.457   2.415   5.108  1.0531  1.8585 -2.8936
   26MOL   H52618576   7.555   2.303   5.020  0.0281  0.2613 -0.5194
   26MOL   H52718577   7.609   2.191   5.238  0.3122  0.4470 -0.0697
   26MOL   H52818578   7.512   2.307   5.322 -2.2240 -0.8025  0.7858
   26MOL   H52918579   7.311   2.215   5.164  1.6257  3.0110 -1.6092
   26MOL   H53018580   7.417   2.106   5.112 -1.4717  0.1956 -0.0887
   26MOL   H53118581   7.429   2.008   5.338  2.2355  3.0134  1.0944
   26MOL   H53218582   7.266   2.031   5.280 -1.2417  2.3957 -1.1261
   26MOL   H53318583   7.260   2.254   5.396 -0.5034 -0.6046  0.7768
   26MOL   H53418584   7.415   2.222   5.478  0.1006  0.6929 -1.4250
   26MOL   H53518585   7.297   2.035   5.602 -2.4534  0.0311  1.0049
   26MOL   H53618586   7.144   2.090   5.537 -0.2020  0.7653 -2.4651
   26MOL   H53718587   6.955   2.327   5.913 -0.8135  0.9379 -0.5217
   26MOL   H53818588   6.933   2.463   5.818 -1.4825 -1.3024  1.0914
   26MOL   H53918589   7.031   2.475   5.961 -0.6391 -0.4904  0.3274
   26MOL   H54018590   7.248   2.576   5.818 -0.9464 -1.5199  1.4034
   26MOL   H54118591   7.280   2.479   5.669  0.8257 -1.2400  0.2880
   26MOL   C54218592   0.004   2.217   6.085 -0.1674 -0.5009  0.0405
   26MOL   C54318593   7.723   2.350   6.046 -0.0065  0.0404 -0.0664
   26MOL   C54418594   7.662   2.345   5.898  0.3365 -0.3989  0.2364
   26MOL   C54518595   7.633   2.480   5.836 -0.3107 -0.8169 -0.3916
   26MOL   C54618596   7.603   2.468   5.684 -0.2190  0.6719  0.0109
   26MOL   C54718597   7.587   2.607   5.615 -0.4389  0.4266 -0.0280
   26MOL   C54818598   7.536   2.601   5.464  0.5324  0.3742  0.2188
   26MOL   C54918599   7.418   2.689   5.437 -0.9046 -1.0194 -0.1198
   26MOL   O55018600   7.306   2.645   5.504  0.4419 -0.4479 -0.2476
   26MOL   C55118601   7.231   2.720   5.584 -0.4719  0.4429 -0.1946
   26MOL   O55218602   7.250   2.837   5.611 -0.4798  0.1846  0.0409
   26MOL   C55318603   7.128   2.617   5.655 -0.4338 -0.0447  0.5065
   26MOL   C55418604   7.041   2.698   5.755 -0.2318 -0.0551 -0.3530
   26MOL   C55518605   7.026   2.554   5.554  0.3332 -0.4815 -1.1008
   26MOL   H55618606   0.092   2.204   6.023 -0.7312 -1.3373 -0.5879
   26MOL   H55718607   7.712   2.136   6.071 -1.1763  0.5986 -1.2625
   26MOL   H55818608   0.039   2.218   6.189 -1.1266 -1.3251  0.3803
   26MOL   H55918609   7.649   2.377   6.120 -0.0580  2.3817 -0.9223
   26MOL   H56018610   0.029   2.417   6.057 -0.2561  0.3825 -0.1976
   26MOL   H56118611   7.576   2.278   5.898  1.0572 -1.3431 -0.2645
   26MOL   H56218612   7.731   2.296   5.828 -1.0847 -1.0278 -0.7415
   26MOL   H56318613   7.553   2.532   5.888  0.6392 -0.6090  0.8743
   26MOL   H56418614   7.721   2.544   5.847 -0.9516 -0.0985  0.6742
   26MOL   H56518615   7.513   2.407   5.673 -1.6948  3.0543 -1.6381
   26MOL   H56618616   7.682   2.413   5.632  0.1413  1.9380 -0.8126
   26MOL   H56718617   7.523   2.670   5.677 -1.7244 -1.8379  0.9771
   26MOL   H56818618   7.679   2.666   5.619  0.0852 -0.3914 -0.0271
   26MOL   H56918619   7.621   2.624   5.400  0.2874  2.6745  0.6500
   26MOL   H57018620   7.501   2.501   5.440 -1.7102  1.3021 -0.6029
   26MOL   H57118621   7.395   2.683   5.330  0.0757  0.2597 -0.4228
   26MOL   H57218622   7.433   2.797   5.448 -0.2853 -1.2376  1.3234
   26MOL   H57318623   7.040   2.806   5.740 -0.0037  0.0850  0.5490
   26MOL   H57418624   7.071   2.678   5.859 -2.5888 -1.9729  0.0053
   26MOL   H57518625   6.939   2.662   5.745 -0.1891 -0.0229 -0.9241
   26MOL   H57618626   6.943   2.512   5.610  1.2309 -0.2730  0.3983
   26MOL   H57718627   7.071   2.459   5.527 -0.2365 -2.2002  3.6672
   26MOL   C57818628   7.348   3.447   5.507  0.1688  0.3844  0.9984
   26MOL   C57918629   7.399   3.326   5.436 -0.0455 -0.5688 -0.4645
   26MOL   C58018630   7.273   3.239   5.403 -0.5391  0.0330  0.1436
   26MOL   C58118631   7.307   3.122   5.313 -0.1530  0.1471  0.3064
   26MOL   C58218632   7.195   3.023   5.262 -0.1562  0.0680  0.4714
   26MOL   C58318633   7.227   2.958   5.132  0.6279 -0.1963 -0.6046
   26MOL   C58418634   7.131   2.866   5.060 -0.1655  0.1263  0.2061
   26MOL   C58518635   7.119   2.713   5.102 -0.6083 -1.1555  0.2362
   26MOL   O58618636   7.033   2.713   5.218  0.0111  0.0414 -0.1949
   26MOL   C58718637   7.051   2.618   5.306  0.1882  0.4429  0.2469
   26MOL   O58818638   7.145   2.541   5.290  0.3873 -0.3560  0.0404
   26MOL   C58918639   6.960   2.629   5.435  0.1014  1.0594  0.4508
   26MOL   C59018640   6.936   2.777   5.470  0.4308  0.7361 -0.4042
   26MOL   C59118641   6.813   2.571   5.406  0.8329 -0.4764  0.5504
   26MOL   H59218642   7.432   3.513   5.527  0.6600 -0.4592  1.7560
   26MOL   H59318643   7.293   3.427   5.599  0.5762  0.1358  1.1895
   26MOL   H59418644   7.276   3.500   5.445  1.7263  2.0676  0.5625
   26MOL   H59518645   7.468   3.262   5.492  1.5234  1.8266  0.4149
   26MOL   H59618646   7.456   3.356   5.348  0.2291 -4.3408 -1.6745
   26MOL   H59718647   7.192   3.297   5.358  1.0738  1.8223 -0.5206
   26MOL   H59818648   7.238   3.197   5.498  2.3267  1.9659  2.1509
   26MOL   H59918649   7.387   3.068   5.364  0.0418  0.7233  0.6140
   26MOL   H60018650   7.355   3.167   5.226  1.9324 -1.6212  0.5059
   26MOL   H60118651   7.098   3.072   5.255  0.0157  0.3087 -0.2177
   26MOL   H60218652   7.196   2.936   5.328 -0.8484 -0.2695  0.0403
   26MOL   H60318653   7.319   2.901   5.150  0.1877 -0.8486 -0.4130
   26MOL   H60418654   7.261   3.034   5.061  2.1254 -0.2723  0.0067
   26MOL   H60518655   7.147   2.877   4.953  1.0593 -1.4826  0.2019
   26MOL   H60618656   7.032   2.907   5.080 -0.7177 -1.1535  0.1411
   26MOL   H60718657   7.074   2.649   5.027 -1.2645 -2.5932  1.8128
   26MOL   H60818658   7.221   2.681   5.124  0.7816  2.1440 -1.0862
   26MOL   H60918659   7.033   2.824   5.483  0.8631  0.2090 -1.6548
   26MOL   H61018660   6.866   2.830   5.404 -1.1398  0.2055  0.8148
   26MOL   H61118661   6.882   2.777   5.565  1.0244 -1.1723 -0.0467
   26MOL   H61218662   6.769   2.646   5.341 -0.2467  0.5170  2.3762
   26MOL   H61318663   6.760   2.569   5.502  0.4361  3.0104  0.4531
   26MOL   C61418664   6.945   2.378   4.464  0.1382 -0.0391 -0.2458
   26MOL   C61518665   7.068   2.448   4.534  0.4406  0.2095  0.8630
   26MOL   C61618666   7.184   2.351   4.574 -0.4212  0.2557  0.6541
   26MOL   C61718667   7.159   2.244   4.672 -0.1444  0.1663  0.0669
   26MOL   C61818668   7.081   2.286   4.792 -0.0322 -1.0969 -0.1434
   26MOL   C61918669   7.088   2.176   4.900  0.8225  0.8356 -0.3324
   26MOL   C62018670   7.022   2.220   5.032 -0.3953 -0.0146  0.5054
   26MOL   C62118671   6.872   2.250   5.018  0.0920 -0.3978  0.3933
   26MOL   O62218672   6.827   2.294   5.147  0.3661  0.1581 -0.1246
   26MOL   C62318673   6.817   2.424   5.185 -0.4782 -0.1304 -0.0704
   26MOL   O62418674   6.839   2.518   5.114  0.0054 -0.6426  0.0403
   26MOL   C62518675   6.784   2.432   5.337  0.9601  0.5479 -0.3034
   26MOL   C62618676   6.866   2.328   5.420  0.0157  0.5393 -0.2640
   26MOL   C62718677   6.633   2.391   5.362 -0.1460 -0.1386 -0.1571
   26MOL   H62818678   6.910   2.298   4.529 -0.2992  2.1111  2.2339
   26MOL   H62918679   6.976   2.334   4.369 -2.9118 -0.6093 -1.0483
   26MOL   H63018680   6.858   2.440   4.442 -1.2179 -1.0356  2.1220
   26MOL   H63118681   7.102   2.510   4.451 -0.1235 -0.6570 -0.0311
   26MOL   H63218682   7.030   2.507   4.617  0.6275 -0.3634  1.3611
   26MOL   H63318683   7.268   2.417   4.596 -1.9836  1.8759  1.8881
   26MOL   H63418684   7.212   2.289   4.489 -1.3130 -2.0807  2.0218
   26MOL   H63518685   7.255   2.200   4.702 -0.7675 -1.5464 -0.4407
   26MOL   H63618686   7.096   2.170   4.623 -0.8161 -0.3535  1.6822
   26MOL   H63718687   7.121   2.383   4.822  1.0001 -1.4436 -0.3967
   26MOL   H63818688   6.977   2.302   4.762 -0.2125  0.7556  1.3209
   26MOL   H63918689   7.039   2.086   4.865 -0.3129  0.5507  1.8713
   26MOL   H64018690   7.188   2.137   4.917  1.5865  2.0397 -1.9586
   26MOL   H64118691   7.066   2.317   5.057  2.8546 -0.7183 -2.1506
   26MOL   H64218692   7.037   2.162   5.123 -0.4706 -1.4133 -0.3524
   26MOL   H64318693   6.856   2.331   4.948 -1.0365 -0.1433  0.9413
   26MOL   H64418694   6.819   2.158   4.995 -0.8262  0.3608 -0.5662
   26MOL   H64518695   6.842   2.317   5.525  1.8785  2.4238  0.4037
   26MOL   H64618696   6.969   2.340   5.385 -0.8487  2.0041 -2.4603
   26MOL   H64718697   6.853   2.228   5.379  3.6890 -0.6844  1.3446
   26MOL   H64818698   6.617   2.404   5.469 -1.5300  0.3649 -0.4058
   26MOL   H64918699   6.626   2.282   5.358  3.7079 -0.5204  1.3776
   26MOL   C65018700   6.158   3.401   5.559  0.2399 -0.1442 -0.3587
   26MOL   C65118701   6.160   3.252   5.521 -0.4353  0.9137  0.3966
   26MOL   C65218702   6.103   3.156   5.623 -0.7342 -0.5287 -0.1580
   26MOL   C65318703   6.099   3.011   5.578  0.0287  0.1314  0.1755
   26MOL   C65418704   6.128   2.906   5.688 -0.2885 -0.1635  0.5485
   26MOL   C65518705   6.272   2.856   5.683  0.6265 -0.0033  0.3209
   26MOL   C65618706   6.292   2.750   5.576  0.4185  0.3966 -0.1380
   26MOL   C65718707   6.445   2.709   5.555  0.0066 -0.4940 -0.0388
   26MOL   O65818708   6.448   2.593   5.476 -0.0927 -0.1769  0.3143
   26MOL   C65918709   6.477   2.596   5.344 -0.1204 -0.1180  0.0199
   26MOL   O66018710   6.495   2.696   5.280  0.7115  0.2865  0.0944
   26MOL   C66118711   6.503   2.451   5.291 -0.8063  0.0830 -0.2671
   26MOL   C66218712   6.380   2.365   5.344 -0.4511  0.0648  0.0175
   26MOL   C66318713   6.496   2.447   5.134 -0.4199  0.1747  0.8407
   26MOL   H66418714   6.186   3.466   5.475  0.1577  1.2602  0.6844
   26MOL   H66518715   6.223   3.426   5.643 -0.0659 -2.0440  0.4556
   26MOL   H66618716   6.060   3.444   5.576  1.2122  2.6544 -1.5305
   26MOL   H66718717   6.264   3.225   5.503 -1.3322 -2.0717 -0.7055
   26MOL   H66818718   6.109   3.232   5.426 -0.1121 -0.5130  0.5089
   26MOL   H66918719   6.008   3.202   5.652 -2.2630 -2.6535 -1.6015
   26MOL   H67018720   6.175   3.160   5.704 -0.1142  1.3419 -0.7757
   26MOL   H67118721   6.158   2.993   5.488  1.0381 -1.7853  1.1776
   26MOL   H67218722   5.997   2.986   5.548  0.6592 -1.1308 -1.0123
   26MOL   H67318723   6.057   2.823   5.683  0.3953 -0.6486 -1.3533
   26MOL   H67418724   6.105   2.960   5.780  0.2631 -1.3297  1.3858
   26MOL   H67518725   6.333   2.944   5.662  1.6243 -1.1876 -1.8852
   26MOL   H67618726   6.311   2.827   5.780  0.8194  1.1504  0.5988
   26MOL   H67718727   6.263   2.795   5.481  0.3469 -0.1966 -0.4010
   26MOL   H67818728   6.239   2.657   5.595  0.6574  0.3925  0.5043
   26MOL   H67918729   6.494   2.682   5.648  2.5898 -0.1274 -1.2657
   26MOL   H68018730   6.500   2.789   5.505  0.6222  0.2823  1.8486
   26MOL   H68118731   6.375   2.362   5.453 -1.7911  1.0062 -0.0097
   26MOL   H68218732   6.399   2.262   5.316 -3.0488 -0.1502 -1.1366
   26MOL   H68318733   6.281   2.396   5.309 -1.5157  1.3504  3.9178
   26MOL   H68418734   6.565   2.527   5.107 -0.7255 -0.0673 -0.7271
   26MOL   H68518735   6.537   2.349   5.107 -0.8296  0.2752 -0.1735
   26MOL   C68618736   6.825   1.551   4.901  0.0300  0.4334 -0.1373
   26MOL   C68718737   6.722   1.660   4.857 -0.6097  0.5536 -0.3215
   26MOL   C68818738   6.774   1.803   4.815  0.2914 -0.6333  0.3875
   26MOL   C68918739   6.667   1.913   4.809 -0.6927 -0.1571 -0.6843
   26MOL   C69018740   6.714   2.039   4.731 -0.4524 -0.0374 -0.2386
   26MOL   C69118741   6.615   2.151   4.744 -0.0894  0.2796  0.2623
   26MOL   C69218742   6.673   2.294   4.709 -0.0126 -0.7459  0.1771
   26MOL   C69318743   6.562   2.399   4.724 -0.3806  0.5627  0.2985
   26MOL   O69418744   6.513   2.406   4.860 -0.5333 -0.0178 -0.4065
   26MOL   C69518745   6.427   2.501   4.899  0.0753  0.1511 -0.2443
   26MOL   O69618746   6.394   2.596   4.833 -0.2555 -0.7821 -0.1900
   26MOL   C69718747   6.367   2.473   5.042  0.1053  0.5625 -0.4278
   26MOL   C69818748   6.270   2.589   5.083 -0.5390 -0.6978 -0.2345
   26MOL   C69918749   6.289   2.335   5.025  0.1172 -0.3027  0.1923
   26MOL   H70018750   6.922   1.580   4.861  0.3963 -0.5282  0.0425
   26MOL   H70118751   6.802   1.445   4.888 -1.8901  0.7406  0.5532
   26MOL   H70218752   6.825   1.563   5.009  0.4294  1.0576 -0.2025
   26MOL   H70318753   6.639   1.657   4.928  1.3323 -1.9197  1.9234
   26MOL   H70418754   6.678   1.627   4.762  1.8282 -0.4930 -1.1205
   26MOL   H70518755   6.800   1.800   4.709  1.7709  0.9035  0.6874
   26MOL   H70618756   6.860   1.826   4.877 -1.4547  3.4051  1.4378
   26MOL   H70718757   6.646   1.936   4.913  1.7291  1.2306 -0.4603
   26MOL   H70818758   6.573   1.882   4.764 -1.4167 -1.2949  1.5492
   26MOL   H70918759   6.752   2.023   4.630  3.6907  0.9218  1.0705
   26MOL   H71018760   6.808   2.067   4.780  0.2873 -1.4582 -0.8339
   26MOL   H71118761   6.538   2.128   4.670 -0.1137 -2.2117  0.9992
   26MOL   H71218762   6.565   2.143   4.840 -0.8411  1.9378  0.0215
   26MOL   H71318763   6.751   2.323   4.779 -1.1672 -1.0566  1.6232
   26MOL   H71418764   6.705   2.298   4.605 -1.3469  0.1335 -0.2145
   26MOL   H71518765   6.483   2.367   4.657  2.5182  0.9231 -3.4822
   26MOL   H71618766   6.605   2.494   4.693  4.6926 -1.8323 -0.5819
   26MOL   H71718767   6.213   2.573   5.174 -1.6318 -1.4982 -1.0348
   26MOL   H71818768   6.314   2.688   5.087  1.6131 -1.6763  1.2710
   26MOL   H71918769   6.198   2.606   5.002  1.0004 -1.1795 -1.7488
   26MOL   H72018770   6.342   2.249   4.987  2.7315  0.6705  1.5492
   26MOL   H72118771   6.222   2.346   4.939 -1.8562  0.9815  1.8431
   26MOL   H72218772   6.227   2.308   5.110 -1.9554  2.3527 -0.3830
   27MOL     C118773   2.482   0.350   5.101  0.8689  0.7198  0.0546
   27MOL     C218774   2.592   0.346   4.992 -0.5346 -0.4277 -0.5902
   27MOL     C318775   2.573   0.239   4.876 -0.2434  0.5505 -0.3087
   27MOL     C418776   2.694   0.246   4.779  0.0747 -0.8189  0.5187
   27MOL     C518777   2.752   0.098   4.751 -0.3774 -0.4191  0.3089
   27MOL     C618778   2.871   0.106   4.653  0.3718 -0.7362 -0.4595
   27MOL     C718779   2.906   7.744   4.606  0.3117 -0.0965  0.3309
   27MOL     C818780   2.991   7.739   4.480  0.1323  0.1333  0.3394
   27MOL     O918781   2.919   0.006   4.364 -0.3655 -0.0355  0.5296
   27MOL    C1018782   2.983   7.779   4.244 -0.4560 -0.2687  0.3645
   27MOL    O1118783   3.096   7.748   4.236 -0.1641 -0.0061 -0.5548
   27MOL    C1218784   2.892   0.034   4.123  0.4227 -0.4439  0.4680
   27MOL    C1318785   2.873   0.185   4.134  0.3376 -0.1209 -0.1112
   27MOL    C1418786   2.950   7.762   3.987 -0.5298 -0.0571 -0.1281
   27MOL    H1518787   2.506   0.425   5.176 -1.6703  1.5226  0.0968
   27MOL    H1618788   2.473   0.253   5.151 -0.7886  1.1397  0.5885
   27MOL    H1718789   2.390   0.388   5.059  0.3335  2.5306  2.7029
   27MOL    H1818790   2.686   0.331   5.046 -2.8517 -0.5245  3.6458
   27MOL    H1918791   2.608   0.441   4.940 -0.4949 -1.1957 -1.9861
   27MOL    H2018792   2.567   0.138   4.917  2.2358  0.2729 -0.5283
   27MOL    H2118793   2.479   0.256   4.824  0.5097  1.6764 -1.3450
   27MOL    H2218794   2.641   0.279   4.690 -2.6751  0.2821  2.5063
   27MOL    H2318795   2.764   0.326   4.805 -2.7255  1.8333  0.1451
   27MOL    H2418796   2.665   0.066   4.694  0.8683 -2.3230 -0.6066
   27MOL    H2518797   2.778   0.032   4.834  0.9421  1.5155  1.4484
   27MOL    H2618798   2.957   0.169   4.674 -1.3526  1.5341 -0.0104
   27MOL    H2718799   2.828   0.153   4.565 -0.9696  0.7225  0.9298
   27MOL    H2818800   2.815   7.692   4.577  0.5943  0.0199 -0.7818
   27MOL    H2918801   2.957   7.687   4.684 -0.1080  1.8442  2.0790
   27MOL    H3018802   3.021   7.635   4.474 -3.0141 -0.7008 -2.0772
   27MOL    H3118803   3.077   0.024   4.500 -0.4551  1.0577 -0.0817
   27MOL    H3218804   2.821   0.204   4.229 -0.7789 -1.1728 -0.5056
   27MOL    H3318805   2.967   0.235   4.110 -0.6247  2.3075  0.9222
   27MOL    H3418806   2.807   0.222   4.056 -0.0918 -0.5653  0.0356
   27MOL    H3518807   3.053   7.734   4.008  0.0518  1.2623 -1.1315
   27MOL    H3618808   2.961   0.062   3.913  2.2573 -1.2391 -1.0564
   27MOL    H3718809   2.806   7.753   4.152 -1.0243  0.2580 -2.1330
   27MOL    C3818810   2.979   0.705   3.965  0.3073  0.0428  0.5019
   27MOL    C3918811   2.964   0.638   3.826 -0.6395  0.3906 -0.5155
   27MOL    C4018812   2.877   0.507   3.826 -0.1613 -0.4264 -0.5196
   27MOL    C4118813   2.873   0.442   3.689 -0.2869 -0.1469 -0.1276
   27MOL    C4218814   2.797   0.310   3.674 -0.5240 -0.3751 -0.4103
   27MOL    C4318815   2.652   0.318   3.716  0.4627 -0.1507  0.1889
   27MOL    C4418816   2.575   0.185   3.694 -0.0498 -0.3407 -0.6626
   27MOL    C4518817   2.575   0.089   3.822 -0.3106 -0.6402  0.2307
   27MOL    O4618818   2.706   0.039   3.843 -0.2268 -0.3257  0.1499
   27MOL    C4718819   2.730   7.695   3.894 -0.8745  0.3477 -0.3238
   27MOL    O4818820   2.636   7.633   3.941 -0.4147  0.4707 -0.0372
   27MOL    C4918821   2.878   7.653   3.906 -0.6564  0.4996 -0.2463
   27MOL    C5018822   2.875   7.516   3.982  0.5432  0.5043  0.4075
   27MOL    C5118823   2.949   7.659   3.767 -0.3280  0.4197  0.1980
   27MOL    H5218824   2.881   0.728   4.007 -0.4875  0.1328 -1.3447
   27MOL    H5318825   3.025   0.804   3.965  0.0791  0.1536  0.9423
   27MOL    H5418826   3.028   0.646   4.042  3.0420  0.4459 -0.8794
   27MOL    H5518827   3.059   0.612   3.779 -0.1952 -1.4042  1.2978
   27MOL    H5618828   2.910   0.705   3.760 -0.4084  1.2990  0.2145
   27MOL    H5718829   2.908   0.433   3.900  0.4985 -0.6345 -0.9983
   27MOL    H5818830   2.784   0.533   3.876  0.4048  0.2248  0.2085
   27MOL    H5918831   2.966   0.452   3.634 -0.7093 -0.2756 -0.8699
   27MOL    H6018832   2.822   0.521   3.635  0.5458 -0.2201 -1.0282
   27MOL    H6118833   2.815   0.261   3.579 -0.3556 -2.2437  0.5639
   27MOL    H6218834   2.847   0.241   3.742 -0.4270  0.7726  0.7081
   27MOL    H6318835   2.638   0.351   3.819  0.1437  2.9872 -0.8138
   27MOL    H6418836   2.613   0.396   3.651  1.9714 -0.1076 -0.6734
   27MOL    H6518837   2.621   0.118   3.622 -0.5980 -2.4121  0.8649
   27MOL    H6618838   2.474   0.205   3.659 -0.4009  0.0326  0.5374
   27MOL    H6718839   2.501   0.009   3.817 -1.5861  0.4866  0.9907
   27MOL    H6818840   2.536   0.144   3.907 -1.4360 -1.7365  0.4423
   27MOL    H6918841   2.974   7.481   4.012  0.1991 -1.6435 -0.8663
   27MOL    H7018842   2.823   7.532   4.076 -0.3569 -0.6327  0.1128
   27MOL    H7118843   2.832   7.431   3.930  1.0059  1.8597 -2.2755
   27MOL    H7218844   3.056   7.656   3.786 -0.0905 -1.3838 -1.1968
   27MOL    H7318845   2.928   7.756   3.722  0.0049 -0.1806 -1.3061
   27MOL    C7418846   3.932   6.926   3.576 -1.2760 -0.1145  0.1477
   27MOL    C7518847   3.800   6.933   3.653  0.3890  0.0338  0.6947
   27MOL    C7618848   3.697   7.037   3.603  0.7170 -0.5134  0.8394
   27MOL    C7718849   3.595   7.071   3.713  0.4580  0.1288 -0.3221
   27MOL    C7818850   3.480   7.155   3.654  0.5360 -0.1543  0.1274
   27MOL    C7918851   3.371   7.177   3.757 -0.2190 -0.0877 -0.4399
   27MOL    C8018852   3.283   7.290   3.718 -0.9268 -0.3305 -0.0343
   27MOL    C8118853   3.158   7.309   3.802  0.3443 -0.0070  0.0832
   27MOL    O8218854   3.082   7.420   3.769  0.6155  0.2093 -0.9575
   27MOL    C8318855   2.984   7.414   3.673  0.1350  0.3896 -0.5171
   27MOL    O8418856   2.940   7.314   3.612 -0.3772  0.2075 -0.0808
   27MOL    C8518857   2.928   7.557   3.647  0.5234  0.0416  1.0690
   27MOL    C8618858   2.775   7.536   3.610  0.0688 -0.5794 -0.7675
   27MOL    C8718859   2.986   7.622   3.516 -1.0152 -0.2261 -1.2908
   27MOL    H8818860   4.010   6.865   3.623 -1.6621  0.7369  1.9090
   27MOL    H8918861   3.980   7.023   3.567  0.4573 -0.8757  0.8569
   27MOL    H9018862   3.905   6.889   3.477 -1.7669  1.6902 -0.4044
   27MOL    H9118863   3.823   6.955   3.758  1.3235  1.4718  0.2094
   27MOL    H9218864   3.760   6.832   3.649 -0.6212  0.4986 -1.6025
   27MOL    H9318865   3.744   7.132   3.581 -1.4838 -0.0442 -2.0951
   27MOL    H9418866   3.643   6.998   3.517  0.6761  0.7958  0.2715
   27MOL    H9518867   3.637   7.120   3.800  1.7514 -0.7579 -0.4266
   27MOL    H9618868   3.549   6.977   3.742 -2.1807  1.3313 -0.4597
   27MOL    H9718869   3.527   7.253   3.645 -2.1724  1.3090  1.3103
   27MOL    H9818870   3.440   7.120   3.559  3.3502  0.9369 -1.5364
   27MOL    H9918871   3.312   7.085   3.770 -1.0654  0.4378 -0.5189
   27MOL   H10018872   3.404   7.197   3.859  0.0527  0.2186 -0.5876
   27MOL   H10118873   3.335   7.385   3.729 -2.7648  0.7484 -0.4796
   27MOL   H10218874   3.255   7.290   3.613  1.0757  1.0590 -0.6014
   27MOL   H10318875   3.179   7.313   3.909  0.1011 -0.9411  0.1694
   27MOL   H10418876   3.102   7.217   3.789  1.2100 -0.3871 -1.0134
   27MOL   H10518877   2.734   7.636   3.598 -1.2323 -0.7390  1.9493
   27MOL   H10618878   2.721   7.486   3.691  1.4983  0.8860  1.1132
   27MOL   H10718879   2.764   7.469   3.524  2.6754 -1.2949 -0.5764
   27MOL   H10818880   2.946   7.560   3.436 -1.0042  0.9674 -2.2345
   27MOL   H10918881   2.933   7.717   3.508 -0.1590  0.2473 -1.3423
   27MOL   C11018882   4.180   7.061   3.233  0.0200  0.5412 -0.5374
   27MOL   C11118883   4.032   7.048   3.223  0.6523 -0.2502 -0.2914
   27MOL   C11218884   3.968   7.187   3.231  0.9786 -0.0070  0.8074
   27MOL   C11318885   3.819   7.181   3.204 -0.0040  0.2880 -0.2445
   27MOL   C11418886   3.750   7.306   3.262 -0.1762  0.1191  0.1490
   27MOL   C11518887   3.603   7.308   3.241 -0.5487 -0.6434  0.3530
   27MOL   C11618888   3.529   7.416   3.314  0.0560  0.4371  0.0921
   27MOL   C11718889   3.382   7.416   3.288  0.2290  0.3104  0.6796
   27MOL   O11818890   3.325   7.510   3.376  0.0094 -0.0064  0.0062
   27MOL   C11918891   3.194   7.512   3.396  0.3436  0.1415  0.1387
   27MOL   O12018892   3.120   7.420   3.354 -0.1277 -0.5018 -0.4167
   27MOL   C12118893   3.141   7.633   3.476  0.4405 -0.0012  0.3370
   27MOL   C12218894   3.236   7.655   3.595  0.0399  0.3060  0.3712
   27MOL   C12318895   3.153   7.761   3.380  0.0296 -0.1250 -0.2101
   27MOL   H12418896   4.223   7.109   3.145  0.6550 -0.3925 -0.7438
   27MOL   H12518897   4.211   7.122   3.318  1.1091 -0.3971 -0.2473
   27MOL   H12618898   4.226   6.965   3.258 -0.8357 -0.0550 -1.2434
   27MOL   H12718899   4.014   6.987   3.311 -0.0090 -0.5406 -0.6306
   27MOL   H12818900   4.004   6.997   3.131  2.5786  0.6928 -1.4333
   27MOL   H12918901   4.013   7.266   3.170 -2.4845  0.3480 -1.3788
   27MOL   H13018902   3.977   7.207   3.338 -0.4763 -0.4915  1.0313
   27MOL   H13118903   3.807   7.173   3.096  2.4696  0.9719 -0.5846
   27MOL   H13218904   3.781   7.089   3.250  0.1044  1.0382  1.3939
   27MOL   H13318905   3.805   7.384   3.209 -0.3505  0.0028 -0.2048
   27MOL   H13418906   3.771   7.308   3.369 -1.1136  0.0719  0.3311
   27MOL   H13518907   3.574   7.302   3.136  2.2348  0.3955 -0.5310
   27MOL   H13618908   3.570   7.210   3.276  2.3752 -1.8668 -0.1676
   27MOL   H13718909   3.565   7.517   3.296 -1.8257  1.5110  2.2942
   27MOL   H13818910   3.532   7.407   3.422  0.1464 -0.5057  0.0139
   27MOL   H13918911   3.355   7.426   3.183 -0.1297 -0.8784  0.6494
   27MOL   H14018912   3.331   7.323   3.315  1.0213  0.0438  1.2685
   27MOL   H14118913   3.217   7.734   3.668 -0.0292 -1.0762  1.8753
   27MOL   H14218914   3.229   7.573   3.666 -1.3864  0.2946  0.2291
   27MOL   H14318915   3.342   7.668   3.574 -0.3404  0.6776 -1.3962
   27MOL   H14418916   3.258   0.010   3.384  0.0513 -0.4511  2.0649
   27MOL   H14518917   3.101   0.062   3.432 -0.3943 -0.7990  0.4230
   27MOL   C14618918   3.989   0.669   3.245 -0.5259 -0.8966 -0.6622
   27MOL   C14718919   3.853   0.599   3.230  0.1904 -0.2630  0.5359
   27MOL   C14818920   3.853   0.449   3.208  0.1109  0.1298 -0.1714
   27MOL   C14918921   3.716   0.384   3.159  1.0909  0.4748  0.3640
   27MOL   C15018922   3.705   0.234   3.184  0.0500  0.0381  0.0586
   27MOL   C15118923   3.588   0.160   3.121 -0.1931  0.6967 -0.0011
   27MOL   C15218924   3.590   0.017   3.169  0.5052 -0.6637  0.1028
   27MOL   C15318925   3.483   7.714   3.100  0.2694  0.2853 -0.1136
   27MOL   O15418926   3.367   7.771   3.162  0.0820  0.2406 -0.5650
   27MOL   C15518927   3.246   7.709   3.143  0.5848  0.0694  0.1511
   27MOL   O15618928   3.229   7.607   3.078  0.1254  0.2233 -0.2114
   27MOL   C15718929   3.122   7.771   3.223  0.5462  0.4580  0.0058
   27MOL   C15818930   2.985   7.705   3.186  0.0770 -0.0121  0.0343
   27MOL   C15918931   3.115   0.146   3.198  0.5333  0.0565  0.4217
   27MOL   H16018932   3.985   0.778   3.252 -1.6474 -0.9823  0.0758
   27MOL   H16118933   4.056   0.645   3.162  0.0436  0.2522 -0.5474
   27MOL   H16218934   4.036   0.643   3.340 -0.0233  0.5322 -0.5002
   27MOL   H16318935   3.787   0.610   3.316  0.3474 -0.4543  0.6831
   27MOL   H16418936   3.802   0.658   3.154 -0.7358  0.0276  1.3685
   27MOL   H16518937   3.881   0.406   3.304  0.2752  1.4306  0.3639
   27MOL   H16618938   3.923   0.410   3.135 -0.8099 -0.7595 -0.6006
   27MOL   H16718939   3.639   0.432   3.220  0.7911 -0.9159  1.1123
   27MOL   H16818940   3.707   0.416   3.055  0.6882  0.6119  0.4389
   27MOL   H16918941   3.709   0.214   3.291  2.9289 -3.3434 -0.5581
   27MOL   H17018942   3.799   0.207   3.136 -1.4177  0.3887 -3.1339
   27MOL   H17118943   3.599   0.151   3.013 -0.2336  2.3299 -0.1655
   27MOL   H17218944   3.490   0.198   3.150 -0.0825 -0.3866  1.8530
   27MOL   H17318945   3.692   7.768   3.142  0.8390 -0.9227  1.5572
   27MOL   H17418946   3.577   0.014   3.277 -2.6099  3.2056 -0.0736
   27MOL   H17518947   3.480   7.726   2.992  0.9563  1.7476  0.0080
   27MOL   H17618948   3.490   7.612   3.139 -0.4086  0.4823  0.5426
   27MOL   H17718949   2.985   7.596   3.178 -0.6669  0.0656 -1.1264
   27MOL   H17818950   2.959   7.727   3.082  0.7433  0.5279 -0.0220
   27MOL   H17918951   2.892   7.738   3.233 -0.4623  0.5188 -1.3794
   27MOL   H18018952   3.215   0.181   3.225 -0.1642  2.3715  0.0955
   27MOL   H18118953   3.042   0.178   3.272  1.7667  1.0505  1.2387
   27MOL   C18218954   2.701   0.933   3.557 -0.1360  0.1193  0.1396
   27MOL   C18318955   2.688   0.794   3.499 -0.9332  0.7772  0.8141
   27MOL   C18418956   2.599   0.787   3.377 -0.6537  0.5082  0.0863
   27MOL   C18518957   2.631   0.664   3.297  0.8385 -0.0178  0.0161
   27MOL   C18618958   2.576   0.528   3.361 -0.7341 -0.7493 -1.0160
   27MOL   C18718959   2.649   0.404   3.307  0.3125 -0.4592  0.3309
   27MOL   C18818960   2.618   0.366   3.160 -0.1731  0.5955  0.2879
   27MOL   C18918961   2.697   0.244   3.122  0.2836  0.1873 -0.1192
   27MOL   O19018962   2.838   0.257   3.125 -0.8447 -0.4769  0.8514
   27MOL   C19118963   2.916   0.203   3.031  0.1977  0.2415  0.0701
   27MOL   O19218964   2.877   0.140   2.929 -0.2138  0.1991  0.1666
   27MOL   C19318965   3.067   0.213   3.060  0.0441 -0.1536 -0.1931
   27MOL   C19418966   3.139   0.141   2.942 -0.2221 -0.7735 -0.3829
   27MOL   C19518967   3.104   0.364   3.086 -0.8433  0.3725  0.6787
   27MOL   H19618968   2.748   0.934   3.655 -0.1122  0.6409  0.1255
   27MOL   H19718969   2.772   0.993   3.500  1.5557 -1.7010  0.2899
   27MOL   H19818970   2.606   0.983   3.572  0.7415  1.7467  0.3760
   27MOL   H19918971   2.634   0.730   3.568  0.8842 -0.9141  0.7215
   27MOL   H20018972   2.790   0.759   3.484 -1.1029  1.3536 -2.0328
   27MOL   H20118973   2.494   0.790   3.407 -0.2950  1.4411  1.2903
   27MOL   H20218974   2.623   0.878   3.321 -0.9191  1.2001  1.0721
   27MOL   H20318975   2.580   0.684   3.202  0.2769  1.2828  0.5760
   27MOL   H20418976   2.736   0.659   3.269  0.8341 -1.6789  0.2374
   27MOL   H20518977   2.472   0.524   3.331 -1.7120 -0.8787  2.2517
   27MOL   H20618978   2.562   0.529   3.469  1.1338  1.3540 -0.7474
   27MOL   H20718979   2.623   0.329   3.382 -2.1323  1.8342  1.8568
   27MOL   H20818980   2.756   0.423   3.316  0.1852  0.7585 -0.6152
   27MOL   H20918981   2.512   0.345   3.143  0.0524  0.1762 -0.6554
   27MOL   H21018982   2.639   0.451   3.095  1.1695 -1.6682 -2.3387
   27MOL   H21118983   2.656   0.198   3.032  1.8846  1.4948 -1.5441
   27MOL   H21218984   2.681   0.167   3.198 -0.2140 -1.3656 -1.7858
   27MOL   H21318985   3.244   0.120   2.962 -0.4024  0.0783  1.5624
   27MOL   H21418986   3.101   0.039   2.931 -0.1622 -0.9058  0.5554
   27MOL   H21518987   3.129   0.191   2.846  0.2159 -0.0794 -0.0729
   27MOL   H21618988   3.043   0.399   3.170  0.1367 -0.2190  1.6582
   27MOL   H21718989   3.191   0.365   3.151 -0.2916  0.2835 -0.0658
   27MOL   C21818990   2.469   1.417   2.952 -0.1945 -0.5920  0.5410
   27MOL   C21918991   2.468   1.266   2.921 -0.2563 -0.3759 -0.1808
   27MOL   C22018992   2.608   1.206   2.944  0.2709  0.7097  0.5812
   27MOL   C22118993   2.636   1.067   2.876 -0.0256  1.1361 -0.6592
   27MOL   C22218994   2.790   1.030   2.882  0.8634  0.4358 -0.2236
   27MOL   C22318995   2.839   0.907   2.799 -0.2273  0.1319  0.2730
   27MOL   C22418996   2.793   0.770   2.847  1.5172 -0.8358  0.2852
   27MOL   C22518997   2.866   0.663   2.772  0.1767 -0.4155  0.0182
   27MOL   O22618998   2.985   0.624   2.826  0.0787 -0.4621 -0.0154
   27MOL   C22718999   2.978   0.532   2.927 -0.1819 -0.3954 -0.2032
   27MOL   O22819000   2.881   0.482   2.977  0.7789 -0.3992  0.2647
   27MOL   C22919001   3.116   0.483   2.979  0.4785 -0.1226 -0.6603
   27MOL   C23019002   3.199   0.443   2.849 -0.1001  0.0661  0.0194
   27MOL   C23119003   3.195   0.607   3.049  0.8355  0.3172  0.1964
   27MOL   H23219004   2.471   1.441   3.058  1.2724  2.4230 -0.1056
   27MOL   H23319005   2.369   1.449   2.922  0.4639 -0.7625 -1.9350
   27MOL   H23419006   2.540   1.479   2.896  0.4995 -2.4168 -0.6566
   27MOL   H23519007   2.436   1.249   2.819 -0.4515 -0.6677 -0.0721
   27MOL   H23619008   2.401   1.208   2.985  2.2036 -2.6759  0.4528
   27MOL   H23719009   2.677   1.277   2.899  0.4180 -1.1346 -2.2338
   27MOL   H23819010   2.638   1.199   3.049  1.6712 -1.0156  0.0994
   27MOL   H23919011   2.599   0.987   2.941 -0.1471  0.8227 -1.1112
   27MOL   H24019012   2.591   1.049   2.779 -0.2973 -0.0885 -0.3209
   27MOL   H24119013   2.848   1.116   2.848 -1.0179  1.3303 -1.2989
   27MOL   H24219014   2.822   1.001   2.982  0.1673 -0.7936 -0.3391
   27MOL   H24319015   2.807   0.929   2.698 -2.2811  1.2884  1.1518
   27MOL   H24419016   2.947   0.922   2.792 -0.4225  1.1688 -0.6450
   27MOL   H24519017   2.688   0.744   2.834  0.7291  2.4790 -0.5152
   27MOL   H24619018   2.813   0.758   2.954  1.4701  1.8461  0.6379
   27MOL   H24719019   2.892   0.705   2.675  0.3744 -0.2650  0.1347
   27MOL   H24819020   2.809   0.572   2.752  2.0521 -1.6573  0.2097
   27MOL   H24919021   3.232   0.534   2.799 -2.1583 -0.5709 -2.6412
   27MOL   H25019022   3.131   0.395   2.779  0.2710 -0.1313 -0.2069
   27MOL   H25119023   3.292   0.392   2.873  1.1040  0.9619 -2.5520
   27MOL   H25219024   3.289   0.552   3.057 -0.9316 -2.5067  2.5123
   27MOL   H25319025   3.214   0.677   2.969 -1.4379 -0.6178 -1.2007
   27MOL   C25419026   4.063   0.229   3.870  0.0443 -0.9951  0.1551
   27MOL   C25519027   3.924   0.179   3.824 -0.2791 -0.0246 -0.5124
   27MOL   C25619028   3.843   0.279   3.746 -0.1742 -0.6277 -0.0008
   27MOL   C25719029   3.717   0.220   3.680 -0.0362 -0.0764  0.1135
   27MOL   C25819030   3.633   0.332   3.621  0.1468  0.2821  0.7021
   27MOL   C25919031   3.508   0.295   3.530 -0.1856  0.1751 -0.6331
   27MOL   C26019032   3.455   0.422   3.475  0.8055  0.1555 -0.2982
   27MOL   C26119033   3.332   0.407   3.379  0.2241 -0.1152 -0.5968
   27MOL   O26219034   3.316   0.533   3.305 -0.4584  0.8071  0.1200
   27MOL   C26319035   3.183   0.587   3.300  0.3962  0.3714  0.1882
   27MOL   O26419036   3.092   0.543   3.374 -0.0382 -0.0357  0.2828
   27MOL   C26519037   3.159   0.683   3.182 -0.2355 -0.4211  0.0381
   27MOL   C26619038   3.006   0.727   3.179  0.1976 -0.5557 -0.2014
   27MOL   C26719039   3.266   0.799   3.194  0.1883  0.2098 -0.6122
   27MOL   H26819040   4.064   0.322   3.926  0.3163 -0.3279 -0.9459
   27MOL   H26919041   4.107   0.149   3.929  1.9495  1.4483  2.1544
   27MOL   H27019042   4.133   0.254   3.791 -0.7039  0.3546 -0.1022
   27MOL   H27119043   3.942   0.101   3.750  0.2914 -0.7913  0.4330
   27MOL   H27219044   3.862   0.132   3.900 -1.6966  0.6633 -1.2214
   27MOL   H27319045   3.913   0.323   3.674  0.3804 -0.2067  0.7760
   27MOL   H27419046   3.814   0.362   3.811 -1.0849 -0.2146 -0.9283
   27MOL   H27519047   3.662   0.167   3.757  0.2998  0.6549  0.8688
   27MOL   H27619048   3.743   0.145   3.605  2.6459  0.5217  0.3934
   27MOL   H27719049   3.600   0.398   3.701 -2.0139  0.1123 -0.0086
   27MOL   H27819050   3.708   0.401   3.582  0.2325 -0.8166 -1.1428
   27MOL   H27919051   3.438   0.240   3.594  0.5439 -0.3667 -0.3027
   27MOL   H28019052   3.553   0.222   3.463 -0.3830 -1.2272  0.7336
   27MOL   H28119053   3.415   0.483   3.555 -1.7842 -0.5779 -1.0050
   27MOL   H28219054   3.535   0.473   3.420 -0.2916  0.2969 -1.7992
   27MOL   H28319055   3.357   0.326   3.310 -0.8030 -0.6909 -0.3003
   27MOL   H28419056   3.247   0.375   3.440  0.1059 -0.0949 -0.7498
   27MOL   H28519057   2.983   0.791   3.264 -1.7893  0.0443 -1.1600
   27MOL   H28619058   2.984   0.799   3.100 -1.1462 -1.2626 -0.4743
   27MOL   H28719059   2.938   0.642   3.175 -1.4458  0.8248 -3.0768
   27MOL   H28819060   3.237   0.867   3.114  2.3816  0.4923 -1.1972
   27MOL   H28919061   3.358   0.756   3.154  0.3097  0.0492 -0.1621
   27MOL   C29019062   3.296   0.925   2.760  0.0938  0.5895  0.1919
   27MOL   C29119063   3.396   0.988   2.853 -0.2246 -0.1480 -0.1817
   27MOL   C29219064   3.372   1.134   2.887 -0.6839  0.2423 -0.0634
   27MOL   C29319065   3.236   1.162   2.931 -0.5353 -0.1648 -0.3096
   27MOL   C29419066   3.230   1.273   3.041 -0.4365 -0.3999 -0.2331
   27MOL   C29519067   3.094   1.315   3.085  0.1941  0.4285 -0.3575
   27MOL   C29619068   2.985   1.214   3.110  0.3702  0.0108  0.6786
   27MOL   C29719069   3.002   1.136   3.237 -0.4277 -0.3928 -0.1912
   27MOL   O29819070   3.110   1.047   3.227 -0.5899 -0.6232 -0.6112
   27MOL   C29919071   3.164   0.988   3.342  0.0392 -0.4474  0.0497
   27MOL   O30019072   3.121   1.000   3.458  0.1955  0.2586  0.1080
   27MOL   C30119073   3.292   0.895   3.314 -0.1767 -0.1817 -0.9023
   27MOL   C30219074   3.319   0.817   3.447  0.2682 -0.0546 -0.2291
   27MOL   C30319075   3.412   0.995   3.286  1.0050  0.4616  1.3257
   27MOL   H30419076   3.204   0.981   2.743 -2.0961 -2.8360  0.4677
   27MOL   H30519077   3.258   0.832   2.802 -1.7669  1.4576  0.4681
   27MOL   H30619078   3.338   0.914   2.661  0.3757 -2.2786  0.5839
   27MOL   H30719079   3.500   0.987   2.821 -0.1286 -2.4195  0.0832
   27MOL   H30819080   3.391   0.930   2.946  0.1157 -0.3159 -0.2682
   27MOL   H30919081   3.384   1.193   2.795  0.9802  0.9036  0.5486
   27MOL   H31019082   3.448   1.170   2.957 -1.6176  2.2161 -0.0383
   27MOL   H31119083   3.175   1.197   2.848 -1.5109  2.5595  1.4969
   27MOL   H31219084   3.204   1.068   2.976  0.1595 -0.4756 -0.4567
   27MOL   H31319085   3.298   1.243   3.120  1.5306 -2.9624 -2.8024
   27MOL   H31419086   3.280   1.362   3.002 -0.8808 -0.3271 -0.6577
   27MOL   H31519087   3.057   1.391   3.015 -0.3266 -0.8295 -1.4596
   27MOL   H31619088   3.110   1.381   3.171  1.3440 -0.6867  0.2852
   27MOL   H31719089   2.984   1.140   3.030  3.3528 -2.6168  2.9258
   27MOL   H31819090   2.888   1.264   3.114 -0.1325 -0.9106  0.0658
   27MOL   H31919091   2.913   1.082   3.269 -0.0930 -1.1878 -0.5824
   27MOL   H32019092   3.034   1.209   3.311 -1.8585  0.6126 -0.5485
   27MOL   H32119093   3.352   0.883   3.528 -1.9384  3.1102 -1.7773
   27MOL   H32219094   3.394   0.739   3.448  0.9144  0.5713  1.1914
   27MOL   H32319095   3.228   0.766   3.479  0.3239  1.5790  2.7250
   27MOL   H32419096   3.389   1.044   3.192  0.1403 -0.7765  0.8803
   27MOL   H32519097   3.406   1.082   3.352 -2.0214  1.8677 -0.6706
   27MOL   C32619098   4.497   0.680   3.749 -0.1579  0.0028  0.6619
   27MOL   C32719099   4.369   0.750   3.712  0.0389 -0.3216 -0.2528
   27MOL   C32819100   4.250   0.660   3.754  0.1453 -0.2972 -0.0017
   27MOL   C32919101   4.110   0.711   3.713 -0.2155  0.2146 -0.3923
   27MOL   C33019102   3.992   0.610   3.732 -0.2469 -0.0525  0.4046
   27MOL   C33119103   3.854   0.674   3.722  0.2275  0.3620 -0.2486
   27MOL   C33219104   3.827   0.735   3.583 -0.0263 -0.0380  0.7120
   27MOL   C33319105   3.674   0.764   3.576 -0.0570 -0.1123  0.4087
   27MOL   O33419106   3.629   0.799   3.451 -0.4224  0.4989 -0.0000
   27MOL   C33519107   3.616   0.933   3.416 -0.0441 -0.1270 -0.2978
   27MOL   O33619108   3.628   1.028   3.496 -0.6486  0.0153  0.4594
   27MOL   C33719109   3.560   0.970   3.272 -0.8683  0.7059 -0.9704
   27MOL   C33819110   3.587   0.851   3.183 -0.1314 -0.3026  0.1579
   27MOL   C33919111   3.632   1.101   3.215 -0.9276 -0.1068 -0.2118
   27MOL   H34019112   4.501   0.574   3.723 -2.5930  0.5903 -2.4667
   27MOL   H34119113   4.502   0.683   3.858 -1.3727 -0.0905  0.7301
   27MOL   H34219114   4.583   0.726   3.700 -0.5697  1.0434  0.9158
   27MOL   H34319115   4.347   0.767   3.607 -2.6085 -0.8449  0.1683
   27MOL   H34419116   4.362   0.852   3.749  1.5165 -0.2747 -0.0867
   27MOL   H34519117   4.247   0.647   3.862 -2.0675 -2.6279 -0.2972
   27MOL   H34619118   4.254   0.558   3.716  1.0553  0.9589 -3.4624
   27MOL   H34719119   4.116   0.715   3.604 -3.1411  1.9542 -0.5124
   27MOL   H34819120   4.094   0.804   3.767 -2.3939 -0.6920  0.5754
   27MOL   H34919121   3.993   0.522   3.668  0.6865  0.1554  0.1277
   27MOL   H35019122   4.008   0.565   3.830  1.9166  2.0683  1.0872
   27MOL   H35119123   3.786   0.590   3.734  0.5074  0.2560  0.6570
   27MOL   H35219124   3.834   0.734   3.811  4.8442 -0.0558  1.1552
   27MOL   H35319125   3.869   0.681   3.498  0.8863 -1.6414  2.1687
   27MOL   H35419126   3.877   0.829   3.561 -2.0240  0.3637 -2.4501
   27MOL   H35519127   3.605   0.682   3.598 -1.1265  0.8736  0.7598
   27MOL   H35619128   3.654   0.847   3.644  0.2003 -0.9920  1.5798
   27MOL   H35719129   3.695   0.839   3.169 -0.5404 -1.5107 -2.1161
   27MOL   H35819130   3.553   0.758   3.229 -3.6139 -0.5804 -2.8009
   27MOL   H35919131   3.547   0.857   3.082 -0.4235 -0.5002  0.2612
   27MOL   H36019132   3.587   1.126   3.119 -3.4076 -1.1101  0.6296
   27MOL   H36119133   3.608   1.185   3.281 -1.3387 -1.1436  0.9870
   27MOL   C36219134   4.735   0.885   3.461 -0.6423 -0.2362 -0.6452
   27MOL   C36319135   4.587   0.879   3.436  0.1975  0.2410 -0.6499
   27MOL   C36419136   4.539   0.943   3.306 -0.5418  0.2051  0.4303
   27MOL   C36519137   4.390   0.911   3.261  0.2438  0.3704 -0.5176
   27MOL   C36619138   4.368   0.958   3.117 -0.0381  0.5994  0.1512
   27MOL   C36719139   4.222   0.951   3.072 -0.2061 -0.5075  0.9350
   27MOL   C36819140   4.183   1.021   2.941  0.6992  0.0604  0.6339
   27MOL   C36919141   4.024   1.027   2.918  0.1572  0.6776  0.4881
   27MOL   O37019142   3.964   1.091   3.028  0.1005 -0.3610  0.2401
   27MOL   C37119143   3.837   1.064   3.061  0.2861 -0.4177 -0.0577
   27MOL   O37219144   3.765   0.990   2.995  0.4289 -0.1088  0.4130
   27MOL   C37319145   3.789   1.125   3.195  1.1911  0.4215  0.0731
   27MOL   C37419146   3.870   1.055   3.307 -0.5042  0.2516  0.2334
   27MOL   C37519147   3.822   1.278   3.201 -1.0027 -0.0350  0.2055
   27MOL   H37619148   4.797   0.838   3.384 -0.1401 -2.2277  0.9314
   27MOL   H37719149   4.764   0.990   3.468 -0.8597 -0.1782 -0.6059
   27MOL   H37819150   4.743   0.837   3.559  0.3016 -1.1066 -1.1348
   27MOL   H37919151   4.536   0.924   3.521  2.3738 -1.0586  1.3947
   27MOL   H38019152   4.559   0.773   3.427  0.8217 -0.0286  0.5149
   27MOL   H38119153   4.592   0.902   3.220 -2.8643 -0.3647 -0.7960
   27MOL   H38219154   4.556   1.051   3.299  0.4297 -0.0785 -1.9646
   27MOL   H38319155   4.324   0.968   3.326  0.4277  0.3442 -0.3062
   27MOL   H38419156   4.358   0.808   3.275  0.3134  0.6373  1.7626
   27MOL   H38519157   4.414   1.054   3.094 -0.5555  1.2953  1.9512
   27MOL   H38619158   4.420   0.884   3.056  1.8864  2.1007 -0.0761
   27MOL   H38719159   4.165   0.994   3.155 -1.3654 -1.0710  0.4398
   27MOL   H38819160   4.182   0.850   3.075 -1.3154 -0.0321  2.9601
   27MOL   H38919161   4.222   0.963   2.857 -3.8791  0.2030 -1.7264
   27MOL   H39019162   4.231   1.119   2.930  0.9506  0.0304  1.4459
   27MOL   H39119163   4.004   1.074   2.822  0.4524 -0.3275 -0.0715
   27MOL   H39219164   3.997   0.922   2.918 -2.1380  1.2393 -0.5785
   27MOL   H39319165   3.863   1.109   3.402 -0.5139 -0.0807  0.4244
   27MOL   H39419166   3.856   0.947   3.317  1.8116 -0.0635  0.4916
   27MOL   H39519167   3.975   1.053   3.278 -0.4554  0.3979  0.3946
   27MOL   H39619168   3.815   1.305   3.306 -1.0368 -0.3162  0.2775
   27MOL   H39719169   3.929   1.284   3.177 -0.7639 -1.4771  0.8215
   27MOL   C39819170   2.844   1.325   3.526 -0.1793 -0.3557  0.7546
   27MOL   C39919171   2.886   1.473   3.505 -0.0453  0.8326  0.6835
   27MOL   C40019172   3.038   1.494   3.505  0.0260 -0.4444 -0.2314
   27MOL   C40119173   3.085   1.633   3.463 -0.2432  0.5587 -0.2185
   27MOL   C40219174   3.231   1.640   3.415 -0.0840 -0.4460  0.1895
   27MOL   C40319175   3.335   1.588   3.515  0.1247 -0.2225 -0.6446
   27MOL   C40419176   3.478   1.577   3.467 -0.5232 -0.1207 -0.3706
   27MOL   C40519177   3.494   1.447   3.395 -0.0185  0.6043  0.6563
   27MOL   O40619178   3.614   1.447   3.309  0.2710 -0.4536 -0.1351
   27MOL   C40719179   3.607   1.418   3.175 -0.4313  0.6768  0.0487
   27MOL   O40819180   3.508   1.400   3.111 -0.4960 -0.4866  0.5867
   27MOL   C40919181   3.751   1.388   3.112  0.4033  0.2618  0.0479
   27MOL   C41019182   3.831   1.519   3.137 -0.1444 -0.4923  0.3174
   27MOL   C41119183   3.741   1.343   2.962 -0.7898  0.9898 -0.0717
   27MOL   H41219184   2.736   1.326   3.533 -0.2432  3.0155  0.3669
   27MOL   H41319185   2.879   1.301   3.626  2.3632 -1.9884 -0.4644
   27MOL   H41419186   2.871   1.254   3.448 -0.6679 -0.4240  0.6481
   27MOL   H41519187   2.837   1.537   3.578 -0.6365 -0.6662  1.6120
   27MOL   H41619188   2.839   1.508   3.413 -0.8516 -0.0308  0.7600
   27MOL   H41719189   3.076   1.470   3.604  1.0209 -1.3391 -0.8261
   27MOL   H41819190   3.075   1.427   3.428  0.8411  1.1776 -1.2947
   27MOL   H41919191   3.071   1.695   3.552 -0.0388 -0.6721  0.6724
   27MOL   H42019192   3.019   1.666   3.384 -0.4362 -0.4813 -0.4919
   27MOL   H42119193   3.234   1.596   3.315 -0.7711  0.1443 -0.0957
   27MOL   H42219194   3.268   1.740   3.391  0.3346 -0.1608  1.9292
   27MOL   H42319195   3.305   1.492   3.557 -1.2301  0.6021  0.3067
   27MOL   H42419196   3.330   1.654   3.602  2.7546  0.7633 -1.1876
   27MOL   H42519197   3.499   1.656   3.395  0.5512 -0.5102 -0.4876
   27MOL   H42619198   3.548   1.583   3.550 -2.6745  1.2109  1.3917
   27MOL   H42719199   3.515   1.359   3.456 -1.5152  0.5325  1.0977
   27MOL   H42819200   3.400   1.428   3.343 -0.7502  1.7005  1.5631
   27MOL   H42919201   3.927   1.501   3.090 -0.6437 -2.5896  0.0207
   27MOL   H43019202   3.854   1.541   3.241 -0.5302 -1.0215  0.5188
   27MOL   H43119203   3.778   1.600   3.088  0.5912  0.1672  0.6041
   27MOL   H43219204   3.666   1.265   2.953  0.0499  0.3856 -2.1127
   27MOL   H43319205   3.839   1.299   2.943 -0.2830  2.5741 -1.2418
   27MOL   C43419206   3.072   2.095   3.522 -1.0757 -0.1456 -0.0631
   27MOL   C43519207   3.122   2.141   3.384 -0.6286 -0.6898  0.4387
   27MOL   C43619208   3.222   2.041   3.307  0.2861 -0.4717 -0.5522
   27MOL   C43719209   3.310   2.113   3.203 -0.3065 -0.0529 -0.1633
   27MOL   C43819210   3.435   2.033   3.154 -0.1509  0.1460 -0.1603
   27MOL   C43919211   3.407   1.924   3.057  0.1082 -0.4636 -0.6262
   27MOL   C44019212   3.518   1.839   3.006 -0.4446  0.3552  0.3871
   27MOL   C44119213   3.483   1.703   2.945  0.7193  0.0283  0.1769
   27MOL   O44219214   3.604   1.639   2.903 -0.4210  0.2415  0.1040
   27MOL   C44319215   3.593   1.512   2.846 -0.2701  0.3198  0.4555
   27MOL   O44419216   3.490   1.459   2.811 -0.4090 -0.4575  0.5004
   27MOL   C44519217   3.729   1.434   2.835 -0.4664 -0.0912  0.1266
   27MOL   C44619218   3.724   1.328   2.720 -0.1832 -0.2993 -0.1468
   27MOL   C44719219   3.856   1.523   2.825  0.2949  0.0803  0.7356
   27MOL   H44819220   3.000   2.158   3.574 -1.4071  0.0378 -0.7377
   27MOL   H44919221   3.160   2.092   3.585 -1.5633  0.0449  0.6376
   27MOL   H45019222   3.021   1.999   3.509 -0.7303 -0.4344  0.6863
   27MOL   H45119223   3.176   2.233   3.404 -1.7945  0.2246 -0.5260
   27MOL   H45219224   3.043   2.163   3.312 -0.6583  2.1425  1.2826
   27MOL   H45319225   3.182   1.951   3.260  2.2332 -0.8204 -1.5809
   27MOL   H45419226   3.290   2.016   3.388  0.2837 -1.1628 -0.7639
   27MOL   H45519227   3.340   2.206   3.253 -0.1584 -0.1072 -0.1522
   27MOL   H45619228   3.250   2.148   3.119 -0.1346  0.4460 -0.0813
   27MOL   H45719229   3.517   2.100   3.125  0.1464 -0.8263 -1.6162
   27MOL   H45819230   3.482   2.004   3.248  0.9362  1.1571 -0.3812
   27MOL   H45919231   3.372   1.968   2.964 -0.1407 -0.4862 -0.5420
   27MOL   H46019232   3.332   1.860   3.102  0.7385 -2.3447 -2.1750
   27MOL   H46119233   3.569   1.891   2.926  1.9732 -2.9664 -0.3660
   27MOL   H46219234   3.585   1.820   3.091  0.6717 -1.9133 -0.9433
   27MOL   H46319235   3.417   1.706   2.858  0.3694  1.5358  0.4939
   27MOL   H46419236   3.426   1.639   3.013  1.7474 -0.2404  0.7936
   27MOL   H46519237   3.720   1.373   2.620  0.7670 -1.8514 -0.9000
   27MOL   H46619238   3.812   1.265   2.713 -1.0816 -1.3788 -2.0137
   27MOL   H46719239   3.631   1.273   2.735  0.0016 -0.2745  1.0896
   27MOL   H46819240   3.836   1.610   2.888  1.5312  0.7237  0.2784
   27MOL   H46919241   3.944   1.488   2.879 -0.3700 -0.5683  1.4027
   27MOL   C47019242   4.224   0.536   2.251 -0.3860 -0.2663  0.3386
   27MOL   C47119243   4.308   0.654   2.295 -0.3566  0.6626  0.1508
   27MOL   C47219244   4.227   0.738   2.390  0.4639  0.2272 -0.0429
   27MOL   C47319245   4.275   0.888   2.419 -0.3674 -0.0386  0.1522
   27MOL   C47419246   4.188   0.971   2.517  0.4284  0.3707  0.6651
   27MOL   C47519247   4.235   1.119   2.514 -0.4133 -0.4929 -1.4386
   27MOL   C47619248   4.136   1.210   2.594  0.1762  0.0093 -0.0911
   27MOL   C47719249   4.170   1.354   2.592  0.2933  0.3261  0.2420
   27MOL   O47819250   4.081   1.434   2.665  0.0654 -0.0047  0.3440
   27MOL   C47919251   3.973   1.494   2.597  0.4126  0.0555  0.1579
   27MOL   O48019252   3.950   1.486   2.475 -0.4044  0.0374  0.3185
   27MOL   C48119253   3.898   1.597   2.688  0.5258 -0.3128 -0.1347
   27MOL   C48219254   3.774   1.645   2.610  0.2479  0.6664  0.0553
   27MOL   C48319255   4.007   1.696   2.727  0.1558 -0.6300  0.1409
   27MOL   H48419256   4.125   0.574   2.227 -0.5520  0.9588  2.7861
   27MOL   H48519257   4.206   0.463   2.330  0.7745  1.4102  2.2081
   27MOL   H48619258   4.276   0.493   2.166  0.4979  3.2620 -0.9797
   27MOL   H48719259   4.403   0.616   2.332 -0.5341  0.8120  0.7684
   27MOL   H48819260   4.344   0.715   2.212 -0.9323  2.3871  1.1250
   27MOL   H48919261   4.126   0.746   2.350  1.1145  1.6028 -1.4484
   27MOL   H49019262   4.233   0.675   2.479 -0.6663 -0.2894 -0.3352
   27MOL   H49119263   4.377   0.884   2.457 -0.7887 -0.9952  1.2137
   27MOL   H49219264   4.286   0.940   2.324 -2.1523 -1.2335 -0.7315
   27MOL   H49319265   4.085   0.969   2.481  0.0664  1.3373  1.6411
   27MOL   H49419266   4.197   0.933   2.619 -0.0053  1.4915  1.1266
   27MOL   H49519267   4.336   1.123   2.555 -0.9546 -1.3575  0.0078
   27MOL   H49619268   4.230   1.155   2.411 -0.5092  1.0907 -0.8879
   27MOL   H49719269   4.032   1.200   2.562 -0.1270 -1.3952  1.2502
   27MOL   H49819270   4.138   1.183   2.700 -2.7871 -0.9413 -0.2238
   27MOL   H49919271   4.181   1.381   2.487  0.8073 -0.3356  0.1253
   27MOL   H50019272   4.268   1.363   2.638  0.2982 -0.6036  0.4322
   27MOL   H50119273   3.699   1.570   2.584 -0.9695  1.2558  1.8270
   27MOL   H50219274   3.807   1.680   2.512  2.0269  0.4333  0.5481
   27MOL   H50319275   3.714   1.725   2.654  1.6590  0.3358  2.6602
   27MOL   H50419276   4.057   1.658   2.816 -1.2899 -1.2107  0.7152
   27MOL   H50519277   4.089   1.697   2.655  0.2261  0.1117  0.2291
   27MOL   C50619278   4.626   1.664   1.885  1.0771 -0.0997 -0.2828
   27MOL   C50719279   4.590   1.755   1.998 -0.0772  0.2432 -0.1535
   27MOL   C50819280   4.441   1.751   2.024  0.6845  0.5443 -0.0288
   27MOL   C50919281   4.381   1.837   2.136 -0.4491  0.4404  0.3815
   27MOL   C51019282   4.241   1.778   2.163 -0.3377  0.0787  0.4936
   27MOL   C51119283   4.167   1.857   2.277  0.3194  0.0478  0.0309
   27MOL   C51219284   4.017   1.836   2.287  0.1645 -0.1313 -0.3077
   27MOL   C51319285   3.946   1.923   2.393 -0.1098 -0.0300 -0.3499
   27MOL   O51419286   3.997   1.896   2.521 -0.3348 -0.1264 -0.6050
   27MOL   C51519287   3.920   1.916   2.629  0.3892  0.3759 -0.0713
   27MOL   O51619288   3.823   1.988   2.620 -0.1436  0.1730 -0.7481
   27MOL   C51719289   3.974   1.851   2.760 -0.1158  0.3793 -0.3527
   27MOL   C51819290   3.865   1.861   2.870 -0.1289 -0.7195  0.2422
   27MOL   C51919291   4.109   1.933   2.811 -0.1579  0.7223  0.9795
   27MOL   H52019292   4.603   1.559   1.906 -0.4182  0.4234  0.7701
   27MOL   H52119293   4.734   1.668   1.875  1.0061  1.8452 -0.3151
   27MOL   H52219294   4.577   1.690   1.791  0.9011  1.7844  0.3187
   27MOL   H52319295   4.626   1.852   1.964 -1.2856  0.1167 -1.8804
   27MOL   H52419296   4.639   1.728   2.092 -0.2386 -3.2828 -0.9950
   27MOL   H52519297   4.383   1.760   1.932 -0.7994  1.7430  0.9910
   27MOL   H52619298   4.422   1.648   2.055  0.8879  0.3517 -0.5448
   27MOL   H52719299   4.437   1.839   2.229 -2.3729 -0.6574  1.6134
   27MOL   H52819300   4.375   1.941   2.106 -2.8742  0.2857  0.2393
   27MOL   H52919301   4.192   1.782   2.065 -0.0603 -0.5028  0.3313
   27MOL   H53019302   4.249   1.672   2.187  0.4622 -0.2837 -1.2482
   27MOL   H53119303   4.175   1.962   2.250  0.5379 -0.3649 -1.5904
   27MOL   H53219304   4.211   1.835   2.374 -1.0628  1.3973  0.9828
   27MOL   H53319305   3.999   1.729   2.295 -0.1731 -0.1280 -0.9838
   27MOL   H53419306   3.985   1.872   2.189  1.5355  0.4005 -0.5663
   27MOL   H53519307   3.837   1.919   2.387 -0.3414  1.8892  1.5544
   27MOL   H53619308   3.963   2.029   2.376  2.0641 -0.4594 -0.9574
   27MOL   H53719309   3.766   1.842   2.830  0.5325 -0.0422 -1.7631
   27MOL   H53819310   3.854   1.962   2.910 -1.4660 -1.3509  1.5035
   27MOL   H53919311   3.881   1.799   2.958  2.8230 -1.4953 -0.7566
   27MOL   H54019312   4.157   1.949   2.714 -0.7973 -2.5710  0.0351
   27MOL   H54119313   4.081   2.035   2.834  0.9261  1.3066 -0.2233
   27MOL   C54219314   4.525   1.202   2.068  0.5170 -0.4463 -0.0162
   27MOL   C54319315   4.533   1.310   2.184 -0.1217 -0.0931  0.1369
   27MOL   C54419316   4.576   1.242   2.316  0.1424 -0.0920  0.6036
   27MOL   C54519317   4.609   1.351   2.420 -0.1310 -0.7533 -0.4422
   27MOL   C54619318   4.497   1.467   2.433 -0.6229 -0.2789  0.9438
   27MOL   C54719319   4.522   1.557   2.550 -0.1215  0.6683 -0.0011
   27MOL   C54819320   4.414   1.660   2.574  0.8992 -0.4943 -0.1667
   27MOL   C54919321   4.469   1.767   2.672 -0.2317  0.3238  0.6950
   27MOL   O55019322   4.371   1.841   2.734  0.0885 -0.5314  0.0464
   27MOL   C55119323   4.310   1.790   2.843 -0.2328  0.2097 -0.0289
   27MOL   O55219324   4.317   1.672   2.881  0.2565  0.6052  0.1873
   27MOL   C55319325   4.222   1.884   2.912  0.2239  0.1730  0.3246
   27MOL   C55419326   4.156   1.816   3.037 -0.1471 -0.2198  0.5897
   27MOL   C55519327   4.309   2.003   2.961  0.3801  0.3285  0.3181
   27MOL   H55619328   4.491   1.245   1.974  1.5070 -0.9197 -0.6016
   27MOL   H55719329   4.461   1.119   2.097 -0.8115  1.3907  2.4642
   27MOL   H55819330   4.625   1.166   2.043  0.2338 -1.8137  0.7851
   27MOL   H55919331   4.602   1.390   2.157 -0.6747 -0.4620 -2.5712
   27MOL   H56019332   4.431   1.349   2.189  0.4101  1.7204 -2.0667
   27MOL   H56119333   4.663   1.178   2.304  0.9335  0.7343  1.7850
   27MOL   H56219334   4.487   1.188   2.349  1.5000 -2.8643 -0.1004
   27MOL   H56319335   4.638   1.299   2.512  0.4801 -1.1121 -0.8391
   27MOL   H56419336   4.690   1.412   2.378 -0.8679  0.6103  0.0711
   27MOL   H56519337   4.404   1.414   2.457 -2.8146  1.6376 -2.7737
   27MOL   H56619338   4.501   1.518   2.337  0.3255  0.7675  1.5283
   27MOL   H56719339   4.542   1.500   2.641  0.5051  0.9784  0.0545
   27MOL   H56819340   4.615   1.607   2.524  0.6739 -1.0523 -0.5516
   27MOL   H56919341   4.387   1.712   2.482  2.2702  1.8426  0.7122
   27MOL   H57019342   4.324   1.609   2.608  1.3594 -0.9071  0.4303
   27MOL   H57119343   4.533   1.845   2.631  1.7499 -0.9365  1.3061
   27MOL   H57219344   4.530   1.719   2.749 -1.2010 -0.6102  0.8949
   27MOL   H57319345   4.082   1.744   3.003  0.6532 -0.2807 -1.1244
   27MOL   H57419346   4.103   1.884   3.102 -1.5565 -0.7122 -0.0303
   27MOL   H57519347   4.229   1.765   3.100  0.8711  1.6584  0.9682
   27MOL   H57619348   4.244   2.090   2.969  2.3274  2.3285 -3.8299
   27MOL   H57719349   4.366   2.049   2.879  0.6585 -2.9218 -1.3999
   27MOL   C57819350   4.247   1.098   3.579 -0.2341 -0.1000 -0.0334
   27MOL   C57919351   4.292   1.240   3.537 -0.8419 -0.2809 -0.3729
   27MOL   C58019352   4.350   1.249   3.391  0.0112  0.4897 -0.2374
   27MOL   C58119353   4.379   1.387   3.342  0.1448 -0.1408 -0.3578
   27MOL   C58219354   4.436   1.393   3.203 -0.4942  0.2032 -0.1148
   27MOL   C58319355   4.468   1.538   3.149  0.2345  0.2787  0.4229
   27MOL   C58419356   4.599   1.584   3.224  0.6565 -0.6849  0.2574
   27MOL   C58519357   4.654   1.723   3.187  0.1040 -0.6474  0.4280
   27MOL   O58619358   4.549   1.818   3.183  0.4890 -0.1270  0.0930
   27MOL   C58719359   4.527   1.896   3.077  0.3137  0.1562 -0.2606
   27MOL   O58819360   4.582   1.881   2.971 -0.0418 -0.2395 -0.0136
   27MOL   C58919361   4.411   2.008   3.089 -0.5153  0.1097 -0.5250
   27MOL   C59019362   4.337   1.991   3.225  0.7094  0.5457 -0.3402
   27MOL   C59119363   4.487   2.145   3.071  0.0465  0.0232  0.8290
   27MOL   H59219364   4.332   1.039   3.547 -0.0536 -0.2132  0.6526
   27MOL   H59319365   4.160   1.051   3.533 -0.3540 -0.4995  0.5850
   27MOL   H59419366   4.234   1.086   3.687  2.8313 -1.7804  0.2109
   27MOL   H59519367   4.366   1.279   3.607  0.7447  1.6901 -3.0867
   27MOL   H59619368   4.210   1.312   3.537 -1.1923 -0.6742 -0.0392
   27MOL   H59719369   4.285   1.205   3.315 -0.0319 -0.0212  0.0935
   27MOL   H59819370   4.437   1.184   3.388 -0.2822  0.0849  0.0287
   27MOL   H59919371   4.443   1.446   3.408 -0.5184  0.3587 -0.1427
   27MOL   H60019372   4.289   1.449   3.343 -0.2142 -0.6696  0.6424
   27MOL   H60119373   4.353   1.350   3.148 -0.7667  0.3103  0.2126
   27MOL   H60219374   4.524   1.330   3.194 -0.9340 -0.2826 -1.0730
   27MOL   H60319375   4.393   1.609   3.184  0.1310  0.0220  0.7175
   27MOL   H60419376   4.491   1.537   3.042  0.2415 -1.9220  0.4352
   27MOL   H60519377   4.676   1.508   3.213  0.3547 -0.4496 -4.5740
   27MOL   H60619378   4.569   1.581   3.328 -0.5696  3.0098  0.1066
   27MOL   H60719379   4.732   1.751   3.257 -0.3261 -2.5614  1.7012
   27MOL   H60819380   4.707   1.709   3.092  0.6813 -1.6822  0.8940
   27MOL   H60919381   4.277   2.082   3.221 -2.0830 -1.2101  0.0106
   27MOL   H61019382   4.266   1.909   3.232  1.6395 -0.2118  0.3684
   27MOL   H61119383   4.406   1.989   3.309 -0.7983 -0.6464  0.9066
   27MOL   H61219384   4.411   2.223   3.061  0.5320  0.1773 -2.1861
   27MOL   H61319385   4.531   2.149   2.971 -1.4372  1.7767  0.1996
   27MOL   C61419386   3.663   2.357   3.013 -0.0342 -0.6009 -0.0461
   27MOL   C61519387   3.816   2.344   3.023 -0.2905  0.4578  0.0232
   27MOL   C61619388   3.855   2.227   3.125  0.2743  0.0302 -0.4681
   27MOL   C61719389   4.010   2.180   3.129  0.2416  0.4927  0.0324
   27MOL   C61819390   4.105   2.288   3.179  0.1392  0.2917 -0.2746
   27MOL   C61919391   4.112   2.295   3.333  0.4849 -0.3176 -0.5453
   27MOL   C62019392   4.208   2.397   3.393 -1.1043 -0.2204 -0.4226
   27MOL   C62119393   4.355   2.352   3.410 -0.7194 -0.3717 -0.1124
   27MOL   O62219394   4.423   2.317   3.290 -0.5051  0.1132  0.3117
   27MOL   C62319395   4.534   2.232   3.301  0.4751  0.7418 -0.3879
   27MOL   O62419396   4.565   2.176   3.406 -0.2562 -0.5845  0.4500
   27MOL   C62519397   4.603   2.208   3.165  0.4013  0.7896  0.1690
   27MOL   C62619398   4.715   2.103   3.200  0.1196  0.3557 -0.8852
   27MOL   C62719399   4.657   2.339   3.092  1.5411  1.2142 -0.8587
   27MOL   H62819400   3.626   2.395   3.108 -1.9168 -1.8233 -0.2639
   27MOL   H62919401   3.611   2.262   2.996  1.3853 -1.4466  0.2283
   27MOL   H63019402   3.638   2.423   2.930 -0.0218 -0.6606 -0.0976
   27MOL   H63119403   3.855   2.309   2.928 -2.1081 -0.2494 -0.4886
   27MOL   H63219404   3.869   2.439   3.033  1.5785 -0.6186  0.5529
   27MOL   H63319405   3.796   2.139   3.097  1.0700 -0.2216 -1.4179
   27MOL   H63419406   3.818   2.266   3.219  0.0735  0.2981 -0.6605
   27MOL   H63519407   4.031   2.147   3.027  1.0746 -0.8031  0.6125
   27MOL   H63619408   4.026   2.091   3.189 -0.8698  0.4358  0.2547
   27MOL   H63719409   4.202   2.274   3.132 -0.3312 -3.8357 -0.1461
   27MOL   H63819410   4.076   2.385   3.138 -1.2098 -0.1521 -0.3987
   27MOL   H63919411   4.010   2.323   3.364  1.0746  0.0356  1.1538
   27MOL   H64019412   4.149   2.204   3.380 -0.3134 -0.7996 -0.8274
   27MOL   H64119413   4.179   2.431   3.492 -2.6914 -1.3913 -0.4844
   27MOL   H64219414   4.200   2.490   3.335  0.9191  0.0113 -0.3803
   27MOL   H64319415   4.428   2.419   3.456 -0.5324 -0.6975  0.0684
   27MOL   H64419416   4.350   2.261   3.469 -0.9335 -0.7136 -0.6577
   27MOL   H64519417   4.792   2.143   3.266  1.2934 -1.5233 -1.0583
   27MOL   H64619418   4.753   2.063   3.105 -0.6621 -0.9581 -0.6597
   27MOL   H64719419   4.689   2.015   3.259  1.0811  0.8923  0.3819
   27MOL   H64819420   4.564   2.395   3.082 -0.2735 -1.6206 -0.2912
   27MOL   H64919421   4.688   2.305   2.993  3.0767 -1.8122  0.5733
   27MOL   C65019422   5.772   2.496   3.243  0.3935  0.3265 -0.0015
   27MOL   C65119423   5.641   2.560   3.181  0.5256 -0.0920 -0.0324
   27MOL   C65219424   5.588   2.479   3.058  0.0243 -0.5439  0.0703
   27MOL   C65319425   5.473   2.545   2.997  0.6911 -0.7051 -0.6758
   27MOL   C65419426   5.415   2.467   2.877 -0.1897 -0.1891 -0.6063
   27MOL   C65519427   5.306   2.356   2.905 -0.2146 -0.0522 -0.5132
   27MOL   C65619428   5.158   2.415   2.889 -0.9017  0.1254  0.3538
   27MOL   C65719429   5.050   2.310   2.918 -0.4239  0.7264 -0.1381
   27MOL   O65819430   4.928   2.355   2.973 -0.8834 -0.2574 -0.3588
   27MOL   C65919431   4.909   2.360   3.107  0.3104 -0.4587 -0.1352
   27MOL   O66019432   4.993   2.324   3.186  0.6392 -0.2964 -0.2501
   27MOL   C66119433   4.774   2.427   3.152  0.3295  0.4141  0.0868
   27MOL   C66219434   4.775   2.441   3.301  0.7525 -0.1137  0.4847
   27MOL   C66319435   4.761   2.569   3.085  0.3134  0.6547 -0.2686
   27MOL   H66419436   5.828   2.558   3.313  1.9930 -0.2542 -0.7415
   27MOL   H66519437   5.842   2.466   3.164  0.3320  2.3903 -0.8916
   27MOL   H66619438   5.743   2.413   3.306  0.5220  0.2013 -0.1067
   27MOL   H66719439   5.649   2.665   3.155 -0.6162 -0.3332 -1.3452
   27MOL   H66819440   5.564   2.557   3.258 -1.0039 -0.7092 -1.5540
   27MOL   H66919441   5.573   2.378   3.094 -0.3068 -0.0254  1.4219
   27MOL   H67019442   5.663   2.476   2.978  1.3824  2.3571  1.1499
   27MOL   H67119443   5.496   2.645   2.962  1.2521 -0.9024 -0.8776
   27MOL   H67219444   5.396   2.560   3.072  1.5236 -1.6320  0.3972
   27MOL   H67319445   5.494   2.414   2.825  0.0987 -1.0895  0.7278
   27MOL   H67419446   5.383   2.533   2.796 -1.1467 -0.9966 -0.8918
   27MOL   H67519447   5.314   2.267   2.842  0.1464  0.2113 -0.8373
   27MOL   H67619448   5.310   2.322   3.008 -0.5547 -1.8480 -1.0585
   27MOL   H67719449   5.150   2.447   2.785 -0.8612  1.5416  0.7690
   27MOL   H67819450   5.134   2.499   2.954 -0.2500  0.8256 -0.2994
   27MOL   H67919451   5.090   2.231   2.981 -2.5389 -0.5130 -0.3246
   27MOL   H68019452   5.030   2.263   2.822 -0.2039  1.5460 -0.5944
   27MOL   H68119453   4.848   2.513   3.339  0.7520  0.7715 -1.1183
   27MOL   H68219454   4.796   2.350   3.356  0.6121 -0.9156 -0.7831
   27MOL   H68319455   4.679   2.471   3.344  1.4624 -0.4831  2.3692
   27MOL   H68419456   4.859   2.613   3.071  0.0730  0.9750 -0.9594
   27MOL   H68519457   4.742   2.553   2.979 -2.4818 -0.7795  0.3855
   27MOL   C68619458   4.526   3.161   2.580 -0.0460  0.3176 -0.4720
   27MOL   C68719459   4.477   3.046   2.671  0.4071 -0.6724 -0.1053
   27MOL   C68819460   4.383   3.105   2.775 -0.0817  0.0183  0.3535
   27MOL   C68919461   4.276   3.011   2.832 -0.1838 -0.3116  0.0875
   27MOL   C69019462   4.313   2.903   2.935  0.0277 -0.0069  0.2507
   27MOL   C69119463   4.194   2.825   2.989  0.1188  0.3296  0.2738
   27MOL   C69219464   4.220   2.735   3.110 -0.1676 -0.3795  0.0038
   27MOL   C69319465   4.298   2.600   3.079  0.7483  0.0609 -0.5053
   27MOL   O69419466   4.433   2.628   3.060  0.6869  0.4989 -0.0820
   27MOL   C69519467   4.513   2.639   3.166  0.1743  0.1374  0.2990
   27MOL   O69619468   4.472   2.610   3.278 -0.4542 -0.5965 -0.0762
   27MOL   C69719469   4.663   2.681   3.144 -0.2394 -0.5465  0.4410
   27MOL   C69819470   4.682   2.785   3.031  0.8272 -0.5404  0.3561
   27MOL   C69919471   4.729   2.749   3.269 -0.5271 -0.8081 -0.3514
   27MOL   H70019472   4.448   3.210   2.523  0.4523  0.9713 -0.6022
   27MOL   H70119473   4.599   3.136   2.503  0.7707  2.3205 -0.3873
   27MOL   H70219474   4.564   3.243   2.641  1.6012 -0.0265 -1.0172
   27MOL   H70319475   4.553   2.993   2.727  1.8269  1.2159 -0.2000
   27MOL   H70419476   4.434   2.966   2.610  0.1110  1.4281 -2.7334
   27MOL   H70519477   4.331   3.192   2.733  0.2713  0.5630  1.0458
   27MOL   H70619478   4.440   3.152   2.855  0.0894  1.9278 -0.8635
   27MOL   H70719479   4.206   2.981   2.754 -1.7241  1.2638  0.8419
   27MOL   H70819480   4.205   3.074   2.884  0.6136  1.2036 -0.6250
   27MOL   H70919481   4.357   2.954   3.021 -0.3770  1.7552 -0.5662
   27MOL   H71019482   4.398   2.844   2.903  0.9743  1.4620 -0.0173
   27MOL   H71119483   4.117   2.893   3.026  1.0232  0.9631  0.9915
   27MOL   H71219484   4.157   2.767   2.905 -2.2774  2.1019  0.0380
   27MOL   H71319485   4.250   2.793   3.197 -1.4067  2.4402 -1.3806
   27MOL   H71419486   4.118   2.712   3.141 -1.3502  1.7495 -2.1105
   27MOL   H71519487   4.267   2.551   2.987 -2.8891  2.3237 -0.5678
   27MOL   H71619488   4.291   2.531   3.163  1.9464 -0.7206 -1.0374
   27MOL   H71719489   4.635   2.876   3.067  0.7368 -0.2239 -0.5647
   27MOL   H71819490   4.787   2.806   3.012  0.3186  1.2639 -0.5059
   27MOL   H71919491   4.635   2.750   2.940  1.7982  0.3878 -0.5071
   27MOL   H72019492   4.837   2.741   3.269 -0.2890  1.8077 -0.9774
   27MOL   H72119493   4.708   2.690   3.358  0.7594 -0.2716  0.3133
   27MOL   H72219494   4.701   2.851   3.295 -1.3527 -0.7039 -1.6227
   28MOL     C119495   0.354   2.395   1.015 -0.4446  0.0571  0.2791
   28MOL     C219496   0.496   2.445   1.005 -0.4539  0.5778 -0.2490
   28MOL     C319497   0.496   2.594   0.973 -0.6738 -0.2776 -1.0611
   28MOL     C419498   0.643   2.659   0.970 -0.8843  0.1161 -0.3472
   28MOL     C519499   0.632   2.815   0.980 -0.5920  0.4497  0.2350
   28MOL     C619500   0.769   2.882   0.996  1.0979  0.3230 -0.7280
   28MOL     C719501   0.769   3.034   0.992  0.6038 -0.4042 -0.4383
   28MOL     C819502   0.908   3.084   0.970  0.7451 -0.1070 -0.6433
   28MOL     O919503   0.914   3.222   0.993  0.7700 -0.2097  0.1252
   28MOL    C1019504   0.930   3.304   0.898 -0.2532  0.0492  0.2545
   28MOL    O1119505   0.901   3.287   0.782 -0.2139  0.1615  0.1544
   28MOL    C1219506   0.980   3.439   0.942 -0.3740 -0.2332 -0.5304
   28MOL    C1319507   1.121   3.415   0.994  0.0579  0.5184  0.1770
   28MOL    C1419508   0.985   3.552   0.837 -0.2514 -0.5515 -0.1807
   28MOL    H1519509   0.294   2.448   0.941  0.7484  1.2001  0.1268
   28MOL    H1619510   0.301   2.425   1.106 -0.6030  1.5108 -0.2767
   28MOL    H1719511   0.355   2.286   1.014 -4.0501 -0.0525  1.2316
   28MOL    H1819512   0.549   2.396   0.924  1.3560  0.3435  1.0329
   28MOL    H1919513   0.562   2.432   1.091 -0.3343 -0.4588 -0.4892
   28MOL    H2019514   0.442   2.625   0.883 -1.3830  1.0469 -0.2000
   28MOL    H2119515   0.449   2.635   1.062 -0.4499 -1.5506 -0.3544
   28MOL    H2219516   0.703   2.628   1.055 -0.1910 -2.3339 -1.6845
   28MOL    H2319517   0.707   2.628   0.888 -1.6960 -1.5604 -0.3658
   28MOL    H2419518   0.574   2.845   1.067  0.9858  1.9411  0.8062
   28MOL    H2519519   0.590   2.852   0.886 -0.0690  3.1211  1.0046
   28MOL    H2619520   0.839   2.857   0.916  1.1101  0.5558 -0.7904
   28MOL    H2719521   0.812   2.841   1.087 -0.7786 -2.2562 -0.9267
   28MOL    H2819522   0.728   3.073   1.085 -0.3877  1.0766 -1.4730
   28MOL    H2919523   0.720   3.082   0.907 -0.8479 -0.5610  0.3033
   28MOL    H3019524   0.947   3.063   0.870  2.6609 -0.0365  0.0642
   28MOL    H3119525   0.973   3.032   1.040  0.4123 -1.5299 -1.3916
   28MOL    H3219526   1.154   3.504   1.048  0.4378  0.7355 -0.3973
   28MOL    H3319527   1.136   3.329   1.059  0.0696  0.4078  0.0298
   28MOL    H3419528   1.181   3.405   0.903 -0.2574  3.3318 -0.3814
   28MOL    H3519529   1.004   3.508   0.739 -1.8127  0.5360 -0.9898
   28MOL    H3619530   1.070   3.619   0.854 -0.2404 -0.8800  1.1443
   28MOL    H3719531   0.909   3.461   1.022 -1.0738  1.4084 -1.5746
   28MOL    C3819532   1.705   4.120   1.320  0.4896 -0.6870 -0.0328
   28MOL    C3919533   1.638   4.074   1.182  0.6112 -0.0677  0.7396
   28MOL    C4019534   1.489   4.085   1.168  0.1318 -0.2976  0.1069
   28MOL    C4119535   1.442   4.046   1.027  0.7996 -0.3627 -0.2646
   28MOL    C4219536   1.290   4.081   1.000  0.0875  0.8781  0.0656
   28MOL    C4319537   1.195   3.974   1.065  0.0129 -0.2202 -0.0766
   28MOL    C4419538   1.043   4.013   1.064 -0.6392  0.0656  0.0466
   28MOL    C4519539   0.952   3.896   1.091 -0.0673 -0.1657  0.1584
   28MOL    O4619540   0.939   3.815   0.976 -0.1071  0.9295  0.3815
   28MOL    C4719541   0.839   3.729   0.963  0.6472  0.1635  0.9014
   28MOL    O4819542   0.747   3.712   1.047  0.3748 -0.2320  0.4220
   28MOL    C4919543   0.855   3.642   0.828 -0.2177  0.2123 -0.2611
   28MOL    C5019544   0.728   3.561   0.808  0.2865 -0.5439 -0.0874
   28MOL    C5119545   0.883   3.737   0.708  0.1500 -0.6197  0.2381
   28MOL    H5219546   1.813   4.121   1.305  0.4678 -1.3002 -0.2862
   28MOL    H5319547   1.693   4.046   1.399 -0.2821 -1.1015 -0.5308
   28MOL    H5419548   1.665   4.214   1.357 -1.4600 -2.0681  1.4443
   28MOL    H5519549   1.662   3.968   1.175  2.5556  0.2906  1.5359
   28MOL    H5619550   1.677   4.127   1.096 -1.0542  0.5691  0.3636
   28MOL    H5719551   1.431   4.039   1.248 -0.7882  0.1724 -0.2908
   28MOL    H5819552   1.466   4.191   1.177 -0.1398 -0.2879 -0.6774
   28MOL    H5919553   1.453   3.938   1.019 -0.6622 -0.6211  0.8818
   28MOL    H6019554   1.505   4.088   0.949  0.6221 -1.0862 -0.8116
   28MOL    H6119555   1.272   4.175   1.053  1.0965  2.2402 -1.9537
   28MOL    H6219556   1.273   4.095   0.893 -1.6017  0.1187  0.2141
   28MOL    H6319557   1.207   3.880   1.012 -2.7534 -0.0307 -1.1184
   28MOL    H6419558   1.223   3.970   1.170 -3.4373 -1.6971  0.8557
   28MOL    H6519559   1.019   4.062   0.970  0.7237  0.8280  0.0907
   28MOL    H6619560   1.027   4.080   1.149 -1.1708  0.0699 -0.0549
   28MOL    H6719561   0.851   3.929   1.116  0.6046  2.1823 -0.1048
   28MOL    H6819562   0.992   3.843   1.178 -0.6387  0.7130  0.9623
   28MOL    H6919563   0.723   3.502   0.899  0.0052  1.0480  0.9594
   28MOL    H7019564   0.642   3.627   0.807 -0.4866 -1.4974  1.5701
   28MOL    H7119565   0.730   3.496   0.721  1.3861  1.1905 -1.3964
   28MOL    H7219566   0.903   3.659   0.635  1.9848  2.0055 -2.1513
   28MOL    H7319567   0.976   3.790   0.726  0.2910 -0.1799 -1.7030
   28MOL    C7419568   0.854   2.757   0.559 -0.0910 -0.4100  0.2418
   28MOL    C7519569   0.845   2.907   0.600 -0.3116  0.4353 -0.0127
   28MOL    C7619570   0.821   2.993   0.482 -0.2266 -1.1944  0.2376
   28MOL    C7719571   0.806   3.141   0.520 -0.7156 -0.0614  0.4405
   28MOL    C7819572   0.748   3.225   0.403  0.1653 -0.5250 -0.0889
   28MOL    C7919573   0.717   3.376   0.441  0.3529  0.2400 -0.6759
   28MOL    C8019574   0.689   3.484   0.333  0.1978 -0.0446 -0.4431
   28MOL    C8119575   0.626   3.609   0.399 -0.3813  0.4507 -0.4360
   28MOL    O8219576   0.716   3.674   0.483 -0.5681  0.2414  0.4404
   28MOL    C8319577   0.672   3.772   0.560 -0.4593  0.2143  0.8209
   28MOL    O8419578   0.554   3.808   0.565  0.0153  0.2614  0.3285
   28MOL    C8519579   0.779   3.836   0.654  0.0612 -0.0829  0.3024
   28MOL    C8619580   0.696   3.908   0.764 -0.3370  0.8122  0.0976
   28MOL    C8719581   0.853   3.947   0.586 -0.3998  0.2869  0.3503
   28MOL    H8819582   0.758   2.722   0.521 -0.5495 -2.2148  2.9064
   28MOL    H8919583   0.879   2.684   0.637 -0.4057 -1.3640 -0.5314
   28MOL    H9019584   0.932   2.741   0.484 -0.1364  0.4125  0.0204
   28MOL    H9119585   0.935   2.943   0.648  0.2614 -0.2587 -0.5662
   28MOL    H9219586   0.767   2.910   0.676  2.0946  1.4723  2.4692
   28MOL    H9319587   0.905   2.986   0.413  0.0456  1.3101  0.2718
   28MOL    H9419588   0.733   2.963   0.425 -0.2168  1.4698 -1.2699
   28MOL    H9519589   0.904   3.185   0.543 -0.6948  1.0989 -1.7309
   28MOL    H9619590   0.748   3.153   0.611  0.4996  3.8974  0.7855
   28MOL    H9719591   0.816   3.216   0.318 -2.0387 -2.3187 -1.7240
   28MOL    H9819592   0.659   3.176   0.364  0.1808 -1.1154  0.5979
   28MOL    H9919593   0.639   3.388   0.516  1.4374  1.6716  0.2463
   28MOL   H10019594   0.804   3.410   0.498  1.7200 -1.7423 -1.4860
   28MOL   H10119595   0.777   3.514   0.276  0.9369 -0.1058  0.6698
   28MOL   H10219596   0.623   3.448   0.254  2.6354 -1.5300 -1.8491
   28MOL   H10319597   0.541   3.586   0.463 -0.0283  0.2648 -0.0256
   28MOL   H10419598   0.593   3.669   0.314 -1.5938 -0.9028 -0.9341
   28MOL   H10519599   0.609   3.967   0.734 -1.9802 -1.4288  0.3210
   28MOL   H10619600   0.767   3.974   0.815  1.5147  0.1292 -1.5141
   28MOL   H10719601   0.653   3.836   0.833  0.0485 -1.1128 -1.6357
   28MOL   H10819602   0.783   4.030   0.572 -1.5848 -0.8998 -0.8364
   28MOL   H10919603   0.918   3.991   0.662  1.0671  0.4028 -0.9529
   28MOL   C11019604   0.106   4.598   0.117  0.0318 -0.4784 -0.3714
   28MOL   C11119605   0.170   4.523   0.236 -0.1249 -0.0705  0.1984
   28MOL   C11219606   0.140   4.373   0.225  0.2578  0.3199  0.0656
   28MOL   C11319607   0.272   4.292   0.186  0.1448  0.3901 -0.1997
   28MOL   C11419608   0.261   4.142   0.175  0.3380  0.3317 -0.1831
   28MOL   C11519609   0.393   4.079   0.142  0.4144  0.6619 -0.2443
   28MOL   C11619610   0.490   4.069   0.264 -0.1441 -0.4188 -0.4318
   28MOL   C11719611   0.615   3.983   0.238 -0.2619  0.5505 -0.0063
   28MOL   O11819612   0.715   3.994   0.334  0.0748  0.0492 -0.3377
   28MOL   C11919613   0.831   3.928   0.318 -0.1901 -0.1195  0.2812
   28MOL   O12019614   0.860   3.867   0.217  0.3849  0.3897  0.1036
   28MOL   C12119615   0.930   3.940   0.444 -0.1635 -0.9013  0.9178
   28MOL   C12219616   1.022   3.807   0.441  0.8303 -0.1568  0.0903
   28MOL   C12319617   1.022   4.065   0.433  0.0644  0.3465  0.8149
   28MOL   H12419618   0.155   4.570   0.024  0.6652  0.7685 -0.4256
   28MOL   H12519619   0.000   4.571   0.107  0.3174 -1.2905 -1.2614
   28MOL   H12619620   0.094   4.706   0.133 -3.6915 -0.7488 -0.8025
   28MOL   H12719621   0.118   4.555   0.326 -2.5159  1.4441 -1.6374
   28MOL   H12819622   0.272   4.549   0.265 -0.1323 -0.7910  0.8802
   28MOL   H12919623   0.056   4.343   0.163  0.3137  0.4932 -0.0928
   28MOL   H13019624   0.115   4.337   0.325  1.8360 -0.2958  0.2657
   28MOL   H13119625   0.288   4.309   0.080 -0.8573 -0.0115 -0.4233
   28MOL   H13219626   0.352   4.331   0.249 -0.3887 -0.6751  1.1761
   28MOL   H13319627   0.173   4.106   0.122  0.5341 -0.6529  0.1563
   28MOL   H13419628   0.234   4.103   0.273 -0.9026  3.1262  0.6380
   28MOL   H13519629   0.377   3.981   0.098  1.3952 -0.2821  1.4160
   28MOL   H13619630   0.442   4.137   0.064  0.7889  0.8552  0.1279
   28MOL   H13719631   0.444   4.032   0.356  1.7252  0.7504  1.0054
   28MOL   H13819632   0.528   4.168   0.287  0.8779 -1.2082  1.3698
   28MOL   H13919633   0.590   3.879   0.219 -0.3868  0.7680 -1.0552
   28MOL   H14019634   0.659   4.014   0.144 -0.6539  0.8336 -0.0975
   28MOL   H14119635   0.960   3.717   0.438 -1.6257  1.5200 -1.1333
   28MOL   H14219636   1.084   3.809   0.352 -0.0244 -0.4078 -0.5117
   28MOL   H14319637   1.079   3.806   0.534  1.7500  1.5601 -0.4430
   28MOL   H14419638   1.093   4.036   0.355 -0.6345  0.1838  0.2300
   28MOL   H14519639   1.074   4.057   0.528  0.3464  0.9297  0.7152
   28MOL   C14619640   1.445   4.195   7.229 -0.8342  0.8835 -0.4677
   28MOL   C14719641   1.325   4.165   7.313 -0.0162 -0.8237  0.1555
   28MOL   C14819642   1.214   4.284   7.328 -0.0625 -0.6459  0.1789
   28MOL   C14919643   1.120   4.276   7.451 -0.1986  0.3688 -0.1059
   28MOL   C15019644   1.181   4.315   7.590 -0.3025 -0.5149  0.8697
   28MOL   C15119645   1.073   4.328   7.692 -0.2824 -0.1960 -0.3630
   28MOL   C15219646   0.981   4.207   7.700  0.1152  0.1252 -0.4235
   28MOL   C15319647   0.882   4.206   0.042  0.0448 -0.0708 -0.5469
   28MOL   O15419648   0.947   4.202   0.169 -0.0128  0.3565  0.0063
   28MOL   C15519649   0.883   4.237   0.281 -0.3381 -0.6738 -0.0895
   28MOL   O15619650   0.774   4.291   0.284  0.3533  0.8412 -0.4770
   28MOL   C15719651   0.969   4.214   0.409 -0.7560 -0.3012 -0.1714
   28MOL   C15819652   0.889   4.267   0.531 -0.3920 -0.2560  0.1816
   28MOL   C15919653   1.108   4.292   0.399 -1.0814  0.3354  0.5065
   28MOL   H16019654   1.535   4.151   7.272 -1.2402  0.5902  0.0921
   28MOL   H16119655   1.470   4.301   7.230 -0.7104  0.8652 -1.2239
   28MOL   H16219656   1.428   4.169   7.125 -1.2948 -0.5911 -0.0384
   28MOL   H16319657   1.284   4.066   7.291  1.6197 -1.2637 -0.9785
   28MOL   H16419658   1.357   4.152   7.416 -0.6691  0.7839  0.5856
   28MOL   H16519659   1.146   4.267   7.246 -1.0755 -0.8866  1.0584
   28MOL   H16619660   1.253   4.386   7.324  2.6179 -1.6641 -1.1064
   28MOL   H16719661   1.045   4.353   7.431  0.3328  0.3840 -2.0992
   28MOL   H16819662   1.083   4.174   7.457 -1.0737  0.6584 -0.3769
   28MOL   H16919663   1.236   4.410   7.586  0.1807 -0.7942  0.7977
   28MOL   H17019664   1.255   4.241   7.621 -2.7328 -2.7791  1.3526
   28MOL   H17119665   1.010   4.415   7.677 -0.2916  0.1482  1.4693
   28MOL   H17219666   1.124   4.337   0.009 -1.5916  2.1526  0.1314
   28MOL   H17319667   0.922   4.190   7.611  0.4569 -0.5868 -0.5169
   28MOL   H17419668   1.045   4.120   7.715 -1.1520 -0.4437  2.0169
   28MOL   H17519669   0.816   4.293   0.047  0.7489  0.4974 -1.0747
   28MOL   H17619670   0.803   4.131   0.046  0.5334 -0.5272  1.0360
   28MOL   H17719671   0.788   4.227   0.527  0.2683 -1.9477  0.3075
   28MOL   H17819672   0.855   4.371   0.524 -0.1155 -0.1545  0.3411
   28MOL   H17919673   0.928   4.252   0.632  0.7714  1.8304  0.0857
   28MOL   H18019674   1.163   4.271   0.308  0.0521  0.0991  1.2420
   28MOL   H18119675   1.166   4.246   0.478 -0.5838  1.8319  1.0325
   28MOL   C18219676   1.899   4.471   1.199  0.1601  0.4615  0.7328
   28MOL   C18319677   1.822   4.429   1.067  0.1089 -0.8504 -0.4844
   28MOL   C18419678   1.676   4.449   1.090 -0.4681  0.4053 -0.2576
   28MOL   C18519679   1.591   4.454   0.959 -0.3527 -0.1137 -0.3130
   28MOL   C18619680   1.438   4.427   0.982  0.7303 -0.0925 -0.2727
   28MOL   C18719681   1.351   4.477   0.861 -0.3147 -0.9161 -0.7839
   28MOL   C18819682   1.210   4.437   0.884 -0.1207  0.2425 -0.9275
   28MOL   C18919683   1.116   4.499   0.784 -0.0339 -0.7963 -0.0924
   28MOL   O19019684   1.144   4.457   0.656 -0.0754  0.7669 -0.3722
   28MOL   C19119685   1.087   4.517   0.550  0.0057  0.3177  0.6339
   28MOL   O19219686   1.015   4.613   0.557  0.4897  0.2451 -0.0897
   28MOL   C19319687   1.125   4.452   0.415  0.3004 -0.9072 -0.2095
   28MOL   C19419688   1.029   4.511   0.306  0.0271 -0.0073  0.2513
   28MOL   C19519689   1.279   4.479   0.384 -0.4460 -0.5313  0.9001
   28MOL   H19619690   1.882   4.402   1.281 -0.0889 -0.6393 -0.2345
   28MOL   H19719691   2.005   4.451   1.189  0.4548  2.0308  0.5768
   28MOL   H19819692   1.887   4.564   1.254 -0.5431  0.2598  0.9254
   28MOL   H19919693   1.835   4.324   1.041  0.1243 -0.4747 -2.0207
   28MOL   H20019694   1.849   4.497   0.986 -0.8226  0.7564  0.5091
   28MOL   H20119695   1.628   4.362   1.136  0.4766 -0.5508 -1.0467
   28MOL   H20219696   1.655   4.544   1.139  0.1111  0.4001  0.0037
   28MOL   H20319697   1.613   4.551   0.915  0.0805  0.5018  1.2412
   28MOL   H20419698   1.635   4.378   0.894  0.2871 -0.7904  0.9084
   28MOL   H20519699   1.400   4.482   1.068  0.1376 -0.7607 -0.1114
   28MOL   H20619700   1.421   4.321   0.998  0.1303 -0.2342 -1.7669
   28MOL   H20719701   1.391   4.425   0.773 -0.6236 -2.1874 -0.1822
   28MOL   H20819702   1.368   4.584   0.855  0.2826 -0.7958  2.2348
   28MOL   H20919703   1.214   4.328   0.886  2.0568  0.2473 -2.3816
   28MOL   H21019704   1.183   4.465   0.986 -0.1570  1.5498 -1.2836
   28MOL   H21119705   1.125   4.608   0.790 -1.3618 -0.6138 -1.1506
   28MOL   H21219706   1.015   4.464   0.803 -0.1665 -0.3217  0.0805
   28MOL   H21319707   1.035   4.620   0.307  0.7567 -0.0502  0.5764
   28MOL   H21419708   1.051   4.475   0.206  0.1799  1.6382 -0.3204
   28MOL   H21519709   0.921   4.503   0.321 -0.0134  0.7370  0.3836
   28MOL   H21619710   1.339   4.434   0.463  1.7967  1.0126  0.1404
   28MOL   H21719711   1.310   4.411   0.305 -0.1491 -0.1713  0.7031
   28MOL   C21819712   1.851   4.993   0.193 -0.0012  0.3128  0.1128
   28MOL   C21919713   1.835   4.886   0.087 -0.5739  0.4668 -0.3308
   28MOL   C22019714   1.699   4.899   0.017 -0.5406 -0.3739 -0.1218
   28MOL   C22119715   1.694   4.800   7.676  0.6716  0.6561 -0.2049
   28MOL   C22219716   1.563   4.802   7.597 -0.6115 -0.2397  0.2361
   28MOL   C22319717   1.455   4.718   7.657  0.4034  0.2137  0.2607
   28MOL   C22419718   1.347   4.791   7.740 -0.7578  0.1426  0.4622
   28MOL   C22519719   1.234   4.696   0.014 -0.1364  0.3614  0.1788
   28MOL   O22619720   1.269   4.636   0.143 -0.2911 -0.7131 -0.2197
   28MOL   C22719721   1.273   4.706   0.260  0.6862  0.1868  0.6849
   28MOL   O22819722   1.220   4.819   0.274  0.0382 -0.2657  0.0110
   28MOL   C22919723   1.344   4.626   0.377 -1.5206  0.1685  0.8114
   28MOL   C23019724   1.492   4.606   0.333 -0.6540  0.1989 -0.1861
   28MOL   C23119725   1.339   4.700   0.514  0.0499  0.4175 -0.1179
   28MOL   H23219726   1.938   4.968   0.253 -1.3319 -1.1012  1.5023
   28MOL   H23319727   1.773   4.988   0.269  0.9545  2.6026  1.2843
   28MOL   H23419728   1.857   5.093   0.150 -0.0926  0.1788 -0.2126
   28MOL   H23519729   1.851   4.784   0.123  0.2261  0.5228 -0.5155
   28MOL   H23619730   1.921   4.900   0.021 -1.4626 -0.8653 -1.8030
   28MOL   H23719731   1.616   4.877   0.084 -0.2740 -1.0945 -0.0292
   28MOL   H23819732   1.691   4.999   7.753  0.0369  0.0618  0.7608
   28MOL   H23919733   1.771   4.839   7.611  0.5757  1.2057  0.0099
   28MOL   H24019734   1.733   4.700   7.695 -0.4802  0.4356  1.1057
   28MOL   H24119735   1.532   4.907   7.590 -0.9043 -0.3835 -0.7164
   28MOL   H24219736   1.585   4.779   7.493 -0.2317 -2.0088  0.7047
   28MOL   H24319737   1.391   4.668   7.584 -1.2475  2.5408  0.0314
   28MOL   H24419738   1.493   4.634   7.715  0.6020  0.0269 -0.1410
   28MOL   H24519739   1.292   4.859   7.675  0.0082 -0.7060 -1.0936
   28MOL   H24619740   1.386   4.852   0.042  2.0905  0.3476 -1.0104
   28MOL   H24719741   1.196   4.621   7.724 -2.6564 -0.5001  2.3860
   28MOL   H24819742   1.140   4.751   0.018 -1.2072 -1.5263  2.2900
   28MOL   H24919743   1.505   4.556   0.237 -1.4982 -0.1622 -0.1210
   28MOL   H25019744   1.539   4.540   0.406 -0.1132 -0.0386 -0.7478
   28MOL   H25119745   1.541   4.703   0.327  0.4154 -0.2357  1.1412
   28MOL   H25219746   1.237   4.736   0.523  0.3611  1.7904 -1.8133
   28MOL   H25319747   1.357   4.628   0.594 -1.2099  0.0546 -0.1545
   28MOL   C25419748   1.959   4.003   0.381  0.2379 -0.1842 -0.3635
   28MOL   C25519749   1.956   4.134   0.458 -0.0676  0.5754  0.5757
   28MOL   C25619750   1.992   4.254   0.365 -0.8469  0.4020 -0.5642
   28MOL   C25719751   1.999   4.382   0.449  0.1424  0.0170 -0.2510
   28MOL   C25819752   2.030   4.497   0.348 -0.1337 -1.4026  0.3220
   28MOL   C25919753   1.983   4.635   0.392  0.2258  0.0709  1.0002
   28MOL   C26019754   1.831   4.641   0.414 -0.4316 -0.2787 -0.1669
   28MOL   C26119755   1.806   4.775   0.490  0.0867 -0.8071 -0.4200
   28MOL   O26219756   1.665   4.820   0.495 -0.5025 -0.0981 -0.6788
   28MOL   C26319757   1.573   4.771   0.589  0.5307  0.3293  0.0596
   28MOL   O26419758   1.596   4.689   0.676 -0.4639 -0.2989  0.2682
   28MOL   C26519759   1.429   4.825   0.560 -0.4210  0.1190 -0.7542
   28MOL   C26619760   1.370   4.871   0.699 -0.0028  0.1800 -0.1695
   28MOL   C26719761   1.420   4.943   0.455  0.3979 -0.6593 -0.3273
   28MOL   H26819762   1.919   3.924   0.444  2.9895 -1.0423  0.3732
   28MOL   H26919763   1.899   3.985   0.292  0.0320 -0.7523 -0.1127
   28MOL   H27019764   2.061   3.968   0.364  0.3510 -0.4605  0.8457
   28MOL   H27119765   1.858   4.153   0.501  0.1470  3.6056 -0.1516
   28MOL   H27219766   2.020   4.128   0.546  0.6333  0.4091  0.0593
   28MOL   H27319767   1.925   4.264   0.279  2.9315 -0.3771 -3.7422
   28MOL   H27419768   2.090   4.221   0.332 -1.4133 -0.5475 -1.3564
   28MOL   H27519769   2.084   4.373   0.517 -1.1102  1.3254  1.5552
   28MOL   H27619770   1.905   4.387   0.505 -1.5677  3.1579 -3.1965
   28MOL   H27719771   2.138   4.491   0.337 -0.0455 -0.2471  0.4637
   28MOL   H27819772   1.988   4.484   0.248 -0.2864  0.9095  0.0409
   28MOL   H27919773   2.007   4.702   0.309 -1.8599  1.2840  1.3407
   28MOL   H28019774   2.040   4.664   0.480 -0.6000  0.3277  1.4665
   28MOL   H28119775   1.774   4.624   0.323 -1.3455  1.0764  0.1324
   28MOL   H28219776   1.791   4.556   0.469 -0.0913  0.8987  1.9457
   28MOL   H28319777   1.849   4.767   0.590 -2.0776  0.5980  0.6704
   28MOL   H28419778   1.857   4.856   0.437  0.0424 -1.3964 -1.3632
   28MOL   H28519779   1.270   4.913   0.694  0.7898  2.2804  0.9303
   28MOL   H28619780   1.347   4.797   0.775 -2.7166  1.0631 -0.0995
   28MOL   H28719781   1.445   4.927   0.755 -0.8004  1.5411 -0.4493
   28MOL   H28819782   1.311   4.953   0.453  0.3244 -1.5045 -0.5724
   28MOL   H28919783   1.457   4.913   0.357  1.8105 -0.5826  0.1693
   28MOL   C29019784   0.584   4.682   0.992  0.0205 -0.2026 -0.9597
   28MOL   C29119785   0.649   4.736   0.865 -0.5365  0.0119  0.3052
   28MOL   C29219786   0.743   4.857   0.904  0.3592  0.5952  0.8617
   28MOL   C29319787   0.824   4.910   0.786  0.8401 -0.0423  0.0222
   28MOL   C29419788   0.948   4.992   0.819  0.4816  0.2737 -0.4843
   28MOL   C29519789   1.003   5.055   0.692 -0.1740 -0.2383  0.1894
   28MOL   C29619790   1.102   5.163   0.733 -0.1495 -0.6578 -0.2881
   28MOL   C29719791   1.149   5.242   0.609  0.0003  0.3245 -0.2009
   28MOL   O29819792   1.253   5.186   0.535 -0.5040 -0.1309  0.0437
   28MOL   C29919793   1.374   5.167   0.583  0.6989 -0.2751  0.0651
   28MOL   O30019794   1.411   5.217   0.688  0.2048  0.4800 -0.3226
   28MOL   C30119795   1.470   5.088   0.484 -0.2721 -0.2608 -0.2185
   28MOL   C30219796   1.615   5.107   0.542  0.0000 -0.0427 -0.0351
   28MOL   C30319797   1.472   5.159   0.343 -0.3979  0.2412  0.2774
   28MOL   H30419798   0.543   4.765   1.049 -2.8361 -0.0638 -3.0802
   28MOL   H30519799   0.657   4.639   1.060  0.2694 -1.0302 -1.7357
   28MOL   H30619800   0.507   4.605   0.980 -0.2977 -0.1476  0.6824
   28MOL   H30719801   0.569   4.761   0.796  1.1749 -0.2269 -1.8365
   28MOL   H30819802   0.703   4.666   0.801  0.9029  2.4387 -1.2058
   28MOL   H30919803   0.809   4.822   0.983 -2.8412 -0.4546  3.2117
   28MOL   H31019804   0.684   4.932   0.958 -0.2867 -0.1267  1.1604
   28MOL   H31119805   0.858   4.828   0.723  0.9078  0.3916 -0.5018
   28MOL   H31219806   0.763   4.971   0.719  0.5862  0.9245  1.1194
   28MOL   H31319807   0.916   5.069   0.890  0.5895 -0.1683  0.0492
   28MOL   H31419808   1.027   4.935   0.868  1.2860  0.0602 -2.0187
   28MOL   H31519809   0.921   5.106   0.641  0.0898  0.0917  0.0933
   28MOL   H31619810   1.045   4.989   0.616  0.9075 -1.4182  1.8031
   28MOL   H31719811   1.177   5.137   0.807 -0.5790 -1.4889 -0.1393
   28MOL   H31819812   1.047   5.237   0.791 -1.8612 -1.5278 -0.7538
   28MOL   H31919813   1.189   5.342   0.631 -1.8476  1.0041  0.1465
   28MOL   H32019814   1.066   5.261   0.541  0.1673  0.3188 -0.4102
   28MOL   H32119815   1.689   5.087   0.464  0.4586  0.0458  0.3752
   28MOL   H32219816   1.624   5.041   0.628  1.0949 -2.1713 -1.7185
   28MOL   H32319817   1.638   5.207   0.579  0.2423 -0.2001  0.2466
   28MOL   H32419818   1.546   5.103   0.286 -0.8872 -0.8579  0.7108
   28MOL   H32519819   1.382   5.127   0.290 -0.3094 -0.3402  0.4781
   28MOL   C32619820   1.572   5.956   7.300  0.4689  0.1262  0.1854
   28MOL   C32719821   1.561   5.821   7.228  0.6299  0.2625  0.0942
   28MOL   C32819822   1.619   5.718   7.314  0.6561  0.2958 -0.6521
   28MOL   C32919823   1.523   5.649   7.419 -0.4266 -0.5104 -0.1213
   28MOL   C33019824   1.592   5.523   7.478 -0.6043  0.0410  0.1872
   28MOL   C33119825   1.506   5.449   7.588 -0.1216  0.2998 -0.5684
   28MOL   C33219826   1.573   5.316   7.642  0.0060  0.1887 -0.1090
   28MOL   C33319827   1.472   5.239   7.717  0.9971  0.2483  0.6338
   28MOL   O33419828   1.508   5.245   0.075 -0.2348  0.3434  0.1996
   28MOL   C33519829   1.449   5.334   0.159  0.1538  0.5380 -0.2307
   28MOL   O33619830   1.356   5.412   0.125  0.4228 -0.2912  0.9255
   28MOL   C33719831   1.504   5.318   0.306 -0.5572 -0.0122 -0.5532
   28MOL   C33819832   1.432   5.433   0.391  0.2452  0.0992 -1.2155
   28MOL   C33919833   1.662   5.346   0.302 -0.5185 -0.0316  0.0868
   28MOL   H34019834   1.527   5.958   7.399  4.4239 -1.3758  2.0963
   28MOL   H34119835   1.534   6.026   7.226 -0.0521  0.1769  0.4972
   28MOL   H34219836   1.673   5.993   7.317  0.4629 -0.3562  1.3256
   28MOL   H34319837   1.623   5.840   7.140  1.8271  1.7991  1.2404
   28MOL   H34419838   1.466   5.789   7.185  1.3313 -1.3161 -0.3295
   28MOL   H34519839   1.702   5.760   7.371 -1.6947  3.3982  0.6511
   28MOL   H34619840   1.654   5.642   7.244  0.1701 -0.6645  0.1198
   28MOL   H34719841   1.430   5.612   7.376  0.5414 -1.5972 -1.3090
   28MOL   H34819842   1.499   5.720   7.498 -2.2706  0.0846 -1.1963
   28MOL   H34919843   1.613   5.456   7.395  2.4733  0.7249  0.3710
   28MOL   H35019844   1.692   5.545   7.514  0.0062 -0.9170 -0.8961
   28MOL   H35119845   1.479   5.510   7.674 -1.4918 -0.9846 -0.0608
   28MOL   H35219846   1.413   5.418   7.540 -1.0754  1.5927  0.4041
   28MOL   H35319847   1.663   5.344   7.695  0.6658  3.2896 -2.6750
   28MOL   H35419848   1.609   5.261   7.555 -2.7516  0.6739 -1.6399
   28MOL   H35519849   1.372   5.278   7.699  1.3620  0.0376 -2.0474
   28MOL   H35619850   1.466   5.134   7.686 -0.3159  0.9173 -1.4644
   28MOL   H35719851   1.327   5.410   0.410  0.6341  0.8766  2.2495
   28MOL   H35819852   1.480   5.442   0.489 -0.6175 -1.3593 -0.6336
   28MOL   H35919853   1.448   5.532   0.350 -0.8619  0.6991 -0.2270
   28MOL   H36019854   1.702   5.289   0.386  0.2989 -0.5245 -0.6261
   28MOL   H36119855   1.697   5.289   0.216 -1.7657 -0.7601  0.0527
   28MOL   C36219856   1.179   5.255   1.165  1.0896 -0.7960 -0.4410
   28MOL   C36319857   1.277   5.254   1.051 -0.7663  0.0759  0.2537
   28MOL   C36419858   1.411   5.302   1.100  0.0466  0.3780  0.1691
   28MOL   C36519859   1.512   5.363   0.995  0.5909 -0.7383  0.1145
   28MOL   C36619860   1.482   5.510   0.961  0.6079  0.3591 -0.6248
   28MOL   C36719861   1.587   5.573   0.874  0.0607 -0.2355  0.1769
   28MOL   C36819862   1.612   5.506   0.734  0.0721  0.1135 -0.0315
   28MOL   C36919863   1.728   5.571   0.659  0.2468  0.0870 -0.3941
   28MOL   O37019864   1.749   5.500   0.532 -0.1301  0.1303 -0.4570
   28MOL   C37119865   1.725   5.559   0.410 -0.3020  0.0453 -0.0331
   28MOL   O37219866   1.693   5.677   0.398  0.2706 -0.1155 -0.5590
   28MOL   C37319867   1.744   5.476   0.283 -0.1036  0.3156 -0.1326
   28MOL   C37419868   1.718   5.561   0.150 -0.0011  0.5373  0.1681
   28MOL   C37519869   1.897   5.424   0.279  0.1919  0.4164  0.4359
   28MOL   H37619870   1.093   5.195   1.137  0.8872 -1.6069  1.7517
   28MOL   H37719871   1.225   5.211   1.254 -0.1178  0.2988  0.7381
   28MOL   H37819872   1.154   5.360   1.177 -0.6266 -1.0421 -1.6772
   28MOL   H37919873   1.244   5.311   0.965  1.6470 -0.2448 -0.9127
   28MOL   H38019874   1.293   5.151   1.019  0.2813  0.3790 -0.2106
   28MOL   H38119875   1.449   5.213   1.149  3.6837  1.1869 -1.0223
   28MOL   H38219876   1.397   5.374   1.181 -0.9152 -0.5429  0.8239
   28MOL   H38319877   1.508   5.298   0.908 -1.9130 -1.1392  0.4896
   28MOL   H38419878   1.612   5.356   1.038  0.6179  1.0997  0.3912
   28MOL   H38519879   1.387   5.518   0.909  0.2085 -0.6183 -0.0514
   28MOL   H38619880   1.473   5.578   1.046 -1.9044 -2.2202  1.2365
   28MOL   H38719881   1.681   5.576   0.930 -0.7372 -0.5805  1.5677
   28MOL   H38819882   1.561   5.677   0.856  2.7870  0.6908  1.2691
   28MOL   H38919883   1.522   5.517   0.674 -0.7627  0.4366  1.2832
   28MOL   H39019884   1.643   5.402   0.748  2.5153  1.0399  1.7481
   28MOL   H39119885   1.719   5.679   0.649 -1.9833 -0.0733 -0.3344
   28MOL   H39219886   1.821   5.554   0.714 -0.0121 -0.9422 -0.2665
   28MOL   H39319887   1.611   5.578   0.139  0.0852 -0.6311 -3.1511
   28MOL   H39419888   1.761   5.661   0.142 -0.1675  0.4806 -1.6691
   28MOL   H39519889   1.756   5.516   0.058  2.0655 -1.5933  2.0024
   28MOL   H39619890   1.921   5.367   0.369  4.3735  1.3893  0.0585
   28MOL   H39719891   1.901   5.345   0.204 -1.2338  1.4187 -0.7002
   28MOL   C39819892   1.862   5.700   6.953  0.0596 -0.2305 -0.0167
   28MOL   C39919893   1.981   5.745   7.044 -0.6960  0.1536  0.1843
   28MOL   C40019894   1.958   5.709   7.190 -0.1363 -1.1238 -0.3361
   28MOL   C40119895   2.071   5.739   7.287 -0.7382  0.0876  0.6059
   28MOL   C40219896   2.042   5.693   7.428 -0.1905  0.1377 -0.0843
   28MOL   C40319897   1.977   5.801   7.516 -0.1173  0.5594 -0.0555
   28MOL   C40419898   1.935   5.745   7.649 -0.0842  0.1295 -1.0442
   28MOL   C40519899   2.058   5.757   7.742 -0.2956 -0.2073  0.8172
   28MOL   O40619900   2.040   5.707   0.090  0.3211  0.3042 -0.0079
   28MOL   C40719901   2.026   5.574   0.110  0.4439  0.6391  0.2118
   28MOL   O40819902   1.994   5.496   0.022  0.4811 -0.4048  0.2310
   28MOL   C40919903   2.024   5.527   0.259  0.1621 -0.5377 -0.3077
   28MOL   C41019904   2.007   5.644   0.368 -0.2000 -0.0279 -0.5586
   28MOL   C41119905   2.148   5.444   0.292 -0.3588 -0.8840  0.3290
   28MOL   H41219906   1.774   5.761   6.970  0.9675  0.9834  0.3827
   28MOL   H41319907   1.829   5.598   6.972 -1.5708  0.3197  0.1326
   28MOL   H41419908   1.887   5.702   6.846 -2.0244  0.3300 -0.5064
   28MOL   H41519909   1.995   5.851   7.023  1.2492 -0.1849 -0.3533
   28MOL   H41619910   2.070   5.695   7.005 -0.4893  0.3203  0.4395
   28MOL   H41719911   1.867   5.762   7.217  0.0037 -0.8601 -0.3797
   28MOL   H41819912   1.941   5.601   7.197  2.5616 -1.5432  0.4151
   28MOL   H41919913   2.081   5.848   7.284  1.7485 -0.1420 -0.2975
   28MOL   H42019914   2.169   5.711   7.248 -1.1333 -1.4882  0.7353
   28MOL   H42119915   1.997   5.594   7.432  1.1516 -0.4285  2.5803
   28MOL   H42219916   2.141   5.674   7.470  0.2087  1.7126 -0.2718
   28MOL   H42319917   1.885   5.823   7.463 -1.0095  0.7079  1.5353
   28MOL   H42419918   2.031   5.895   7.527 -1.2958  1.5722 -2.5805
   28MOL   H42519919   1.845   5.796   7.683  0.3294  1.2548 -1.5943
   28MOL   H42619920   1.898   5.643   7.644 -1.2319  0.5720 -1.6385
   28MOL   H42719921   2.139   5.710   7.686 -0.7359 -1.5733  1.3149
   28MOL   H42819922   2.076   5.863   7.759 -1.8321  0.1130  0.5869
   28MOL   H42919923   1.985   5.613   0.470 -2.8529  0.5288 -0.9254
   28MOL   H43019924   1.929   5.715   0.339  0.1142 -0.0479 -1.4672
   28MOL   H43119925   2.094   5.709   0.364  0.1370 -0.5186 -1.4135
   28MOL   H43219926   2.155   5.364   0.219 -0.8279 -0.9909  0.3940
   28MOL   H43319927   2.119   5.380   0.376  0.6831  0.2440  1.5723
   28MOL   C43419928   1.841   4.875   0.976  0.2949 -0.6973 -0.8250
   28MOL   C43519929   1.743   4.971   0.903 -0.2035  0.1309  0.9312
   28MOL   C43619930   1.780   5.120   0.921  0.4800  0.0813  0.5231
   28MOL   C43719931   1.914   5.159   0.864  0.6748 -0.5949  0.2159
   28MOL   C43819932   1.947   5.305   0.852  0.6369  0.3192 -0.1161
   28MOL   C43919933   2.079   5.331   0.777  0.7691 -0.4449 -0.0515
   28MOL   C44019934   2.112   5.481   0.771 -0.0541 -0.0866  0.7498
   28MOL   C44119935   2.250   5.503   0.719  0.3707  0.3996  0.4565
   28MOL   O44219936   2.249   5.465   0.580  0.2349 -0.5176 -0.4853
   28MOL   C44319937   2.282   5.559   0.485 -0.0120  0.5435 -0.0503
   28MOL   O44419938   2.310   5.675   0.514 -0.3991  0.1331 -1.2569
   28MOL   C44519939   2.292   5.505   0.332 -0.0002 -1.1055  0.3420
   28MOL   C44619940   2.351   5.620   0.234 -0.3131  0.7783 -0.8865
   28MOL   C44719941   2.390   5.381   0.317  0.7329  0.2405 -0.5771
   28MOL   H44819942   1.930   4.871   0.914 -0.8096 -1.4837 -2.3998
   28MOL   H44919943   1.788   4.780   0.972  0.8493 -1.0733  0.5447
   28MOL   H45019944   1.865   4.909   1.077 -4.9185 -1.2058  0.7354
   28MOL   H45119945   1.638   4.960   0.930 -0.5297 -0.3873 -0.5395
   28MOL   H45219946   1.746   4.955   0.796 -3.1775  4.4782  0.1008
   28MOL   H45319947   1.764   5.154   1.024  1.2202 -0.3519  0.7849
   28MOL   H45419948   1.698   5.164   0.864  1.2584 -1.0957 -1.5513
   28MOL   H45519949   1.919   5.122   0.762  1.2012  1.4260 -0.5167
   28MOL   H45619950   1.998   5.108   0.911  0.3934 -1.2451  0.0097
   28MOL   H45719951   1.864   5.348   0.795 -0.3113 -0.3131  0.7632
   28MOL   H45819952   1.943   5.352   0.950 -1.0332  1.4191 -0.6759
   28MOL   H45919953   2.070   5.291   0.676  0.2217  2.0370 -1.0349
   28MOL   H46019954   2.149   5.266   0.830 -0.6396 -2.6127 -0.8240
   28MOL   H46119955   2.036   5.534   0.714  1.2768 -0.1987 -1.1745
   28MOL   H46219956   2.107   5.514   0.874 -1.4428 -1.9905  1.3276
   28MOL   H46319957   2.309   5.426   0.768 -0.3607  0.4003  1.3411
   28MOL   H46419958   2.288   5.604   0.733  1.3333  0.2466 -0.9605
   28MOL   H46519959   2.364   5.585   0.132 -0.7250 -0.5109 -0.5071
   28MOL   H46619960   2.296   5.714   0.242  0.6434  1.5396 -2.9995
   28MOL   H46719961   2.452   5.647   0.268 -0.4183 -1.1394  1.0634
   28MOL   H46819962   2.350   5.297   0.374  1.0972 -0.3926 -1.2507
   28MOL   H46919963   2.376   5.348   0.214 -1.5335  1.5710 -0.7395
   28MOL   C47019964   3.709   5.542   7.698  0.1162 -0.4886  0.1438
   28MOL   C47119965   3.565   5.488   7.677 -0.3452  0.3476  0.5591
   28MOL   C47219966   3.476   5.488   0.027  0.1379  0.4250 -0.3988
   28MOL   C47319967   3.330   5.445   7.766  0.8485 -0.6116  0.3889
   28MOL   C47419968   3.231   5.445   0.107 -0.0373  0.3544 -0.0132
   28MOL   C47519969   3.088   5.427   0.058  0.2676 -0.1742  0.1539
   28MOL   C47619970   2.986   5.415   0.167  0.7037 -0.3872 -0.5102
   28MOL   C47719971   2.846   5.451   0.119 -0.2586 -0.6842 -0.3138
   28MOL   O47819972   2.764   5.435   0.237 -0.2959  0.1825  0.2599
   28MOL   C47919973   2.629   5.439   0.222 -0.0758 -0.3268  0.2331
   28MOL   O48019974   2.576   5.489   0.125  0.3929 -0.4943 -0.2746
   28MOL   C48119975   2.548   5.374   0.336 -0.2406 -0.3315 -0.3734
   28MOL   C48219976   2.575   5.446   0.463 -0.1468 -0.0676 -0.4249
   28MOL   C48319977   2.597   5.220   0.372 -0.1679  0.1024  0.9500
   28MOL   H48419978   3.742   5.574   7.599 -2.5273 -1.4644 -1.1017
   28MOL   H48519979   3.772   5.464   7.742  1.4294 -0.3326 -1.3844
   28MOL   H48619980   3.710   5.631   7.760 -1.1708 -0.1373 -0.3183
   28MOL   H48719981   3.517   5.549   7.601 -0.8606  0.9159  1.3232
   28MOL   H48819982   3.571   5.386   7.639 -1.8208  0.4181  0.1216
   28MOL   H48919983   3.527   5.423   0.098 -2.5269 -2.3112 -0.9052
   28MOL   H49019984   3.482   5.589   0.068  1.1385  0.5319 -0.7944
   28MOL   H49119985   3.292   5.522   7.699  3.2272 -0.6581 -1.0700
   28MOL   H49219986   3.324   5.357   7.701  2.2978  0.0872 -0.7183
   28MOL   H49319987   3.256   5.364   0.176  0.4563  1.2476  0.8636
   28MOL   H49419988   3.245   5.543   0.152  2.7203 -0.5319  1.2037
   28MOL   H49519989   3.065   5.522   0.010 -1.0366  0.7474  2.5302
   28MOL   H49619990   3.082   5.348   7.763  0.0389 -0.3715  0.3766
   28MOL   H49719991   2.979   5.319   0.218  0.3438 -0.2071 -0.2212
   28MOL   H49819992   3.009   5.489   0.243 -1.4818  1.0102 -1.1553
   28MOL   H49919993   2.810   5.393   0.034  0.3771  0.7194 -1.5713
   28MOL   H50019994   2.833   5.555   0.089  1.5014  0.2032  1.8330
   28MOL   H50119995   2.674   5.429   0.504 -1.4524 -0.0478  2.8903
   28MOL   H50219996   2.510   5.415   0.546 -2.9356 -0.2092 -2.5908
   28MOL   H50319997   2.548   5.551   0.452  1.0307  0.3727  0.7257
   28MOL   H50419998   2.698   5.223   0.412 -0.4419 -3.6151  2.1071
   28MOL   H50519999   2.559   5.198   0.471 -1.3086 -2.0249  0.0601
   28MOL   C50620000   2.186   4.454   0.857 -0.5106  0.5406  0.0906
   28MOL   C50720001   2.217   4.599   0.872  0.3416 -1.0266  0.2483
   28MOL   C50820002   2.158   4.682   0.756 -0.3313  0.7115  0.4091
   28MOL   C50920003   2.198   4.828   0.776 -0.2250  0.8353  0.5478
   28MOL   C51020004   2.133   4.920   0.667 -0.3507  0.4117  0.0168
   28MOL   C51120005   2.214   4.927   0.540 -0.2060 -0.3375  0.0190
   28MOL   C51220006   2.169   5.040   0.442  0.6081 -0.2830  0.9750
   28MOL   C51320007   2.231   5.028   0.302 -0.0381 -0.4186 -0.7343
   28MOL   O51420008   2.369   5.058   0.340 -0.2426  0.0260  0.2124
   28MOL   C51520009   2.455   5.068   0.239 -0.8771 -0.0809 -0.6383
   28MOL   O51620010   2.424   5.054   0.119 -0.3591 -0.3606  0.1909
   28MOL   C51720011   2.598   5.090   0.278  0.4148  0.0687 -0.8489
   28MOL   C51820012   2.691   5.121   0.157 -0.3831  0.5213 -0.3818
   28MOL   C51920013   2.650   4.980   0.380 -0.3611 -0.2420 -0.2808
   28MOL   H52020014   2.225   4.395   0.940 -0.2320  2.0291  1.0379
   28MOL   H52120015   2.234   4.412   0.769  0.1255  2.2275 -0.3851
   28MOL   H52220016   2.078   4.439   0.862 -0.4600  0.0834 -0.1451
   28MOL   H52320017   2.325   4.610   0.879  0.2514  1.3987 -1.3684
   28MOL   H52420018   2.199   4.650   0.966 -1.4743  1.6042 -1.4667
   28MOL   H52520019   2.210   4.644   0.669  0.3381 -1.4524  1.7239
   28MOL   H52620020   2.050   4.676   0.742 -0.3461  2.4146 -0.3909
   28MOL   H52720021   2.168   4.866   0.873 -1.2276 -0.2878  0.7019
   28MOL   H52820022   2.306   4.827   0.770 -0.3095 -2.1854 -1.8105
   28MOL   H52920023   2.034   4.877   0.649 -1.6549  3.5371 -0.4876
   28MOL   H53020024   2.120   5.015   0.719 -0.7454  0.9002 -0.9703
   28MOL   H53120025   2.209   4.832   0.487 -1.1980 -0.4033  0.2078
   28MOL   H53220026   2.318   4.944   0.567 -0.1180  0.4391 -0.7855
   28MOL   H53320027   2.216   5.128   0.486  0.0369  1.3586 -1.5784
   28MOL   H53420028   2.060   5.039   0.447  0.5752 -1.3672  0.1411
   28MOL   H53520029   2.199   5.108   0.235  3.1759 -0.0173 -1.8862
   28MOL   H53620030   2.223   4.930   0.255 -1.3674 -0.0733 -1.2560
   28MOL   H53720031   2.793   5.142   0.189 -0.6672  0.1933  0.7485
   28MOL   H53820032   2.659   5.205   0.096  1.3939  0.9125 -0.8214
   28MOL   H53920033   2.692   5.046   0.077  0.2740 -0.8001  0.8387
   28MOL   H54020034   2.750   5.021   0.396 -0.8946  1.0659 -0.2619
   28MOL   H54120035   2.595   4.984   0.474  0.2016  1.6273 -0.0198
   28MOL   C54220036   2.538   4.307   1.298  0.4286 -0.0790 -0.9888
   28MOL   C54320037   2.605   4.204   1.201 -0.2428 -0.1804 -0.3577
   28MOL   C54420038   2.593   4.233   1.054 -0.6255  0.0710  0.4728
   28MOL   C54520039   2.672   4.360   1.019 -0.6907 -0.4135 -0.5609
   28MOL   C54620040   2.672   4.388   0.870  0.1387  0.2394 -0.7344
   28MOL   C54720041   2.756   4.516   0.836 -0.3376  0.1356  0.3163
   28MOL   C54820042   2.696   4.601   0.722 -0.0843  0.9293 -0.1305
   28MOL   C54920043   2.777   4.727   0.697 -0.1491 -0.0659  0.4207
   28MOL   O55020044   2.719   4.796   0.587  0.3793  0.0266 -0.7073
   28MOL   C55120045   2.766   4.782   0.466  0.6678  0.2880 -0.0065
   28MOL   O55220046   2.879   4.745   0.445 -0.5802  0.0784  0.3616
   28MOL   C55320047   2.673   4.831   0.355 -0.5121  0.6182  0.7603
   28MOL   C55420048   2.753   4.814   0.222 -0.1891  0.3608 -0.3315
   28MOL   C55520049   2.530   4.750   0.362  0.4156 -0.0519  0.0434
   28MOL   H55620050   2.579   4.408   1.301  1.0404 -0.3605  1.0369
   28MOL   H55720051   2.539   4.279   1.404  0.4848  0.9412 -0.7157
   28MOL   H55820052   2.430   4.310   1.280  0.0415 -2.0993  0.7400
   28MOL   H55920053   2.708   4.187   1.231  0.5918  1.3579 -2.2860
   28MOL   H56020054   2.560   4.107   1.223 -0.0117 -0.4944 -1.2674
   28MOL   H56120055   2.487   4.247   1.034 -0.5776 -0.2117  0.0182
   28MOL   H56220056   2.621   4.144   0.999 -2.0673 -0.9045  1.2866
   28MOL   H56320057   2.641   4.450   1.071  1.4515  0.5739 -0.9525
   28MOL   H56420058   2.774   4.349   1.056 -0.6247  1.5209 -0.1098
   28MOL   H56520059   2.569   4.390   0.836  0.5559  1.7937 -1.9913
   28MOL   H56620060   2.721   4.312   0.809  3.0743  0.2381  1.5003
   28MOL   H56720061   2.760   4.576   0.927  0.0227  0.4788  0.0732
   28MOL   H56820062   2.859   4.482   0.828 -0.7789 -0.6997 -2.1891
   28MOL   H56920063   2.702   4.538   0.632 -0.9158  0.3339  0.2223
   28MOL   H57020064   2.590   4.624   0.725  0.1868  2.1475  0.4097
   28MOL   H57120065   2.883   4.711   0.680 -0.1303 -0.4697  0.9002
   28MOL   H57220066   2.782   4.795   0.783  2.2269 -0.0746  0.3158
   28MOL   H57320067   2.678   4.808   0.143 -1.6157  0.0352  1.0242
   28MOL   H57420068   2.804   4.718   0.218  0.1569  0.4210  2.0485
   28MOL   H57520069   2.825   4.893   0.201  1.4499 -1.5074 -1.9170
   28MOL   H57620070   2.457   4.813   0.312  0.1341  1.2960  2.0857
   28MOL   H57720071   2.499   4.755   0.467 -1.9299 -1.0676 -0.5609
   28MOL   C57820072   1.610   4.396   7.559 -0.8058 -0.5340 -0.2738
   28MOL   C57920073   1.656   4.323   7.682  0.0138  0.1533 -0.0231
   28MOL   C58020074   1.814   4.315   7.692 -0.0584 -0.8537  0.2927
   28MOL   C58120075   1.877   4.459   7.706  0.5514 -0.1392 -0.3477
   28MOL   C58220076   2.029   4.456   7.717  0.5382  0.1417 -0.1684
   28MOL   C58320077   2.096   4.586   7.758  1.0770  0.3022  0.3913
   28MOL   C58420078   2.241   4.590   7.721  0.0301 -0.1977 -0.4630
   28MOL   C58520079   2.318   4.711   0.013  0.1604  0.2418  0.2909
   28MOL   O58620080   2.361   4.674   0.145  0.3673  0.3203  0.2378
   28MOL   C58720081   2.475   4.607   0.159 -0.5106 -0.0657  0.2018
   28MOL   O58820082   2.542   4.560   0.067 -0.6276 -0.2378  0.0409
   28MOL   C58920083   2.512   4.601   0.308 -0.3693  0.0525  0.6487
   28MOL   C59020084   2.388   4.546   0.388 -0.1828 -0.8877  0.2148
   28MOL   C59120085   2.641   4.503   0.323  0.3662  0.2199  0.6810
   28MOL   H59220086   1.648   4.347   7.469 -2.2431 -0.2615 -1.0491
   28MOL   H59320087   1.650   4.497   7.566 -1.7123  0.0026 -2.4896
   28MOL   H59420088   1.501   4.399   7.557 -0.8230 -1.2072 -0.4709
   28MOL   H59520089   1.609   4.224   7.688  1.6272 -0.5170  2.7408
   28MOL   H59620090   1.627   4.375   7.773 -0.1323 -1.5398  0.9371
   28MOL   H59720091   1.854   4.270   7.601  0.2278  1.7334 -0.9074
   28MOL   H59820092   1.846   4.264   0.004 -1.6372 -2.2031  0.1127
   28MOL   H59920093   1.837   4.512   0.013  1.9506 -0.5248  0.5508
   28MOL   H60020094   1.859   4.521   7.618 -0.3961  1.9592  1.2730
   28MOL   H60120095   2.054   4.424   7.616  0.0124  1.3026 -0.6753
   28MOL   H60220096   2.064   4.368   7.772 -2.1669 -1.1467 -0.4441
   28MOL   H60320097   2.085   4.604   0.086 -0.6568  1.6790 -0.0027
   28MOL   H60420098   2.042   4.666   7.707  0.1459  0.5398  1.7204
   28MOL   H60520099   2.255   4.602   7.614  1.0336  0.3353 -0.2856
   28MOL   H60620100   2.302   4.505   7.750 -1.5312 -1.2877 -0.3236
   28MOL   H60720101   2.402   4.759   7.742  0.5903  0.4724  1.2029
   28MOL   H60820102   2.248   4.793   0.026  0.5167  0.7275 -0.8413
   28MOL   H60920103   2.305   4.617   0.382 -0.2539 -1.0668 -1.3447
   28MOL   H61020104   2.350   4.449   0.355  1.7926 -1.9147  0.9113
   28MOL   H61120105   2.402   4.540   0.495  1.6109 -0.1373  0.0249
   28MOL   H61220106   2.682   4.544   0.415  0.3189  1.6768  0.0585
   28MOL   H61320107   2.711   4.532   0.245 -1.4101  2.4461 -0.1197
   28MOL   C61420108   1.935   3.401   0.763  0.5127  0.7653 -0.0426
   28MOL   C61520109   2.001   3.542   0.789 -0.0233  0.3551 -0.0774
   28MOL   C61620110   2.093   3.593   0.675 -0.4818  0.1924  0.5607
   28MOL   C61720111   2.147   3.731   0.714  0.5382 -0.5184 -0.5412
   28MOL   C61820112   2.217   3.803   0.599  0.6737  0.0795 -0.1832
   28MOL   C61920113   2.261   3.949   0.622  0.8117 -0.1432 -0.7884
   28MOL   C62020114   2.343   4.008   0.506  0.0167  0.1880  0.1156
   28MOL   C62120115   2.354   4.158   0.514  0.4685 -0.2241 -0.4870
   28MOL   O62220116   2.448   4.201   0.413  0.6469 -0.4732 -0.4218
   28MOL   C62320117   2.545   4.292   0.447 -0.1606  0.6934 -0.4836
   28MOL   O62420118   2.563   4.323   0.563  0.0581  0.2791  0.1744
   28MOL   C62520119   2.636   4.341   0.330 -0.1112 -0.3604  0.2998
   28MOL   C62620120   2.585   4.286   0.197  0.5442 -0.8041 -0.1100
   28MOL   C62720121   2.787   4.307   0.369 -0.3020  0.0397  0.1477
   28MOL   H62820122   1.864   3.372   0.841  1.1867  1.8541  1.0057
   28MOL   H62920123   2.008   3.321   0.775 -1.1197 -0.8827 -0.8343
   28MOL   H63020124   1.894   3.392   0.663 -0.9145 -1.6090  0.7185
   28MOL   H63120125   1.916   3.608   0.808  0.4988  0.9185  0.3097
   28MOL   H63220126   2.054   3.543   0.884  1.6180 -0.3424 -0.9597
   28MOL   H63320127   2.037   3.596   0.582 -1.3101 -0.1709  1.0426
   28MOL   H63420128   2.184   3.533   0.672 -0.3783  0.4428 -1.4424
   28MOL   H63520129   2.214   3.730   0.801  0.2116  1.7372 -0.2237
   28MOL   H63620130   2.060   3.791   0.740  0.9301 -0.1031 -0.1644
   28MOL   H63720131   2.307   3.749   0.570  1.3186 -0.9870  3.5387
   28MOL   H63820132   2.151   3.784   0.514  0.8857  2.5646 -0.9545
   28MOL   H63920133   2.171   4.006   0.641  1.4930  0.2096  1.4769
   28MOL   H64020134   2.301   3.951   0.723 -2.1436 -3.6333  0.5625
   28MOL   H64120135   2.299   3.984   0.410 -0.2368  1.5178 -0.1068
   28MOL   H64220136   2.442   3.962   0.498  0.3388  0.7684  0.7037
   28MOL   H64320137   2.261   4.208   0.489  1.7188  3.0545  1.1851
   28MOL   H64420138   2.374   4.192   0.615  0.8934 -0.4848 -0.4844
   28MOL   H64520139   2.590   4.177   0.189 -2.0119 -0.9702  0.0258
   28MOL   H64620140   2.661   4.305   0.122  0.0541 -1.8967 -0.9019
   28MOL   H64720141   2.491   4.326   0.161  0.2910  0.0351  1.4418
   28MOL   H64820142   2.805   4.333   0.473  0.2482  2.2839 -0.4775
   28MOL   H64920143   2.860   4.377   0.328 -0.1135 -1.8832 -2.9877
   28MOL   C65020144   2.604   4.948   7.402 -0.9537  0.0431  0.4213
   28MOL   C65120145   2.636   4.872   7.527  0.4970 -0.9101 -0.0043
   28MOL   C65220146   2.754   4.782   7.497  0.2648  0.0718  0.1165
   28MOL   C65320147   2.781   4.690   7.622  0.4275 -0.5417 -0.6455
   28MOL   C65420148   2.890   4.594   7.615 -0.3179 -0.1479  0.2691
   28MOL   C65520149   2.854   4.463   7.698  0.2751  0.2538  0.4921
   28MOL   C65620150   2.969   4.365   7.695 -0.0030  0.1394  0.3561
   28MOL   C65720151   2.960   4.228   7.770 -0.0990  1.5959  0.1423
   28MOL   O65820152   2.931   4.243   0.134 -0.6547 -0.5996  0.7711
   28MOL   C65920153   2.864   4.139   0.200  0.2962  0.4517  0.8177
   28MOL   O66020154   2.808   4.046   0.141  0.0357  0.2718 -0.0095
   28MOL   C66120155   2.844   4.160   0.352  0.3157  0.3703 -0.2126
   28MOL   C66220156   2.748   4.054   0.413 -0.1656 -0.2749 -0.8267
   28MOL   C66320157   2.991   4.159   0.428  0.4194 -0.2948 -0.2615
   28MOL   H66420158   2.524   4.888   7.358 -0.1807 -2.6241  2.5275
   28MOL   H66520159   2.687   4.949   7.331 -0.0802 -2.8479  1.3343
   28MOL   H66620160   2.572   5.051   7.421  0.0378 -0.2466  3.9811
   28MOL   H66720161   2.543   4.831   7.567 -0.1752  1.0804  0.5521
   28MOL   H66820162   2.677   4.939   7.603 -1.2333 -1.0097  1.0493
   28MOL   H66920163   2.842   4.841   7.472  0.0979  0.5514  0.6443
   28MOL   H67020164   2.729   4.728   7.405 -2.2588 -0.4721  1.0698
   28MOL   H67120165   2.688   4.638   7.642 -0.7593  1.8099  0.2043
   28MOL   H67220166   2.782   4.741   7.718  1.1823 -0.5918 -0.6287
   28MOL   H67320167   2.987   4.637   7.640  0.4285 -1.3997 -0.4448
   28MOL   H67420168   2.913   4.558   7.515 -3.0585 -1.6126  0.1215
   28MOL   H67520169   2.824   4.488   0.020 -1.7117  1.5471 -0.3604
   28MOL   H67620170   2.762   4.427   7.653  1.1781 -0.9476 -0.4144
   28MOL   H67720171   3.057   4.411   7.739  0.3822 -0.8953  0.6728
   28MOL   H67820172   2.997   4.336   7.594  1.1870  1.7651  0.1992
   28MOL   H67920173   3.044   4.164   7.746 -0.0363  1.2547  1.2439
   28MOL   H68020174   2.875   4.190   7.714 -0.2749 -0.6263  1.8399
   28MOL   H68120175   2.709   4.072   0.513  2.1563  3.3367 -0.4769
   28MOL   H68220176   2.797   3.957   0.416 -1.0041 -0.7156 -1.2030
   28MOL   H68320177   2.663   4.030   0.349  0.1400 -2.5138 -0.4278
   28MOL   H68420178   3.053   4.220   0.363 -0.9000  1.7647  0.3469
   28MOL   H68520179   2.979   4.199   0.529  1.0082 -1.3468  0.2411
   28MOL   C68620180   2.778   3.029   0.827  0.2097 -0.0030 -0.9519
   28MOL   C68720181   2.924   3.034   0.795 -0.7383  0.2833  0.6419
   28MOL   C68820182   2.959   3.131   0.672  0.8061 -0.4726 -0.9688
   28MOL   C68920183   2.969   3.282   0.714  0.3560  0.3839 -0.8176
   28MOL   C69020184   3.034   3.364   0.605  0.3621 -0.1050  0.1574
   28MOL   C69120185   3.072   3.506   0.639 -0.8108  0.1545  0.2163
   28MOL   C69220186   2.968   3.614   0.633  0.5624 -0.7920 -0.4693
   28MOL   C69320187   3.028   3.752   0.694 -0.8978  0.0884 -0.0882
   28MOL   O69420188   3.073   3.838   0.597 -0.1999 -0.4676  0.5141
   28MOL   C69520189   3.015   3.950   0.580 -0.2926  0.0614 -0.0730
   28MOL   O69620190   2.926   3.994   0.657  0.6288 -0.2642  0.1638
   28MOL   C69720191   3.072   4.024   0.457  0.4803  0.3454 -0.4259
   28MOL   C69820192   3.222   4.057   0.480  0.1359  0.5676  0.0232
   28MOL   C69920193   3.072   3.929   0.335  0.4251  0.0697  0.3310
   28MOL   H70020194   2.757   2.964   0.912 -1.3335  0.5788 -0.8671
   28MOL   H70120195   2.726   2.989   0.740  0.8959 -0.5390 -1.1151
   28MOL   H70220196   2.741   3.126   0.862  0.0725 -0.6987  0.8676
   28MOL   H70320197   2.948   2.932   0.767  0.3738  0.3490  1.3125
   28MOL   H70420198   2.980   3.067   0.883  1.4117  1.4327 -1.0907
   28MOL   H70520199   2.896   3.122   0.583 -1.0140  0.0424  0.2474
   28MOL   H70620200   3.056   3.094   0.638  1.0554 -0.6359 -0.0761
   28MOL   H70720201   3.028   3.295   0.805 -1.1714 -0.6626  0.3520
   28MOL   H70820202   2.869   3.319   0.736  0.3108 -0.1349 -0.1046
   28MOL   H70920203   2.950   3.363   0.535  1.0674  2.8353 -0.8012
   28MOL   H71020204   3.115   3.310   0.556 -0.4500 -0.6949 -0.5447
   28MOL   H71120205   3.132   3.501   0.729  0.2835  0.5761 -0.4831
   28MOL   H71220206   3.153   3.532   0.570 -0.6368 -1.4441 -0.2102
   28MOL   H71320207   2.948   3.639   0.529 -1.6392  1.0939  0.3634
   28MOL   H71420208   2.874   3.575   0.673 -0.4060  0.7549 -1.2001
   28MOL   H71520209   3.107   3.736   0.767 -0.7801  1.0882  0.0054
   28MOL   H71620210   2.954   3.796   0.761 -0.1711  0.0604  0.7468
   28MOL   H71720211   3.251   4.090   0.580 -2.2218  2.1341  0.2141
   28MOL   H71820212   3.288   3.971   0.468  0.0927  0.2843  1.6770
   28MOL   H71920213   3.258   4.126   0.403  0.8029  0.2462  0.0367
   28MOL   H72020214   2.985   3.865   0.321 -2.2206  3.5072  0.2032
   28MOL   H72120215   3.155   3.858   0.333  0.1845 -0.2112  0.2794
   28MOL   H72220216   3.084   3.990   0.246 -0.7893  0.8005  0.6555
   29MOL     C120217   7.168   6.725   5.999  0.9904 -0.3750 -0.8057
   29MOL     C220218   7.134   6.659   6.128  0.2228 -0.4773  1.0041
   29MOL     C320219   7.116   6.506   6.114  0.0708  0.4362 -0.0972
   29MOL     C420220   7.016   6.451   6.228 -0.2618  0.4192 -0.7869
   29MOL     C520221   7.038   6.304   6.263 -0.4645 -0.6832  0.4840
   29MOL     C620222   6.953   6.250   6.378  0.1545  0.1670 -0.3794
   29MOL     C720223   6.998   6.103   6.410 -0.5115  0.1528 -0.2173
   29MOL     C820224   6.903   6.049   6.518 -0.2758  0.2257 -0.0310
   29MOL     O920225   6.922   5.913   6.558  0.1822 -0.5821  0.2045
   29MOL    C1020226   7.022   5.886   6.640  0.0429 -0.1295  0.0675
   29MOL    O1120227   7.103   5.965   6.686  0.0178 -0.2261 -0.6522
   29MOL    C1220228   7.025   5.738   6.680 -0.1810 -0.5548  0.2619
   29MOL    C1320229   6.883   5.695   6.729  0.1495  0.7766  0.0233
   29MOL    C1420230   7.073   5.651   6.559  0.3770 -0.0446  0.1477
   29MOL    H1520231   7.074   6.751   5.949  0.8226  2.8286  1.0182
   29MOL    H1620232   7.225   6.664   5.929  3.1309  1.8488 -1.0451
   29MOL    H1720233   7.220   6.819   6.015  0.8043 -0.4509  0.2853
   29MOL    H1820234   7.056   6.705   6.189  1.1234  0.8888  1.1419
   29MOL    H1920235   7.222   6.675   6.190  1.6037  0.3073 -1.0935
   29MOL    H2020236   7.087   6.489   6.010 -0.4154  2.0439 -0.2280
   29MOL    H2120237   7.212   6.454   6.105 -0.6038 -0.9035  0.3387
   29MOL    H2220238   7.038   6.502   6.322 -2.3071 -0.5780  0.2566
   29MOL    H2320239   6.918   6.478   6.190 -1.3104 -1.3431  0.6029
   29MOL    H2420240   7.142   6.276   6.277 -0.7488 -0.4878  3.2289
   29MOL    H2520241   7.011   6.246   6.175  0.5886  1.3374 -1.2267
   29MOL    H2620242   6.847   6.256   6.353 -0.2163 -4.1163 -0.3290
   29MOL    H2720243   6.971   6.314   6.465 -1.0295  0.6713 -0.4994
   29MOL    H2820244   7.102   6.093   6.442 -0.1352  1.1641 -1.1001
   29MOL    H2920245   6.973   6.051   6.318  0.2695  1.7576 -1.3693
   29MOL    H3020246   6.809   6.057   6.464  0.8845 -0.3276 -2.2121
   29MOL    H3120247   6.892   6.117   6.603  0.1872  0.8570 -0.4661
   29MOL    H3220248   6.876   5.587   6.741  3.2144  0.7061  1.8903
   29MOL    H3320249   6.872   5.751   6.822 -1.5324  0.7109 -0.1199
   29MOL    H3420250   6.811   5.739   6.660  1.1451  0.5327 -1.1925
   29MOL    H3520251   7.102   5.718   6.478  0.1534  0.5405  0.5419
   29MOL    H3620252   6.978   5.615   6.519  1.1071 -1.0958 -0.6476
   29MOL    H3720253   7.100   5.719   6.757  2.6123  0.6663 -2.0690
   29MOL    C3820254   6.441   5.401   7.195  0.2327  0.4784 -0.3412
   29MOL    C3920255   6.412   5.263   7.131 -0.0824 -0.1392 -0.6325
   29MOL    C4020256   6.523   5.220   7.035  0.0795 -0.0942 -0.2151
   29MOL    C4120257   6.502   5.295   6.906  0.1436 -0.2356  0.8288
   29MOL    C4220258   6.617   5.261   6.808 -0.0623 -0.7195  0.1517
   29MOL    C4320259   6.748   5.320   6.841 -0.2773 -0.2735  0.1749
   29MOL    C4420260   6.856   5.234   6.772  0.3216  0.6552 -0.1720
   29MOL    C4520261   7.006   5.269   6.793  0.2230  0.4003  0.0934
   29MOL    O4620262   7.032   5.386   6.713  0.1277 -0.6942 -1.2137
   29MOL    C4720263   7.150   5.452   6.716 -0.6909 -0.4430  0.7219
   29MOL    O4820264   7.234   5.430   6.796 -0.5981 -0.3382 -0.9441
   29MOL    C4920265   7.177   5.541   6.583  0.0448  0.3232  0.4242
   29MOL    C5020266   7.305   5.622   6.613  0.3608 -0.0492  0.1426
   29MOL    C5120267   7.183   5.449   6.461  0.3594 -0.0637  0.3724
   29MOL    H5220268   6.440   5.482   7.122  0.5594  1.7318  1.0168
   29MOL    H5320269   6.543   5.401   7.234 -0.3063 -2.8078  1.1782
   29MOL    H5420270   6.368   5.431   7.270 -0.5369  2.8231 -1.9692
   29MOL    H5520271   6.313   5.257   7.085  0.8703  2.0921 -3.1049
   29MOL    H5620272   6.410   5.184   7.206  2.1360 -0.6105 -1.0434
   29MOL    H5720273   6.625   5.245   7.063  0.8030 -2.3346 -0.7617
   29MOL    H5820274   6.515   5.115   7.008  0.6390  0.0246 -0.8836
   29MOL    H5920275   6.491   5.402   6.922 -1.2532  0.1774 -2.4875
   29MOL    H6020276   6.410   5.250   6.868  0.1793 -0.1928  0.6927
   29MOL    H6120277   6.624   5.153   6.817 -0.8041 -0.8018 -0.1949
   29MOL    H6220278   6.589   5.285   6.706 -0.3151  0.2595  0.4411
   29MOL    H6320279   6.753   5.420   6.798 -1.7252  1.2873  3.5054
   29MOL    H6420280   6.766   5.335   6.947  0.6831 -2.6147  0.3864
   29MOL    H6520281   6.836   5.216   6.666 -1.3909  1.7565 -0.0586
   29MOL    H6620282   6.849   5.133   6.812 -3.7123  0.1028 -1.9794
   29MOL    H6720283   7.062   5.182   6.758 -0.1831  0.2970 -0.2949
   29MOL    H6820284   7.033   5.282   6.898 -0.9816  0.8228  0.3535
   29MOL    H6920285   7.400   5.569   6.603  1.2661  1.4093  0.7370
   29MOL    H7020286   7.311   5.710   6.550  0.8942 -0.7959 -0.8631
   29MOL    H7120287   7.300   5.660   6.716 -1.3724  1.5292 -0.4873
   29MOL    H7220288   7.082   5.407   6.451  0.6992 -1.6430  3.1599
   29MOL    H7320289   7.246   5.365   6.490  0.1460 -0.1628  0.5495
   29MOL    C7420290   6.762   6.445   5.862 -0.2629 -0.7846  0.2213
   29MOL    C7520291   6.744   6.288   5.852  0.6129  0.7604  0.3292
   29MOL    C7620292   6.811   6.210   5.962 -0.4374  0.3537 -0.2885
   29MOL    C7720293   6.800   6.059   5.952  0.2885 -0.4060  0.6812
   29MOL    C7820294   6.827   5.984   6.088  0.6997  0.0120 -0.1201
   29MOL    C7920295   6.792   5.833   6.068 -1.0822 -0.2570  0.1472
   29MOL    C8020296   6.857   5.730   6.156  0.3486  0.0593 -0.6017
   29MOL    C8120297   7.010   5.712   6.145  1.0355 -0.2324  0.4142
   29MOL    O8220298   7.058   5.612   6.232  0.1217  0.6069  0.0343
   29MOL    C8320299   7.189   5.610   6.260 -0.2731 -0.8329  0.2656
   29MOL    O8420300   7.267   5.706   6.249  0.2765  0.3946 -0.0678
   29MOL    C8520301   7.238   5.475   6.318 -0.4996  0.1610  0.1687
   29MOL    C8620302   7.387   5.466   6.325 -0.5066  0.7383 -0.1119
   29MOL    C8720303   7.183   5.354   6.229 -0.7003  0.3194  0.3316
   29MOL    H8820304   6.865   6.470   5.837 -0.6068  0.1247 -0.3330
   29MOL    H8920305   6.751   6.482   5.964  0.4234 -1.2000  0.4468
   29MOL    H9020306   6.703   6.503   5.790 -1.0693  0.0628  1.5406
   29MOL    H9120307   6.782   6.268   5.751  0.9113 -1.8567  0.9246
   29MOL    H9220308   6.640   6.256   5.859  1.3468 -1.9295 -0.4339
   29MOL    H9320309   6.918   6.229   5.949 -0.1172 -1.8766 -1.1188
   29MOL    H9420310   6.802   6.248   6.064 -2.4029  0.0538 -0.3273
   29MOL    H9520311   6.863   6.024   5.870 -1.2373 -1.0027 -0.2557
   29MOL    H9620312   6.695   6.036   5.933  0.6768 -2.4224  0.8071
   29MOL    H9720313   6.931   5.994   6.118  2.0139 -2.7499 -3.4439
   29MOL    H9820314   6.765   6.020   6.170 -1.6782 -1.1215 -1.3740
   29MOL    H9920315   6.685   5.816   6.068 -1.6443  2.9065  1.7916
   29MOL   H10020316   6.823   5.802   5.968  0.0352 -0.1321  0.4411
   29MOL   H10120317   6.837   5.765   6.257  0.4352  0.9176 -0.8769
   29MOL   H10220318   6.801   5.638   6.135  1.1236 -0.6692  0.4459
   29MOL   H10320319   7.059   5.809   6.147  0.4693  0.1555 -1.8658
   29MOL   H10420320   7.028   5.673   6.044  2.3406 -1.5070  1.1293
   29MOL   H10520321   7.445   5.541   6.378  0.9044 -0.3338 -0.0989
   29MOL   H10620322   7.420   5.466   6.221  0.9819 -1.0336  0.3378
   29MOL   H10720323   7.423   5.377   6.377 -0.9545  0.8760  0.4349
   29MOL   H10820324   7.205   5.259   6.276 -0.5233  0.6206  0.8547
   29MOL   H10920325   7.074   5.351   6.222 -0.7046  0.7137  0.1744
   29MOL   C11020326   7.397   4.559   6.884 -0.5742  0.0878 -0.0968
   29MOL   C11120327   7.364   4.593   6.738  0.7014 -0.0076  0.6526
   29MOL   C11220328   7.444   4.715   6.687  0.0014 -0.3828 -0.2620
   29MOL   C11320329   7.413   4.760   6.544  0.0854  0.0349  0.6926
   29MOL   C11420330   7.481   4.898   6.515 -0.0758 -1.1369 -0.0684
   29MOL   C11520331   7.483   4.926   6.365 -0.8333  0.0568  0.0128
   29MOL   C11620332   7.545   5.064   6.337  0.0141  0.1071  0.0654
   29MOL   C11720333   7.534   5.119   6.190  0.0528  0.2799  0.0566
   29MOL   O11820334   7.415   5.190   6.186 -0.5647  0.2732  0.9314
   29MOL   C11920335   7.374   5.260   6.074 -1.2294 -0.1440  0.7669
   29MOL   O12020336   7.451   5.285   5.978 -0.6124 -0.1909 -0.7569
   29MOL   C12120337   7.229   5.318   6.082  0.7917 -0.0194 -0.8359
   29MOL   C12220338   7.228   5.449   6.000  0.8227 -0.3742  0.5075
   29MOL   C12320339   7.120   5.207   6.044  0.0317 -0.5042  0.0512
   29MOL   H12420340   7.351   4.460   6.884 -1.8525  0.6663  1.2195
   29MOL   H12520341   7.502   4.542   6.906 -0.8416  0.3144  1.4203
   29MOL   H12620342   7.362   4.632   6.956  0.4416 -0.5565  1.0695
   29MOL   H12720343   7.255   4.603   6.739  0.6433 -0.5667  0.5340
   29MOL   H12820344   7.367   4.504   6.674 -0.7652  0.5313 -0.2018
   29MOL   H12920345   7.548   4.687   6.704 -0.1550 -1.0936 -0.4669
   29MOL   H13020346   7.427   4.795   6.758  1.0622  0.1324 -0.5804
   29MOL   H13120347   7.429   4.694   6.459  1.8895  0.9415  0.3076
   29MOL   H13220348   7.304   4.773   6.543  0.1002  0.8336 -4.0133
   29MOL   H13320349   7.581   4.893   6.557 -0.2378 -1.9925  0.2240
   29MOL   H13420350   7.424   4.976   6.566  1.7545 -0.0537  0.3467
   29MOL   H13520351   7.545   4.852   6.314  0.3680 -0.9560  2.8473
   29MOL   H13620352   7.380   4.920   6.330 -0.8259  0.9135 -0.1739
   29MOL   H13720353   7.651   5.065   6.359 -0.1402 -0.4699  0.8599
   29MOL   H13820354   7.492   5.136   6.399  1.1725  0.6551  0.4165
   29MOL   H13920355   7.604   5.198   6.162 -0.9304  1.1538  0.0407
   29MOL   H14020356   7.540   5.037   6.118  1.3435 -0.2388  0.7432
   29MOL   H14120357   7.126   5.480   5.976  1.5916  0.6629 -1.4603
   29MOL   H14220358   7.292   5.527   6.042  1.2958 -1.4477  1.8385
   29MOL   H14320359   7.271   5.423   5.904  0.3102 -1.4499  0.5599
   29MOL   H14420360   7.019   5.249   6.039  0.3554 -0.0213 -3.6618
   29MOL   H14520361   7.107   5.144   6.132  0.2645  0.5030  0.8249
   29MOL   C14620362   7.222   4.223   6.613 -0.3609  1.0406 -0.0099
   29MOL   C14720363   7.326   4.256   6.500 -0.0425 -0.0543 -0.0693
   29MOL   C14820364   7.270   4.363   6.409 -0.5245  0.0490 -0.4415
   29MOL   C14920365   7.323   4.393   6.271  0.7265 -0.2680 -0.5962
   29MOL   C15020366   7.238   4.492   6.190  0.2221  0.0901 -0.4290
   29MOL   C15120367   7.188   4.615   6.262  0.2016 -0.1156  0.0903
   29MOL   C15220368   7.114   4.714   6.168  0.3843  1.0986  0.8062
   29MOL   C15320369   7.229   4.795   6.087  0.9437  0.4250  0.2843
   29MOL   O15420370   7.156   4.911   6.045 -0.2894 -0.2101 -0.5224
   29MOL   C15520371   7.204   4.985   5.951 -0.0388  0.8291  0.2664
   29MOL   O15620372   7.308   4.961   5.894  0.5323 -0.4790  0.1129
   29MOL   C15720373   7.122   5.109   5.912 -0.1019 -1.0508 -0.2345
   29MOL   C15820374   6.974   5.067   5.883  0.4876  0.0051  0.5882
   29MOL   C15920375   7.180   5.189   5.790  0.4023  0.2457 -0.2628
   29MOL   H16020376   7.225   4.292   6.697 -0.7937  1.5678 -0.4279
   29MOL   H16120377   7.215   4.125   6.660  0.2305  0.0921 -1.8716
   29MOL   H16220378   7.119   4.235   6.578 -0.2497  1.2350 -0.2645
   29MOL   H16320379   7.416   4.301   6.541 -0.1852  1.4977 -1.4287
   29MOL   H16420380   7.350   4.156   6.465  1.1719  0.0818  0.3447
   29MOL   H16520381   7.268   4.451   6.472 -1.5593  0.6588 -1.3045
   29MOL   H16620382   7.165   4.335   6.395 -1.4299  1.5562  2.8797
   29MOL   H16720383   7.423   4.432   6.290 -0.2662  1.1554  1.9618
   29MOL   H16820384   7.336   4.294   6.229 -0.4210 -0.6441 -0.0976
   29MOL   H16920385   7.157   4.435   6.145  1.3405 -1.0477 -1.0446
   29MOL   H17020386   7.305   4.532   6.113  0.8983  0.3596  0.2869
   29MOL   H17120387   7.265   4.665   6.321 -1.9121  0.2962  2.5834
   29MOL   H17220388   7.113   4.599   6.340 -0.2062 -1.3253 -0.5453
   29MOL   H17320389   7.033   4.683   6.103  0.6648  1.9594  0.0333
   29MOL   H17420390   7.059   4.788   6.226 -0.5213 -0.1707  1.5896
   29MOL   H17520391   7.311   4.812   6.156 -0.3363  3.5472  1.1320
   29MOL   H17620392   7.268   4.727   6.012  1.7063  2.1748 -0.9656
   29MOL   H17720393   6.976   5.001   5.795  0.4420 -1.9734  2.0355
   29MOL   H17820394   6.908   5.150   5.859 -0.5040 -0.4912  1.5909
   29MOL   H17920395   6.920   5.022   5.966 -1.5452 -0.0767 -0.7395
   29MOL   H18020396   7.288   5.189   5.803  0.5456 -1.3661 -1.3199
   29MOL   H18120397   7.148   5.293   5.787 -0.7524 -0.1311 -2.6470
   29MOL   C18220398   6.315   5.974   5.935  0.6133  0.5248  0.1901
   29MOL   C18320399   6.340   5.865   5.828  0.4258  0.7649  0.2938
   29MOL   C18420400   6.483   5.825   5.829  0.1279  0.1722 -0.9630
   29MOL   C18520401   6.516   5.712   5.732 -0.5640 -0.3331  0.6296
   29MOL   C18620402   6.640   5.628   5.773 -0.0444  0.6483  0.3272
   29MOL   C18720403   6.692   5.531   5.668 -0.4629 -0.3769 -0.4515
   29MOL   C18820404   6.810   5.441   5.707  0.0478  0.4336 -0.1706
   29MOL   C18920405   6.869   5.351   5.588 -1.0311  0.4650  0.8873
   29MOL   O19020406   6.998   5.304   5.606 -0.6317  0.5902  0.2179
   29MOL   C19120407   7.033   5.177   5.584 -0.1018  0.3041 -0.7402
   29MOL   O19220408   6.957   5.085   5.540  0.4929  0.3108  0.7170
   29MOL   C19320409   7.175   5.147   5.641 -0.0532 -0.0899 -0.5251
   29MOL   C19420410   7.207   4.995   5.625  0.2431 -0.4523  0.0677
   29MOL   C19520411   7.280   5.230   5.551  0.5693  0.0202 -0.5506
   29MOL   H19620412   6.333   5.934   6.035  1.2272 -1.4698 -0.6909
   29MOL   H19720413   6.379   6.059   5.910  1.7609 -0.5464 -0.6026
   29MOL   H19820414   6.214   6.015   5.939  0.3513 -0.2778  3.5213
   29MOL   H19920415   6.309   5.905   5.732 -2.4208  0.2370  0.9546
   29MOL   H20020416   6.277   5.781   5.857 -0.6547  1.2967 -0.5029
   29MOL   H20120417   6.541   5.915   5.811  3.5663 -1.9691 -0.9656
   29MOL   H20220418   6.506   5.787   5.928 -0.2562  2.1146 -0.1051
   29MOL   H20320419   6.435   5.641   5.718 -1.3039  0.4815  0.7268
   29MOL   H20420420   6.528   5.751   5.631 -0.3250  0.1967  0.8561
   29MOL   H20520421   6.613   5.589   5.871  1.5239 -0.2677  0.4066
   29MOL   H20620422   6.721   5.697   5.798  0.8323 -0.8066  1.6008
   29MOL   H20720423   6.718   5.590   5.581  1.4311  1.1220  1.0716
   29MOL   H20820424   6.618   5.461   5.630 -0.8206 -0.5788  0.5889
   29MOL   H20920425   6.890   5.504   5.746  3.9909 -3.6612 -1.2576
   29MOL   H21020426   6.787   5.371   5.787  1.0364 -1.0659 -1.1742
   29MOL   H21120427   6.850   5.409   5.497 -0.1512 -0.0873  0.3379
   29MOL   H21220428   6.796   5.270   5.581 -1.7887  1.3348 -2.9505
   29MOL   H21320429   7.203   4.967   5.520 -2.3943  0.1883 -0.0255
   29MOL   H21420430   7.311   4.980   5.656  0.0460  0.3166  1.1628
   29MOL   H21520431   7.144   4.920   5.673  1.5909 -1.2829  0.5667
   29MOL   H21620432   7.239   5.330   5.543  1.2518  0.3599  0.0735
   29MOL   H21720433   7.366   5.249   5.615  2.1462  0.7433 -2.8129
   29MOL   C21820434   6.310   5.554   4.808 -0.2603  0.7642 -0.2921
   29MOL   C21920435   6.390   5.426   4.851  0.1901 -0.0149  0.3321
   29MOL   C22020436   6.481   5.446   4.972  0.1556 -0.2656  0.1473
   29MOL   C22120437   6.601   5.343   4.966  0.3183 -0.2022  0.1468
   29MOL   C22220438   6.692   5.366   5.084  0.4120  0.0068 -0.7655
   29MOL   C22320439   6.812   5.269   5.096  0.0559 -0.0761 -0.1636
   29MOL   C22420440   6.914   5.285   5.213 -0.0690 -0.1880 -0.6333
   29MOL   C22520441   7.026   5.183   5.195 -0.0535  0.1288 -0.1431
   29MOL   O22620442   7.118   5.207   5.303 -0.1609  0.8096 -0.5102
   29MOL   C22720443   7.238   5.137   5.306 -0.0789 -0.6332  0.8514
   29MOL   O22820444   7.270   5.058   5.215  0.4452 -0.5126  0.3118
   29MOL   C22920445   7.344   5.189   5.410  0.2621  0.1935  0.1137
   29MOL   C23020446   7.446   5.073   5.433 -0.6002  0.4256  0.3126
   29MOL   C23120447   7.436   5.303   5.346  0.2159  1.0262 -0.6118
   29MOL   H23220448   6.237   5.589   4.881 -0.9282 -0.7862 -0.1958
   29MOL   H23320449   6.262   5.533   4.713  1.0155 -1.2194 -0.5320
   29MOL   H23420450   6.375   5.639   4.791 -0.9548  0.9216 -2.2776
   29MOL   H23520451   6.457   5.400   4.769  0.5638  2.8722 -0.3171
   29MOL   H23620452   6.343   5.331   4.878 -0.9666  0.5574  0.3767
   29MOL   H23720453   6.532   5.542   4.972 -1.7923  0.7864 -0.1059
   29MOL   H23820454   6.432   5.423   5.066  0.0456 -0.7222 -0.0202
   29MOL   H23920455   6.564   5.241   4.956 -0.8684  0.3832 -1.6981
   29MOL   H24020456   6.661   5.360   4.876 -0.6215 -1.5123 -0.7516
   29MOL   H24120457   6.731   5.467   5.076 -0.6335  0.4718 -0.0949
   29MOL   H24220458   6.634   5.384   5.174 -0.4093 -0.5648 -1.1680
   29MOL   H24320459   6.761   5.173   5.091 -1.1612  0.4075  2.3523
   29MOL   H24420460   6.863   5.267   5.000  0.6243 -2.2769  0.1679
   29MOL   H24520461   6.862   5.265   5.306  0.7839  0.8734  0.0831
   29MOL   H24620462   6.966   5.380   5.200  0.7262 -0.8182 -2.1147
   29MOL   H24720463   7.082   5.198   5.103 -0.6511 -0.6635 -0.6376
   29MOL   H24820464   6.985   5.084   5.180  0.6886 -0.0374 -1.1260
   29MOL   H24920465   7.501   5.056   5.341 -1.8701 -0.4075 -0.3003
   29MOL   H25020466   7.407   4.975   5.460 -0.6237  0.5528  0.7528
   29MOL   H25120467   7.524   5.105   5.503 -2.0469  0.7494  1.8096
   29MOL   H25220468   7.518   5.323   5.415 -0.6135 -1.2351  1.0721
   29MOL   H25320469   7.494   5.258   5.264 -2.5330 -0.7202 -1.6686
   29MOL   C25420470   7.056   5.642   4.230  0.5051 -0.1095  0.6346
   29MOL   C25520471   7.215   5.631   4.245 -0.0338 -0.7492 -0.1195
   29MOL   C25620472   7.260   5.659   4.390  0.0815  0.3436  0.4499
   29MOL   C25720473   7.260   5.534   4.481  0.2374 -0.1286 -0.7010
   29MOL   C25820474   7.308   5.575   4.619 -0.4440 -0.8781  0.4770
   29MOL   C25920475   7.295   5.453   4.714  0.1135 -0.3230  0.2461
   29MOL   C26020476   7.342   5.463   4.860  0.3147 -1.2762  0.3228
   29MOL   C26120477   7.294   5.349   4.944  0.0376 -0.2079 -1.0419
   29MOL   O26220478   7.353   5.352   5.078 -0.1267 -0.1481 -0.0061
   29MOL   C26320479   7.301   5.432   5.176 -0.5577  0.0489 -0.3941
   29MOL   O26420480   7.193   5.487   5.165  0.1037 -0.5578  0.1180
   29MOL   C26520481   7.389   5.454   5.305 -0.2903  0.3509 -0.3376
   29MOL   C26620482   7.516   5.529   5.262  0.5124  0.8224  0.1267
   29MOL   C26720483   7.311   5.533   5.419 -0.3364  0.0997  0.3289
   29MOL   H26820484   7.012   5.624   4.132 -1.1346  3.0810  0.7315
   29MOL   H26920485   7.015   5.562   4.291 -1.2128 -1.8184 -2.6247
   29MOL   H27020486   7.013   5.736   4.263  0.5141  0.7214 -1.6582
   29MOL   H27120487   7.244   5.528   4.225  2.4288 -0.3670  1.3555
   29MOL   H27220488   7.265   5.709   4.189 -1.1063 -0.8635 -1.2409
   29MOL   H27320489   7.205   5.741   4.437  0.2552  0.1598  0.9728
   29MOL   H27420490   7.362   5.697   4.386 -0.1815  0.9897 -0.0723
   29MOL   H27520491   7.326   5.460   4.436  3.4531  0.8620  2.1289
   29MOL   H27620492   7.160   5.495   4.500  0.6038 -1.5559 -1.5908
   29MOL   H27720493   7.410   5.613   4.616 -1.0142  0.5643 -3.5056
   29MOL   H27820494   7.248   5.654   4.665  1.2805  1.0123 -0.4392
   29MOL   H27920495   7.317   5.359   4.664  2.3712  0.0408  0.5191
   29MOL   H28020496   7.186   5.456   4.724 -0.2245 -3.0711 -1.7883
   29MOL   H28120497   7.451   5.466   4.869  0.3288  0.3648 -0.1982
   29MOL   H28220498   7.306   5.561   4.890  0.4073 -0.4167 -2.2034
   29MOL   H28320499   7.185   5.345   4.948 -0.0295  2.0664  1.6775
   29MOL   H28420500   7.314   5.254   4.895 -0.3019 -1.2622  0.8194
   29MOL   H28520501   7.577   5.468   5.194  0.9877  0.4103  0.9131
   29MOL   H28620502   7.506   5.622   5.207  0.4903  2.3101  2.6137
   29MOL   H28720503   7.584   5.543   5.346 -1.4401  0.6624  1.7491
   29MOL   H28820504   7.352   5.485   5.508 -0.4236 -1.9144 -0.6849
   29MOL   H28920505   7.209   5.496   5.424  0.3468 -1.9178 -0.2714
   29MOL   C29020506   0.051   6.170   6.298 -0.9272  0.4285  0.6757
   29MOL   C29120507   0.027   6.067   6.179  0.1866 -0.0561  0.7272
   29MOL   C29220508   0.104   5.924   6.173 -0.1656  0.0303  0.0746
   29MOL   C29320509   0.106   5.854   6.034 -0.0868 -0.3772  0.0750
   29MOL   C29420510   7.748   5.813   5.974  0.3314 -0.1261  0.4411
   29MOL   C29520511   7.761   5.782   5.828  0.5297 -0.6052 -0.2854
   29MOL   C29620512   7.626   5.777   5.753 -0.3371  0.1874 -0.1203
   29MOL   C29720513   7.641   5.700   5.622 -0.3805  0.7359 -0.5192
   29MOL   O29820514   7.510   5.663   5.573  0.3214 -0.3994  0.0990
   29MOL   C29920515   7.452   5.744   5.479  0.2833 -0.2495  0.2129
   29MOL   O30020516   7.495   5.847   5.436 -0.1606  0.1290 -0.2352
   29MOL   C30120517   7.308   5.688   5.446  0.4527 -0.3435 -0.1860
   29MOL   C30220518   7.251   5.758   5.321  0.4776 -0.9512 -0.1240
   29MOL   C30320519   7.220   5.702   5.572  0.5656  0.4805  0.2429
   29MOL   H30420520   7.779   6.263   6.277 -0.8486  0.2866 -0.1561
   29MOL   H30520521   0.156   6.199   6.298  0.2897 -3.4948 -2.1966
   29MOL   H30620522   0.026   6.125   6.395  0.1370 -0.9725  0.3241
   29MOL   H30720523   0.040   6.124   6.087 -0.4595 -0.6940  0.2314
   29MOL   H30820524   7.699   6.053   6.183  0.0966 -0.1885 -1.3347
   29MOL   H30920525   0.066   5.862   6.254  1.3930  0.5788  1.2575
   29MOL   H31020526   0.210   5.944   6.190 -0.8468  1.0891  3.5052
   29MOL   H31120527   0.153   5.930   5.972 -0.2851 -0.5407 -0.2729
   29MOL   H31220528   0.182   5.775   6.041 -0.5797 -0.9579 -0.9901
   29MOL   H31320529   7.723   5.721   6.027  2.6378 -0.2629  1.3351
   29MOL   H31420530   7.675   5.892   5.987  1.1669  0.1895  3.4465
   29MOL   H31520531   0.032   5.686   5.814  0.4404 -0.7359  0.2889
   29MOL   H31620532   0.037   5.866   5.786 -0.2936  1.1672  2.0694
   29MOL   H31720533   7.598   5.880   5.733  2.5096  1.5266  2.3973
   29MOL   H31820534   7.545   5.738   5.815 -0.2993  1.0459  0.4787
   29MOL   H31920535   7.702   5.610   5.635 -1.2353  0.0970 -0.8982
   29MOL   H32020536   7.703   5.766   5.561 -0.3716  0.7217 -0.5242
   29MOL   H32120537   7.323   5.750   5.239  1.4507  0.3980  0.5800
   29MOL   H32220538   7.232   5.864   5.336 -1.7857 -1.5023  1.0883
   29MOL   H32320539   7.158   5.715   5.284 -1.5221  0.7785  2.7077
   29MOL   H32420540   7.151   5.618   5.571  1.6636 -0.4406 -2.0622
   29MOL   H32520541   7.283   5.674   5.656  1.4270 -0.0825 -0.5796
   29MOL   C32620542   6.310   6.332   5.121 -0.3275  0.2721 -0.1541
   29MOL   C32720543   6.281   6.224   5.235  0.0859 -0.7097 -0.6471
   29MOL   C32820544   6.407   6.184   5.304  0.2812 -0.0097 -0.8838
   29MOL   C32920545   6.368   6.095   5.418 -0.1323  0.1151 -0.3710
   29MOL   C33020546   6.490   6.050   5.499  0.6159 -0.0960  0.0266
   29MOL   C33120547   6.593   5.957   5.426  0.7982  0.2362 -0.4174
   29MOL   C33220548   6.717   5.929   5.508  0.8972  0.5288  0.2211
   29MOL   C33320549   6.813   5.827   5.446 -0.7719 -0.5046  0.1766
   29MOL   O33420550   6.923   5.801   5.535 -0.2400 -0.2066  0.9952
   29MOL   C33520551   7.037   5.880   5.528 -0.0488  0.2822 -0.3311
   29MOL   O33620552   7.048   5.975   5.448 -0.8000  0.1921  0.3550
   29MOL   C33720553   7.151   5.839   5.624 -0.3133  0.2163 -0.5658
   29MOL   C33820554   7.090   5.792   5.759 -0.7030 -0.2007  0.8466
   29MOL   C33920555   7.255   5.951   5.640  0.3040  0.1916  0.7670
   29MOL   H34020556   6.382   6.406   5.157 -0.1668  0.2708 -0.4723
   29MOL   H34120557   6.213   6.377   5.100 -0.1352  0.4580 -0.6519
   29MOL   H34220558   6.347   6.286   5.029 -1.4507  0.5261 -0.7320
   29MOL   H34320559   6.224   6.144   5.189 -0.2668  1.0012 -3.3252
   29MOL   H34420560   6.214   6.277   5.303  3.2040  3.1143 -0.3187
   29MOL   H34520561   6.455   6.272   5.346 -1.2116  0.8335 -0.9081
   29MOL   H34620562   6.483   6.139   5.240  1.4016 -0.0785  0.4646
   29MOL   H34720563   6.313   6.008   5.382  1.7413 -0.6687 -1.3503
   29MOL   H34820564   6.304   6.151   5.487 -1.4461 -2.8341  0.8629
   29MOL   H34920565   6.540   6.144   5.522 -3.2632  2.1627 -0.2809
   29MOL   H35020566   6.463   6.009   5.596 -2.1353 -1.9552 -1.4733
   29MOL   H35120567   6.549   5.858   5.409  2.9842 -0.5271 -1.8661
   29MOL   H35220568   6.620   5.993   5.326 -1.6352  2.5678 -0.2784
   29MOL   H35320569   6.687   5.903   5.609  0.7251 -2.2080 -0.5005
   29MOL   H35420570   6.769   6.024   5.521  0.5976  0.5169  1.5551
   29MOL   H35520571   6.775   5.728   5.423 -1.9025 -0.0055 -0.1289
   29MOL   H35620572   6.856   5.868   5.354  2.0693  0.0061  1.6651
   29MOL   H35720573   7.016   5.862   5.800  0.3525  1.1043  0.5703
   29MOL   H35820574   7.041   5.695   5.752  0.2581 -0.4539 -3.3538
   29MOL   H35920575   7.164   5.770   5.836 -0.6475  0.5256  1.0084
   29MOL   H36020576   7.343   5.894   5.668  1.4325  1.1350 -0.7965
   29MOL   H36120577   7.272   5.985   5.538 -1.1789 -0.8914  0.1472
   29MOL   C36220578   7.535   6.113   6.919 -0.0490  0.0099 -0.1233
   29MOL   C36320579   7.433   6.080   6.807  0.0766  0.6807 -0.1834
   29MOL   C36420580   7.478   6.123   6.662  0.2297  0.6346 -0.4346
   29MOL   C36520581   7.429   6.031   6.548 -0.5855 -0.2457 -0.0468
   29MOL   C36620582   7.445   6.088   6.405  0.2653  0.5965  0.5799
   29MOL   C36720583   7.398   5.978   6.298 -0.1848 -0.2068 -0.7371
   29MOL   C36820584   7.387   6.040   6.156 -0.8792 -0.4583 -0.7277
   29MOL   C36920585   7.359   5.925   6.050  0.2779  0.2179  0.3566
   29MOL   O37020586   7.348   5.980   5.919 -0.3303  0.2897  0.5162
   29MOL   C37120587   7.239   6.045   5.878  0.4592 -0.4666 -0.3028
   29MOL   O37220588   7.137   6.060   5.945 -0.1607 -0.2956 -0.6832
   29MOL   C37320589   7.235   6.079   5.729  1.5495 -0.1271  0.1749
   29MOL   C37420590   7.103   6.145   5.698 -0.1544  0.2658 -0.7942
   29MOL   C37520591   7.348   6.180   5.688 -0.0497 -0.7000 -0.8318
   29MOL   H37620592   7.563   6.218   6.911 -2.3804  0.6454 -0.2278
   29MOL   H37720593   7.492   6.091   7.017 -0.2693 -0.4445 -0.3241
   29MOL   H37820594   7.619   6.044   6.912 -1.4250 -1.6808 -0.3520
   29MOL   H37920595   7.347   6.142   6.830  0.0689  0.6174 -0.0439
   29MOL   H38020596   7.415   5.973   6.814 -0.4974  0.6321 -2.2204
   29MOL   H38120597   7.586   6.118   6.651  0.1481 -0.2218 -0.8837
   29MOL   H38220598   7.432   6.221   6.643  0.3109  0.9955  1.1293
   29MOL   H38320599   7.322   6.016   6.564 -0.7925  0.3436 -0.8360
   29MOL   H38420600   7.476   5.932   6.545 -2.0096 -0.9190 -1.5445
   29MOL   H38520601   7.387   6.179   6.398  0.6837  0.9258  1.3762
   29MOL   H38620602   7.545   6.122   6.376  0.0940  0.1726 -0.5155
   29MOL   H38720603   7.304   5.935   6.332  1.3471 -2.0208  1.3702
   29MOL   H38820604   7.461   5.890   6.282 -0.3857 -0.0742 -2.3506
   29MOL   H38920605   7.484   6.075   6.123 -0.3399 -1.7935 -0.6043
   29MOL   H39020606   7.314   6.120   6.141 -0.8592 -0.4445 -0.7465
   29MOL   H39120607   7.440   5.852   6.048  1.2124  1.2475 -0.7938
   29MOL   H39220608   7.267   5.869   6.062  0.3623 -0.0967 -0.4350
   29MOL   H39320609   7.095   6.193   5.600 -1.8613 -1.0609 -1.3251
   29MOL   H39420610   7.019   6.077   5.694 -0.2890  0.4753 -1.7713
   29MOL   H39520611   7.070   6.217   5.772 -1.1754 -0.5417 -0.4641
   29MOL   H39620612   7.440   6.134   5.725 -0.5954 -1.2759 -0.1735
   29MOL   H39720613   7.373   6.173   5.582 -1.5403  0.1246 -1.2518
   29MOL   C39820614   6.904   7.332   5.504  0.0214  0.3000  0.2086
   29MOL   C39920615   6.873   7.190   5.457  0.0806  0.8080 -0.5787
   29MOL   C40020616   6.997   7.104   5.492 -0.8888  0.1238 -0.2860
   29MOL   C40120617   6.990   6.961   5.434  0.2476 -0.0070 -0.1781
   29MOL   C40220618   7.111   6.879   5.478  0.2145  0.2609 -0.0720
   29MOL   C40320619   7.090   6.734   5.433 -0.0121  0.1243  0.0868
   29MOL   C40420620   7.211   6.646   5.483  1.1407  0.1516  0.1890
   29MOL   C40520621   7.164   6.498   5.483 -0.1570  0.4962  0.6776
   29MOL   O40620622   7.258   6.412   5.548  0.0092  0.3919 -0.2466
   29MOL   C40720623   7.249   6.407   5.688 -0.2533 -0.1468 -0.5659
   29MOL   O40820624   7.161   6.460   5.759  0.3883 -0.8836 -0.3188
   29MOL   C40920625   7.365   6.330   5.744 -0.6975  0.3539  0.3263
   29MOL   C41020626   7.375   6.330   5.889  0.4406  0.3925 -0.3472
   29MOL   C41120627   7.495   6.402   5.677 -0.2355  1.0672  0.1756
   29MOL   H41220628   6.993   7.373   5.456  0.1426 -0.9099 -0.6268
   29MOL   H41320629   6.916   7.337   5.612 -1.0116 -1.2554  0.4117
   29MOL   H41420630   6.821   7.395   5.473  0.3446 -0.2433 -1.8266
   29MOL   H41520631   6.861   7.181   5.349 -1.2609  1.3123 -0.4749
   29MOL   H41620632   6.789   7.151   5.514  0.7145 -1.6190 -1.2156
   29MOL   H41720633   7.091   7.151   5.463 -0.3209 -0.8265 -0.0126
   29MOL   H41820634   7.003   7.095   5.600  0.1952  2.9624 -0.0676
   29MOL   H41920635   6.987   6.972   5.326  0.8044 -0.1396 -0.2045
   29MOL   H42020636   6.896   6.916   5.466 -0.2059  0.7688 -0.3928
   29MOL   H42120637   7.204   6.910   5.430  1.1088 -0.9333  0.8406
   29MOL   H42220638   7.131   6.887   5.585  2.3299 -0.3909 -0.3878
   29MOL   H42320639   7.088   6.727   5.324 -0.1162  2.6311 -0.0958
   29MOL   H42420640   6.996   6.687   5.463 -0.1565 -0.3897 -1.1200
   29MOL   H42520641   7.296   6.650   5.415 -0.6549  1.1405 -2.0940
   29MOL   H42620642   7.233   6.676   5.585 -3.9544  1.2392  1.1090
   29MOL   H42720643   7.069   6.489   5.536 -1.1930 -0.5692 -1.3109
   29MOL   H42820644   7.151   6.449   5.387  0.1295 -1.2062  1.4840
   29MOL   H42920645   7.388   6.432   5.923  1.3791 -0.2568  1.2928
   29MOL   H43020646   7.452   6.262   5.925  1.5501  1.8092 -0.0165
   29MOL   H43120647   7.282   6.309   5.942  1.1511  0.0455  0.7873
   29MOL   H43220648   7.486   6.510   5.686 -1.4781  1.1417 -1.7830
   29MOL   H43320649   7.495   6.384   5.570  1.4389  0.8166  0.2143
   29MOL   C43420650   0.156   5.883   4.739  0.4792 -0.2866 -0.4519
   29MOL   C43520651   0.137   5.923   4.887 -0.0683  0.1716 -0.7030
   29MOL   C43620652   0.086   5.803   4.973  0.3963 -0.1786  0.8445
   29MOL   C43720653   0.101   5.811   5.123 -0.9115  0.1100 -0.0660
   29MOL   C43820654   0.017   5.927   5.175  0.1003 -0.1360 -0.3061
   29MOL   C43920655   0.037   5.950   5.327  0.5432  0.2851  0.0686
   29MOL   C44020656   7.735   6.065   5.395 -0.0885  0.0019 -0.1957
   29MOL   C44120657   7.753   6.062   5.545  0.4707  0.5288 -0.5775
   29MOL   O44220658   7.679   6.175   5.592 -0.4187 -0.3649 -0.2893
   29MOL   C44320659   7.692   6.219   5.711 -0.2192  0.6835 -0.1441
   29MOL   O44420660   7.750   6.164   5.803 -0.1893 -0.0210 -0.5344
   29MOL   C44520661   7.648   6.369   5.724  0.8536  0.5256  0.4362
   29MOL   C44620662   7.686   6.432   5.854 -0.1929  0.5986 -0.4621
   29MOL   C44720663   7.743   6.440   5.610 -0.5030 -0.8179 -0.4501
   29MOL   H44820664   0.218   5.796   4.723  0.1217 -0.9146  1.4800
   29MOL   H44920665   0.182   5.971   4.679  2.4988 -0.4534  0.1550
   29MOL   H45020666   0.059   5.846   4.706  0.5029 -1.1935  0.4853
   29MOL   H45120667   0.074   6.007   4.914 -0.1594 -0.5142  1.3616
   29MOL   H45220668   0.236   5.942   4.927 -0.3258  0.2206 -0.0699
   29MOL   H45320669   0.132   5.713   4.933  0.5380  0.3381 -0.1609
   29MOL   H45420670   7.761   5.786   4.948  0.0560 -0.2984  2.2740
   29MOL   H45520671   0.205   5.830   5.151 -0.6573 -0.4873 -0.6024
   29MOL   H45620672   0.068   5.715   5.163  1.2226 -1.9289 -2.9898
   29MOL   H45720673   0.032   6.024   5.128 -1.1421  0.0645 -0.3058
   29MOL   H45820674   7.690   5.908   5.156 -0.0456 -1.1594  1.4758
   29MOL   H45920675   0.142   5.972   5.347  0.2450 -0.1651  2.3490
   29MOL   H46020676   0.013   5.858   5.381  1.0754 -1.1089 -2.0073
   29MOL   H46120677   7.757   6.161   5.348  2.0104 -0.1186  0.4854
   29MOL   H46220678   7.629   6.048   5.373 -0.3413  1.0639  0.2098
   29MOL   H46320679   0.080   6.071   5.563  1.0155  0.1535 -3.2892
   29MOL   H46420680   7.703   5.976   5.589 -0.0805  0.0699 -2.0551
   29MOL   H46520681   0.014   6.426   5.866 -0.3186  2.4406  1.9518
   29MOL   H46620682   7.659   6.537   5.850 -1.3855  0.3081 -0.2817
   29MOL   H46720683   7.651   6.383   5.945 -0.8812  1.5260 -0.2274
   29MOL   H46820684   7.709   6.404   5.513 -2.6972 -1.0836  0.3843
   29MOL   H46920685   7.696   6.539   5.602  0.9975  0.0961  1.5731
   29MOL   C47020686   0.876   7.189   5.779 -0.1615  0.5072 -0.0983
   29MOL   C47120687   0.750   7.132   5.846 -0.4343 -0.0167 -0.9359
   29MOL   C47220688   0.734   6.987   5.792  0.0127 -0.2020 -0.3726
   29MOL   C47320689   0.601   6.914   5.825  0.1265 -0.5796  0.0938
   29MOL   C47420690   0.481   6.976   5.760 -0.3913  0.0021 -0.6071
   29MOL   C47520691   0.354   6.879   5.754  0.1714  0.0990 -0.4071
   29MOL   C47620692   0.218   6.929   5.683 -0.3700  0.3766 -0.0062
   29MOL   C47720693   0.104   6.837   5.707  0.5233  1.1406 -0.6309
   29MOL   O47820694   0.100   6.711   5.636 -0.2006  0.1409 -0.2491
   29MOL   C47920695   0.145   6.595   5.694  0.4342 -0.5120 -0.0225
   29MOL   O48020696   0.199   6.586   5.805 -0.5202  0.6323 -0.0441
   29MOL   C48120697   0.121   6.474   5.608  0.1254 -0.1726  0.2289
   29MOL   C48220698   0.203   6.352   5.648 -0.0291 -0.5010  0.2633
   29MOL   C48320699   0.134   6.507   5.451 -0.4319  0.2074 -0.5641
   29MOL   H48420700   0.908   7.284   5.822  4.2479 -1.6039  1.5399
   29MOL   H48520701   0.872   7.200   5.671  1.6514  0.0137 -0.2205
   29MOL   H48620702   0.962   7.123   5.782 -1.2859 -0.9251  2.4363
   29MOL   H48720703   0.767   7.127   5.954  1.2659 -3.0126 -1.2779
   29MOL   H48820704   0.669   7.200   5.822  0.7767  1.6632 -0.4023
   29MOL   H48920705   0.738   6.977   5.683 -2.7651  0.6773 -0.5808
   29MOL   H49020706   0.812   6.921   5.830  0.1684  1.7123  2.7923
   29MOL   H49120707   0.602   6.812   5.787  0.3002  0.1845 -1.9780
   29MOL   H49220708   0.585   6.918   5.933 -0.2112 -1.2730  0.0725
   29MOL   H49320709   0.438   7.065   5.805 -0.7353 -1.3337  1.8081
   29MOL   H49420710   0.500   7.002   5.656  1.6032  1.8920  0.2058
   29MOL   H49520711   0.378   6.794   5.689  0.5633 -0.1212  0.0212
   29MOL   H49620712   0.316   6.847   5.851  1.4403 -1.3765 -0.3772
   29MOL   H49720713   0.200   7.025   5.731 -1.2730  0.7791 -1.1388
   29MOL   H49820714   0.224   6.946   5.576 -2.0923  0.2541 -0.1235
   29MOL   H49920715   0.002   6.876   5.700 -1.2430 -3.3989 -2.7220
   29MOL   H50020716   0.111   6.821   5.814 -0.7452 -1.4481 -0.8888
   29MOL   H50120717   0.167   6.313   5.743  0.8076  0.2554  0.8961
   29MOL   H50220718   0.310   6.368   5.660  0.3523  0.6435 -3.8886
   29MOL   H50320719   0.195   6.280   5.566 -0.0713 -0.0065 -0.1652
   29MOL   H50420720   0.108   6.409   5.409 -0.4145 -0.6651  1.4147
   29MOL   H50520721   0.051   6.573   5.427 -0.4386  0.0180 -1.0776
   29MOL   C50620722   7.667   6.275   4.282  0.5767 -0.0041 -0.2156
   29MOL   C50720723   7.774   6.336   4.373  0.6242  0.3938 -0.0787
   29MOL   C50820724   7.736   6.355   4.520  0.1999  0.5459  0.0012
   29MOL   C50920725   7.748   6.227   4.603  0.3152 -0.6316 -0.1632
   29MOL   C51020726   7.726   6.255   4.757 -0.0587  0.3150  0.6226
   29MOL   C51120727   0.062   6.341   4.819 -0.0479  0.4043 -0.4511
   29MOL   C51220728   0.079   6.339   4.975  0.2417  0.1174 -0.5378
   29MOL   C51320729   0.151   6.465   5.025 -0.1262 -0.6102 -0.7934
   29MOL   O51420730   0.172   6.461   5.165 -0.0053 -0.0985 -0.1813
   29MOL   C51520731   0.207   6.586   5.223  0.0023  0.1177 -0.2190
   29MOL   O51620732   0.200   6.694   5.170 -0.4211  0.6021 -0.7644
   29MOL   C51720733   0.261   6.567   5.369  0.1062 -0.5303  0.0087
   29MOL   C51820734   0.310   6.701   5.420  0.1935  0.0259  0.6937
   29MOL   C51920735   0.381   6.464   5.386 -0.2969  0.0941 -0.0722
   29MOL   H52020736   7.581   6.341   4.280  0.3852 -0.2365  0.2869
   29MOL   H52120737   7.646   6.171   4.308  1.1079 -0.3527 -1.1821
   29MOL   H52220738   7.691   6.266   4.176  0.8209 -1.1380 -0.0688
   29MOL   H52320739   0.026   6.428   4.324  2.0270  1.2514  2.3774
   29MOL   H52420740   0.078   6.266   4.377 -1.1984 -1.7116  2.1111
   29MOL   H52520741   0.032   6.421   4.562 -1.8592  3.5682 -0.8495
   29MOL   H52620742   7.635   6.397   4.524 -0.2008 -0.4529  0.5612
   29MOL   H52720743   7.661   6.165   4.581  0.5005 -1.0398  0.2462
   29MOL   H52820744   0.063   6.176   4.583 -0.7294 -2.8411  0.3950
   29MOL   H52920745   7.633   6.306   4.780 -0.7911 -0.9010  0.3433
   29MOL   H53020746   7.718   6.159   4.808  0.9527 -1.4767 -2.4452
   29MOL   H53120747   0.055   6.443   4.781  1.5433  1.2590  1.3992
   29MOL   H53220748   0.160   6.316   4.779 -0.5916 -0.7574 -1.0764
   29MOL   H53320749   0.131   6.252   5.016 -1.5403 -0.8835 -0.3393
   29MOL   H53420750   7.758   6.333   5.017  0.7084  0.5609  0.6615
   29MOL   H53520751   0.093   6.554   5.000  1.1088  0.6798  0.8331
   29MOL   H53620752   0.254   6.468   4.990 -0.0655 -0.1821 -0.5762
   29MOL   H53720753   0.215   6.752   5.435 -0.7500 -1.4516 -0.0134
   29MOL   H53820754   0.374   6.763   5.358 -1.0419 -2.5819 -3.4598
   29MOL   H53920755   0.357   6.698   5.518  1.0050 -0.6881  0.2960
   29MOL   H54020756   0.388   6.434   5.491 -0.9522  1.9771  0.5443
   29MOL   H54120757   0.347   6.375   5.333 -4.4033  0.5061  1.6294
   29MOL   C54220758   1.039   5.865   6.088 -0.2322  0.6947  1.0895
   29MOL   C54320759   0.928   5.940   6.020 -0.1587 -0.2231  0.1489
   29MOL   C54420760   0.979   6.045   5.922  0.1317 -0.0203  0.0447
   29MOL   C54520761   0.872   6.148   5.869  0.0726 -0.3669  0.1431
   29MOL   C54620762   0.927   6.260   5.777  0.0765  0.6380 -0.5838
   29MOL   C54720763   0.806   6.359   5.737 -0.0662  0.7001 -0.1714
   29MOL   C54820764   0.843   6.470   5.639  0.3183  0.1790  0.5001
   29MOL   C54920765   0.725   6.572   5.622  0.3525 -0.4883 -0.1596
   29MOL   O55020766   0.624   6.524   5.535 -0.4689  0.1779 -0.1268
   29MOL   C55120767   0.609   6.583   5.418  0.0623 -0.3991 -0.6179
   29MOL   O55220768   0.664   6.690   5.389 -0.2221  0.3914 -0.5168
   29MOL   C55320769   0.527   6.494   5.322  0.5059 -0.2442  0.2224
   29MOL   C55420770   0.522   6.562   5.182  0.1423  0.3735 -0.8349
   29MOL   C55520771   0.597   6.355   5.315 -0.4141 -0.1329 -0.0791
   29MOL   H55620772   1.087   5.794   6.021 -1.7582 -0.7768  1.5408
   29MOL   H55720773   1.001   5.796   6.164  0.4289 -0.8285  0.0562
   29MOL   H55820774   1.125   5.924   6.120  0.3097 -0.2527  1.4030
   29MOL   H55920775   0.865   5.858   5.983  0.4245 -0.3293 -0.6245
   29MOL   H56020776   0.873   5.998   6.094 -1.1252  1.0862 -1.5633
   29MOL   H56120777   1.031   5.993   5.841 -0.0012  0.7356 -0.5310
   29MOL   H56220778   1.046   6.103   5.984 -0.3560  0.1872  0.3812
   29MOL   H56320779   0.784   6.098   5.828 -0.7165  0.4718  0.7692
   29MOL   H56420780   0.815   6.191   5.952 -1.2559 -0.6025 -0.6215
   29MOL   H56520781   0.985   6.219   5.695 -2.3434  0.8495 -2.4739
   29MOL   H56620782   0.989   6.322   5.842  0.6159  1.0250 -1.4642
   29MOL   H56720783   0.724   6.297   5.701  2.4257 -1.2703 -2.5936
   29MOL   H56820784   0.767   6.399   5.831 -1.0558 -2.4775  0.8317
   29MOL   H56920785   0.924   6.531   5.677 -1.0397  0.9772  2.1912
   29MOL   H57020786   0.876   6.435   5.542 -0.2164  1.0404 -0.0027
   29MOL   H57120787   0.762   6.672   5.600 -0.2416  0.1087  1.4963
   29MOL   H57220788   0.694   6.583   5.725  2.8116 -0.8077  0.6536
   29MOL   H57320789   0.472   6.504   5.105 -0.5664  0.6237 -0.5732
   29MOL   H57420790   0.622   6.576   5.141  0.5557 -2.8422 -1.0888
   29MOL   H57520791   0.472   6.658   5.173 -1.3036 -0.3776 -0.9881
   29MOL   H57620792   0.573   6.299   5.406  1.5368  1.1391  1.2474
   29MOL   H57720793   0.703   6.362   5.338 -0.3391  1.3373 -0.8631
   29MOL   C57820794   1.468   5.994   4.973  0.9641 -0.1385  0.0176
   29MOL   C57920795   1.445   6.113   5.065  0.3230 -0.1455 -0.5064
   29MOL   C58020796   1.318   6.108   5.152 -0.3585 -0.5708 -0.5661
   29MOL   C58120797   1.302   6.243   5.217  0.0403 -1.0725 -0.3034
   29MOL   C58220798   1.234   6.357   5.140  0.1990  0.2070 -0.1109
   29MOL   C58320799   1.093   6.318   5.094 -0.0645 -0.0171 -0.0283
   29MOL   C58420800   1.013   6.439   5.049  0.4226  0.1668  0.3691
   29MOL   C58520801   0.883   6.391   4.994  0.1698  0.0412  0.1812
   29MOL   O58620802   0.801   6.355   5.107 -0.7099  0.7219  1.0556
   29MOL   C58720803   0.673   6.311   5.073  0.1072 -0.8224 -0.4091
   29MOL   O58820804   0.626   6.335   4.961  0.8690 -0.2896  0.0049
   29MOL   C58920805   0.597   6.250   5.193  0.0939  0.3120  0.4155
   29MOL   C59020806   0.455   6.209   5.148  0.0560  0.0314 -0.0216
   29MOL   C59120807   0.680   6.127   5.254  0.2892  0.4672 -0.4874
   29MOL   H59220808   1.370   5.964   4.937  0.8799  1.0575 -0.7560
   29MOL   H59320809   1.518   5.911   5.023 -1.0842 -1.7187 -0.4807
   29MOL   H59420810   1.537   6.025   4.895 -1.5196 -0.0629 -2.2253
   29MOL   H59520811   1.459   6.203   5.005  1.0259 -0.7441 -1.2563
   29MOL   H59620812   1.536   6.113   5.125  0.2452  0.5174 -0.3922
   29MOL   H59720813   1.351   6.041   5.231 -3.0528 -0.2268  0.8929
   29MOL   H59820814   1.225   6.076   5.107 -1.2424  3.7376 -2.0127
   29MOL   H59920815   1.403   6.269   5.249 -0.0750 -0.5633 -0.3587
   29MOL   H60020816   1.240   6.232   5.306  0.6211 -0.2913  0.1944
   29MOL   H60120817   1.295   6.381   5.053  0.0370  0.6328 -0.1114
   29MOL   H60220818   1.249   6.443   5.206  2.3451  0.5868 -1.0455
   29MOL   H60320819   1.048   6.255   5.171 -0.2012  0.8870  0.6416
   29MOL   H60420820   1.105   6.254   5.007  0.6098  0.5450 -0.3549
   29MOL   H60520821   1.063   6.496   4.971 -2.9141  0.3997 -1.7179
   29MOL   H60620822   0.993   6.510   5.129  1.1576  0.0163  0.6810
   29MOL   H60720823   0.834   6.477   4.948  2.4537  1.2159 -0.0787
   29MOL   H60820824   0.899   6.319   4.914 -1.0540  1.8070 -1.6971
   29MOL   H60920825   0.448   6.125   5.079  1.2232 -0.8094  0.8695
   29MOL   H61020826   0.394   6.179   5.233  0.8814  0.6236  0.7955
   29MOL   H61120827   0.398   6.288   5.098 -0.8403  0.4520  1.6434
   29MOL   H61220828   0.646   6.092   5.351 -0.9079  0.8404 -0.7680
   29MOL   H61320829   0.784   6.160   5.264  0.5631 -0.4311 -0.3550
   29MOL   C61420830   0.957   5.668   4.374  0.4846  0.3371 -0.1525
   29MOL   C61520831   0.805   5.638   4.350  0.3128 -0.1915  1.0568
   29MOL   C61620832   0.747   5.570   4.466  0.3907  0.4279  0.1060
   29MOL   C61720833   0.726   5.662   4.584  0.0967  0.2783 -0.6181
   29MOL   C61820834   0.620   5.614   4.688 -0.0730 -0.0669 -0.6238
   29MOL   C61920835   0.587   5.720   4.788  0.2216 -0.3723 -0.0220
   29MOL   C62020836   0.511   5.670   4.909  0.2592 -0.2607 -0.1921
   29MOL   C62120837   0.465   5.786   4.988 -0.1517  0.1312 -0.2618
   29MOL   O62220838   0.575   5.853   5.050 -0.6258 -0.2037  0.5678
   29MOL   C62320839   0.574   5.913   5.166 -0.1936 -0.4317 -0.0069
   29MOL   O62420840   0.478   5.927   5.243  0.0291  0.3920  0.0124
   29MOL   C62520841   0.711   5.994   5.186  0.6856 -0.2335 -0.1051
   29MOL   C62620842   0.788   6.013   5.053 -0.6042  0.3063  0.6496
   29MOL   C62720843   0.793   5.905   5.284  0.2628  0.0728 -0.1693
   29MOL   H62820844   1.007   5.698   4.282  0.3155  1.1425  0.0111
   29MOL   H62920845   1.008   5.582   4.418  2.7548  0.9737 -1.4858
   29MOL   H63020846   0.970   5.749   4.446  1.4211  1.2342 -1.3151
   29MOL   H63120847   0.760   5.736   4.336  0.1705 -0.7395 -2.8912
   29MOL   H63220848   0.790   5.588   4.254  0.4138  1.8253 -0.0487
   29MOL   H63320849   0.804   5.480   4.489 -1.4426 -0.0513  3.1169
   29MOL   H63420850   0.650   5.529   4.437 -0.2971  1.3819  0.9627
   29MOL   H63520851   0.719   5.765   4.549  1.4847  0.3020 -0.8613
   29MOL   H63620852   0.822   5.661   4.635 -0.0783  1.3610 -0.2564
   29MOL   H63720853   0.524   5.591   4.641 -0.1074 -0.1588 -0.5075
   29MOL   H63820854   0.662   5.528   4.741  2.4362  1.0538 -0.7487
   29MOL   H63920855   0.676   5.775   4.818  0.1497 -1.6264  2.5854
   29MOL   H64020856   0.513   5.789   4.745  0.5634 -0.7507 -1.2355
   29MOL   H64120857   0.581   5.607   4.964 -0.0999 -0.6295 -0.1498
   29MOL   H64220858   0.425   5.606   4.887 -1.9652  2.4622  0.2707
   29MOL   H64320859   0.412   5.850   4.918 -1.0956  1.2665  1.4435
   29MOL   H64420860   0.401   5.751   5.069 -0.6307 -0.1992 -0.7802
   29MOL   H64520861   0.828   5.915   5.027  0.5680  0.6346  1.1548
   29MOL   H64620862   0.871   6.084   5.058 -2.0940  2.0220  1.5766
   29MOL   H64720863   0.716   6.054   4.982 -1.4616 -1.8535  0.2502
   29MOL   H64820864   0.719   5.878   5.359 -0.5281  0.6554 -0.7213
   29MOL   H64920865   0.868   5.969   5.331  2.0012 -2.4553  0.5389
   29MOL   C65020866   1.588   5.592   5.900  0.2398 -0.5288  0.6990
   29MOL   C65120867   1.473   5.564   5.806  0.0944  0.1825  0.4284
   29MOL   C65220868   1.515   5.570   5.661  0.0358  0.1031 -0.0014
   29MOL   C65320869   1.386   5.544   5.575  0.1646 -0.4094  0.1672
   29MOL   C65420870   1.422   5.549   5.428  1.2325 -0.8689  1.6387
   29MOL   C65520871   1.285   5.557   5.343  0.3147  0.2167  0.1455
   29MOL   C65620872   1.308   5.587   5.198  0.0631 -0.6996 -0.2154
   29MOL   C65720873   1.223   5.697   5.138 -0.6712 -0.0797 -0.4843
   29MOL   O65820874   1.086   5.685   5.168 -0.2332 -0.0054 -0.0367
   29MOL   C65920875   1.009   5.804   5.188 -0.1070  0.8051 -0.0057
   29MOL   O66020876   1.048   5.918   5.157 -0.2707 -0.0739 -0.0313
   29MOL   C66120877   0.870   5.774   5.255  0.9070 -0.8004  0.4086
   29MOL   C66220878   0.795   5.680   5.162 -0.6703  1.2146  0.5050
   29MOL   C66320879   0.889   5.695   5.393  0.1705  0.5256 -0.8424
   29MOL   H66420880   1.564   5.562   6.002 -1.9327 -0.0620  0.3582
   29MOL   H66520881   1.620   5.696   5.900  0.4979 -0.5901 -1.0845
   29MOL   H66620882   1.676   5.539   5.864  0.1090 -1.4777  1.7740
   29MOL   H66720883   1.389   5.631   5.827  1.1133  1.8650 -0.7164
   29MOL   H66820884   1.449   5.459   5.816 -0.9525  0.3573 -0.1728
   29MOL   H66920885   1.584   5.488   5.639  0.0564 -0.2210  1.2556
   29MOL   H67020886   1.558   5.665   5.627  0.0903  0.1072  0.0791
   29MOL   H67120887   1.304   5.607   5.607  0.2016 -0.6323  0.7232
   29MOL   H67220888   1.354   5.443   5.602 -0.4738 -0.3012 -0.1883
   29MOL   H67320889   1.482   5.463   5.398  1.3077 -0.9798  2.0988
   29MOL   H67420890   1.478   5.641   5.410  1.5729 -1.5825 -1.1568
   29MOL   H67520891   1.221   5.470   5.361  0.0320  0.4942  0.4850
   29MOL   H67620892   1.223   5.634   5.389  1.6085  1.4317 -0.1175
   29MOL   H67720893   1.290   5.491   5.149 -0.7631  0.2207 -1.7519
   29MOL   H67820894   1.413   5.612   5.185 -0.1478 -0.1345 -0.8227
   29MOL   H67920895   1.225   5.704   5.029 -0.6993  1.1260 -0.4142
   29MOL   H68020896   1.262   5.791   5.174  0.3670 -1.3052  1.6510
   29MOL   H68120897   0.695   5.668   5.203  0.0708 -1.3034  1.6959
   29MOL   H68220898   0.835   5.579   5.163 -1.6570  0.7798 -1.4411
   29MOL   H68320899   0.792   5.718   5.060 -0.1276  1.2478  0.4966
   29MOL   H68420900   0.796   5.640   5.409 -1.1728  3.1201  0.5980
   29MOL   H68520901   0.962   5.615   5.388 -1.2339 -0.9112  0.7824
   29MOL   C68620902   1.895   6.378   5.551  0.2584 -0.8361  0.2628
   29MOL   C68720903   1.807   6.368   5.675  1.0613  0.0966 -0.6637
   29MOL   C68820904   1.671   6.290   5.664 -0.1036  0.6046  0.9493
   29MOL   C68920905   1.692   6.136   5.648 -0.2372 -0.5305 -0.2035
   29MOL   C69020906   1.563   6.054   5.666 -0.0181  0.1842 -0.7383
   29MOL   C69120907   1.475   6.039   5.553  0.5589  0.0040  0.0294
   29MOL   C69220908   1.335   5.972   5.581  0.5060 -0.1446  0.0811
   29MOL   C69320909   1.244   5.951   5.462 -0.5531  0.4480  0.5220
   29MOL   O69420910   1.129   5.853   5.483 -0.4253  0.0521 -0.6813
   29MOL   C69520911   1.016   5.890   5.536  0.1146 -0.0436 -0.2189
   29MOL   O69620912   0.991   6.008   5.584 -0.4326  0.2804 -0.3630
   29MOL   C69720913   0.912   5.775   5.538  0.3788 -0.4192 -0.1229
   29MOL   C69820914   0.959   5.670   5.637  0.2355 -0.3771 -0.1389
   29MOL   C69920915   0.781   5.830   5.602  0.5546 -0.0731 -0.0055
   29MOL   H70020916   1.992   6.420   5.577 -1.0934  1.2540  2.1339
   29MOL   H70120917   1.843   6.431   5.471  0.2054 -1.3544 -0.0461
   29MOL   H70220918   1.911   6.281   5.504  0.7954 -0.6526  0.0587
   29MOL   H70320919   1.772   6.462   5.718 -1.0323 -0.8717 -0.1759
   29MOL   H70420920   1.861   6.324   5.760  0.3772 -2.2481 -1.4024
   29MOL   H70520921   1.622   6.325   5.573 -0.9381 -3.2525 -0.1926
   29MOL   H70620922   1.605   6.323   5.745 -1.1326  0.0820  0.3469
   29MOL   H70720923   1.777   6.093   5.701  0.5485  0.6628 -0.4688
   29MOL   H70820924   1.716   6.113   5.545 -1.1391  2.1778 -1.0751
   29MOL   H70920925   1.499   6.074   5.752  1.1080  0.4633  0.0571
   29MOL   H71020926   1.593   5.950   5.676 -0.0876  0.1383 -1.0083
   29MOL   H71120927   1.455   6.140   5.517 -0.6118 -0.1202  0.3176
   29MOL   H71220928   1.524   5.982   5.475  1.2942 -0.7694  1.0355
   29MOL   H71320929   1.354   5.875   5.627  2.9997 -0.0483 -0.6506
   29MOL   H71420930   1.274   6.040   5.641  1.2619  1.6606 -1.1564
   29MOL   H71520931   1.321   5.915   5.394 -1.9373 -0.6464 -0.5012
   29MOL   H71620932   1.207   6.041   5.413 -0.4161  0.6038  0.7028
   29MOL   H71720933   0.888   5.595   5.670  0.6710 -0.7466 -0.0346
   29MOL   H71820934   1.050   5.616   5.609 -0.4807 -1.1854 -0.9317
   29MOL   H71920935   0.985   5.719   5.731 -1.3735  1.4759 -0.6159
   29MOL   H72020936   0.792   5.820   5.711 -0.6629  0.4872  0.1692
   29MOL   H72120937   0.698   5.764   5.577 -0.4400  0.3809  1.9662
   29MOL   H72220938   0.755   5.931   5.573 -3.4615 -0.2436  2.5352
   30MOL     C120939   1.091   3.340   5.384 -0.1969  0.5796  0.2940
   30MOL     C220940   0.998   3.444   5.445  0.3032  0.4733 -0.2094
   30MOL     C320941   1.039   3.489   5.589 -0.2396 -0.1895 -0.0702
   30MOL     C420942   0.958   3.598   5.658  0.0118 -0.3191  0.0699
   30MOL     C520943   0.821   3.548   5.689  0.6202  0.2037 -0.5287
   30MOL     C620944   0.737   3.651   5.771 -0.2551 -0.0808  0.3582
   30MOL     C720945   0.600   3.588   5.811  0.3586 -0.0956 -0.5555
   30MOL     C820946   0.502   3.690   5.863  0.1252  0.3874  0.1590
   30MOL     O920947   0.549   3.753   5.981 -0.1607  0.0466  0.8414
   30MOL    C1020948   0.532   3.700   6.102 -0.9592 -0.5872 -0.0668
   30MOL    O1120949   0.485   3.586   6.123 -0.1364  0.0262  0.3146
   30MOL    C1220950   0.568   3.799   6.221 -0.3592  0.1465  0.4561
   30MOL    C1320951   0.510   3.941   6.190 -0.2234 -0.2206  0.1046
   30MOL    C1420952   0.522   3.740   6.361  0.0229  0.0183 -0.2061
   30MOL    H1520953   1.057   3.305   5.286  0.6266  2.3337 -0.6455
   30MOL    H1620954   1.087   3.252   5.447 -0.8678 -1.2612 -2.2254
   30MOL    H1720955   1.195   3.367   5.367  0.6994 -2.0521  1.4188
   30MOL    H1820956   0.897   3.402   5.441  0.9368 -1.1477  0.6510
   30MOL    H1920957   1.002   3.530   5.378 -0.3965 -0.3513 -1.3299
   30MOL    H2020958   1.056   3.411   5.663 -0.7461  0.2687  0.5347
   30MOL    H2120959   1.135   3.540   5.591 -0.3949  0.1349 -0.7666
   30MOL    H2220960   1.014   3.629   5.746 -2.3919  0.3928  1.3920
   30MOL    H2320961   0.953   3.683   5.591  1.1870  2.2450  3.1115
   30MOL    H2420962   0.837   3.462   5.754 -0.0584  0.8072  0.4450
   30MOL    H2520963   0.767   3.525   5.598 -2.3681  0.0773  1.2217
   30MOL    H2620964   0.714   3.739   5.711  0.7429  0.1531  0.3012
   30MOL    H2720965   0.793   3.671   5.862 -0.1947 -0.7657  0.4737
   30MOL    H2820966   0.611   3.503   5.878  3.4371 -0.2811 -1.2101
   30MOL    H2920967   0.555   3.545   5.721 -2.1320  0.8492  0.2171
   30MOL    H3020968   0.404   3.644   5.874  0.1588  0.0833 -0.8322
   30MOL    H3120969   0.492   3.764   5.784  3.0415 -2.2183 -2.7909
   30MOL    H3220970   0.402   3.930   6.182 -0.2341  0.4678 -0.7554
   30MOL    H3320971   0.516   4.008   6.276  0.3216  0.0052 -0.1024
   30MOL    H3420972   0.557   3.986   6.102  1.0843 -1.3246  0.2162
   30MOL    H3520973   0.425   3.694   6.344  0.2836 -0.6699  0.1681
   30MOL    H3620974   0.500   3.827   6.422 -2.7773  0.5922 -1.9664
   30MOL    H3720975   0.677   3.809   6.226 -0.5630  2.3232  0.7593
   30MOL    C3820976   0.508   4.728   6.463  0.2903  0.1406  0.1909
   30MOL    C3920977   0.556   4.590   6.417  0.2695 -0.4505 -0.3255
   30MOL    C4020978   0.440   4.496   6.449  0.2420  0.5364 -0.3842
   30MOL    C4120979   0.471   4.347   6.435 -0.2981  0.8189 -0.7072
   30MOL    C4220980   0.569   4.303   6.550 -0.2785  0.5429  0.2073
   30MOL    C4320981   0.629   4.157   6.518 -0.7164  0.2328  0.1910
   30MOL    C4420982   0.724   4.094   6.620  0.5011 -0.6930 -0.4177
   30MOL    C4520983   0.802   3.972   6.565  0.5615 -0.0892  0.0824
   30MOL    O4620984   0.714   3.861   6.558  0.4913  0.3140 -0.0528
   30MOL    C4720985   0.744   3.751   6.483 -0.2017 -0.1447  0.2847
   30MOL    O4820986   0.855   3.735   6.431 -0.2866  0.3005  0.0743
   30MOL    C4920987   0.624   3.659   6.451  0.0667 -0.3299 -0.4487
   30MOL    C5020988   0.677   3.537   6.380 -0.1284 -0.0574  0.7992
   30MOL    C5120989   0.541   3.616   6.584  0.7606  1.3698  0.3737
   30MOL    H5220990   0.526   4.743   6.569 -1.4819  1.2897  0.3500
   30MOL    H5320991   0.404   4.738   6.431  0.8605  0.0556 -1.7430
   30MOL    H5420992   0.564   4.810   6.419  0.7770 -0.8389 -1.0267
   30MOL    H5520993   0.647   4.567   6.473 -0.0489 -0.7075  0.0847
   30MOL    H5620994   0.572   4.587   6.309 -1.8510 -3.7354 -0.6182
   30MOL    H5720995   0.409   4.510   6.552  2.6502  0.3863  0.3969
   30MOL    H5820996   0.355   4.529   6.388 -0.6194 -1.2758 -0.1873
   30MOL    H5920997   0.509   4.328   6.334  2.9019 -1.0717  0.7955
   30MOL    H6020998   0.382   4.286   6.452  0.8502 -0.6913  0.0567
   30MOL    H6120999   0.654   4.369   6.568  1.1303 -1.9736  3.3386
   30MOL    H6221000   0.518   4.302   6.647  0.4548  0.3098  0.5904
   30MOL    H6321001   0.539   4.097   6.508 -0.2786 -0.6515  1.3695
   30MOL    H6421002   0.671   4.159   6.417  0.2803 -2.9451  0.4896
   30MOL    H6521003   0.669   4.069   6.711 -0.1742  1.1617 -0.2857
   30MOL    H6621004   0.804   4.163   6.645 -1.9532  1.8416  0.7709
   30MOL    H6721005   0.886   3.938   6.625  1.5640  2.2999  0.1093
   30MOL    H6821006   0.842   3.988   6.465 -2.0548 -0.0369 -0.9894
   30MOL    H6921007   0.691   3.565   6.275 -0.4232  3.3655  1.6270
   30MOL    H7021008   0.767   3.494   6.425  1.2812  0.2462 -1.5981
   30MOL    H7121009   0.595   3.466   6.368  1.5085 -2.0710  1.1801
   30MOL    H7221010   0.456   3.553   6.556 -0.2759  1.0121  4.0328
   30MOL    H7321011   0.488   3.704   6.619 -0.1486  1.8625 -2.1224
   30MOL    C7421012   1.706   3.595   6.467 -0.6216 -0.8500  0.1991
   30MOL    C7521013   1.554   3.579   6.448  0.6273 -0.5273 -0.0964
   30MOL    C7621014   1.482   3.512   6.559  0.4553 -0.1895  0.9205
   30MOL    C7721015   1.328   3.533   6.547  0.0542  0.2160  0.5908
   30MOL    C7821016   1.261   3.450   6.649  0.0659  0.2225 -0.6490
   30MOL    C7921017   1.112   3.454   6.625 -0.0002  1.1679  0.2369
   30MOL    C8021018   1.043   3.344   6.704  0.9337  0.1151  0.0484
   30MOL    C8121019   0.893   3.332   6.656 -0.4171  0.2868 -0.3651
   30MOL    O8221020   0.808   3.441   6.689 -0.2515 -0.5528 -0.9695
   30MOL    C8321021   0.675   3.427   6.679  0.0834  0.8158 -0.0332
   30MOL    O8421022   0.616   3.324   6.642  0.4378 -0.0599  0.2050
   30MOL    C8521023   0.594   3.553   6.713 -0.2149 -0.2290  0.0797
   30MOL    C8621024   0.685   3.656   6.791  0.6558 -0.3313  0.0357
   30MOL    C8721025   0.463   3.519   6.797  0.2627 -0.1620  0.0302
   30MOL    H8821026   1.750   3.496   6.478  0.1484 -0.8064 -2.1719
   30MOL    H8921027   1.713   3.651   6.561  0.6980  1.5092 -1.2313
   30MOL    H9021028   1.766   3.638   6.387 -1.6468  0.7920  0.2733
   30MOL    H9121029   1.534   3.518   6.359  0.0615 -1.8013  0.8969
   30MOL    H9221030   1.504   3.674   6.426 -0.4436 -1.0665 -0.0260
   30MOL    H9321031   1.507   3.406   6.561  0.3681 -0.4345 -4.1038
   30MOL    H9421032   1.523   3.560   6.648  0.7227  1.4551 -0.0539
   30MOL    H9521033   1.293   3.498   6.449 -1.5522 -1.3702  1.7114
   30MOL    H9621034   1.298   3.638   6.552  0.9172  0.5968 -1.4779
   30MOL    H9721035   1.300   3.348   6.645 -0.1151 -0.0804  3.2016
   30MOL    H9821036   1.283   3.497   6.745  0.4094  0.3995 -0.8165
   30MOL    H9921037   1.075   3.555   6.643 -3.7625  0.0231 -0.6352
   30MOL   H10021038   1.088   3.442   6.519 -2.4667  0.6129  0.8118
   30MOL   H10121039   1.087   3.246   6.685 -1.7572 -1.4368  1.6477
   30MOL   H10221040   1.048   3.358   6.812 -2.1957 -0.8475  0.3670
   30MOL   H10321041   0.843   3.248   6.705  1.5705 -0.1419  1.0407
   30MOL   H10421042   0.885   3.324   6.548  0.8751  0.0021 -0.4438
   30MOL   H10521043   0.776   3.691   6.742 -1.0052  1.0157 -2.2069
   30MOL   H10621044   0.721   3.617   6.886  0.7153 -1.2221 -0.3460
   30MOL   H10721045   0.624   3.744   6.810 -1.9553 -1.8724 -0.9465
   30MOL   H10821046   0.408   3.614   6.800  0.0655 -0.2990  0.8656
   30MOL   H10921047   0.394   3.450   6.749 -2.1426  0.8390  1.8916
   30MOL   C11021048   1.066   3.584   0.031 -0.4429 -0.6001  0.0448
   30MOL   C11121049   1.082   3.601   7.657 -0.3156  0.0120  0.5978
   30MOL   C11221050   1.047   3.751   7.619 -0.0982  0.0580 -0.1300
   30MOL   C11321051   1.073   3.793   7.472 -0.5001  0.7143 -0.1876
   30MOL   C11421052   1.003   3.714   7.359 -0.3603  0.1463 -0.1360
   30MOL   C11521053   0.853   3.749   7.341 -0.2122 -0.0865 -0.4033
   30MOL   C11621054   0.778   3.654   7.254 -0.1312 -0.5740 -0.6188
   30MOL   C11721055   0.625   3.675   7.235  1.1586  0.6215 -0.3821
   30MOL   O11821056   0.584   3.576   7.147 -0.4323 -0.0398  0.0741
   30MOL   C11921057   0.509   3.608   7.041 -0.2366 -0.2581  0.5289
   30MOL   O12021058   0.470   3.724   7.013  0.5600  0.3946  0.2641
   30MOL   C12121059   0.470   3.480   6.954 -0.2060  0.4645 -0.3570
   30MOL   C12221060   0.582   3.371   6.973 -0.1530 -0.7164  0.3213
   30MOL   C12321061   0.322   3.425   7.008 -0.7645  0.0838  0.4797
   30MOL   H12421062   1.082   3.477   0.045 -4.4361 -1.4917 -1.3856
   30MOL   H12521063   1.138   3.645   0.084 -0.4766 -0.0451 -0.5400
   30MOL   H12621064   0.963   3.589   0.066 -0.2255 -2.1582  0.9831
   30MOL   H12721065   1.013   3.534   7.604 -2.4774  1.0611  2.0113
   30MOL   H12821066   1.178   3.569   7.619 -0.1172  1.0921  0.1683
   30MOL   H12921067   1.104   3.815   7.686 -2.1942 -0.7072  2.4820
   30MOL   H13021068   0.941   3.762   7.642 -0.8225  0.3761 -3.2827
   30MOL   H13121069   1.048   3.899   7.475 -0.9395  0.5731  2.9219
   30MOL   H13221070   1.181   3.792   7.457 -0.6209 -0.6779 -1.1256
   30MOL   H13321071   1.013   3.606   7.371  0.5332  0.3747  1.2907
   30MOL   H13421072   1.053   3.746   7.267 -0.0216 -0.9493 -0.3365
   30MOL   H13521073   0.797   3.744   7.434 -1.6345 -0.4438 -1.2719
   30MOL   H13621074   0.841   3.853   7.308 -0.5595 -0.0702 -0.2211
   30MOL   H13721075   0.794   3.555   7.296  0.1845 -0.0776  0.4409
   30MOL   H13821076   0.820   3.651   7.153  0.6167  1.7336 -0.4293
   30MOL   H13921077   0.576   3.663   7.332  0.4068 -0.3739 -0.8783
   30MOL   H14021078   0.594   3.773   7.199 -1.4491 -0.9293 -2.5242
   30MOL   H14121079   0.574   3.302   6.889  0.7514  0.7340 -0.9714
   30MOL   H14221080   0.682   3.413   6.969 -0.7924  1.3614  3.8253
   30MOL   H14321081   0.586   3.317   7.068  2.0475 -1.2636 -0.0530
   30MOL   H14421082   0.254   3.509   6.996 -0.6970  0.0126 -0.3894
   30MOL   H14521083   0.339   3.403   7.114 -1.1827  1.4010  0.8273
   30MOL   C14621084   0.139   3.802   5.916 -0.2683  0.2521 -0.5198
   30MOL   C14721085   0.046   3.763   6.031 -0.2463  0.0792  0.9609
   30MOL   C14821086   0.123   3.766   6.167 -0.3487 -0.4173 -1.0250
   30MOL   C14921087   0.036   3.681   6.272 -0.4568 -0.5166  0.3674
   30MOL   C15021088   0.093   3.685   6.412  0.3029  0.2224  0.3184
   30MOL   C15121089   0.007   3.602   6.502 -0.2406  0.0566  0.4169
   30MOL   C15221090   0.071   3.592   6.643  0.1910 -0.1954 -0.2633
   30MOL   C15321091   7.776   3.493   6.739  0.6164 -0.1719  0.8982
   30MOL   O15421092   0.081   3.447   6.845  0.3947  0.4337  0.3735
   30MOL   C15521093   0.169   3.345   6.823  0.1850  0.0549  0.4496
   30MOL   O15621094   0.173   3.291   6.715 -0.0063 -0.0009  0.5517
   30MOL   C15721095   0.248   3.296   6.944  0.0091  0.2984  0.0721
   30MOL   C15821096   0.338   3.180   6.907 -0.1282  0.1566 -0.3548
   30MOL   C15921097   0.147   3.253   7.063  1.0104 -0.8068 -0.3256
   30MOL   H16021098   0.229   3.741   5.906 -1.5465 -1.7536 -0.0660
   30MOL   H16121099   0.180   3.899   5.944 -0.3599 -0.1110  0.9076
   30MOL   H16221100   0.089   3.811   5.820  0.5310  0.0873 -0.9626
   30MOL   H16321101   7.746   3.835   6.053  0.5866  1.8702 -1.6272
   30MOL   H16421102   7.775   3.669   6.009 -0.9589  0.8002 -0.6091
   30MOL   H16521103   0.146   3.863   6.211  2.0397 -1.5638  0.3369
   30MOL   H16621104   0.214   3.708   6.149  0.5831  1.0303 -1.0323
   30MOL   H16721105   7.715   3.722   6.271 -0.0730  0.4516 -2.2761
   30MOL   H16821106   0.032   3.574   6.249  2.7842 -0.5922 -0.1329
   30MOL   H16921107   0.098   3.787   6.450  0.9199 -0.8631  3.2650
   30MOL   H17021108   0.195   3.645   6.410  0.0114 -0.5281  0.4726
   30MOL   H17121109   7.760   3.505   6.460  0.3240  0.8718 -1.8844
   30MOL   H17221110   7.696   3.662   6.502  0.2848  0.8852  2.2286
   30MOL   H17321111   0.172   3.556   6.629  1.1431  1.8180  1.2402
   30MOL   H17421112   0.090   3.685   6.696  0.4391 -0.1895 -0.3670
   30MOL   H17521113   7.685   3.530   6.788  0.6870 -2.0289  2.5252
   30MOL   H17621114   7.733   3.406   6.690 -0.9538  0.3901  1.2206
   30MOL   H17721115   0.421   3.177   6.978 -0.6184 -2.6630  0.1460
   30MOL   H17821116   0.386   3.203   6.812 -2.7238 -2.0499 -2.2893
   30MOL   H17921117   0.302   3.077   6.899  0.9818 -0.4358  1.8990
   30MOL   H18021118   0.091   3.341   7.094  0.6044 -1.4986  0.9263
   30MOL   H18121119   0.225   3.242   7.138  0.5083 -2.6296 -0.0258
   30MOL   C18221120   0.617   3.544   7.692  0.1245  0.3930  0.1133
   30MOL   C18321121   0.669   3.403   7.722 -0.2198  0.1526  0.2766
   30MOL   C18421122   0.563   3.290   7.701 -0.4315  0.2300  0.0335
   30MOL   C18521123   0.519   3.247   7.559 -0.0398  0.1602 -0.3060
   30MOL   C18621124   0.416   3.141   7.572 -0.1771 -0.4806  0.4954
   30MOL   C18721125   0.413   3.063   7.446  0.1415  0.3161 -0.1338
   30MOL   C18821126   0.323   2.936   7.447 -0.0777 -0.4029  0.1981
   30MOL   C18921127   0.267   2.901   7.310 -0.4258  0.3471 -0.4595
   30MOL   O19021128   0.206   3.017   7.244  0.4466 -0.6052 -0.2788
   30MOL   C19121129   0.144   3.001   7.128 -0.1364  0.0464 -0.1171
   30MOL   O19221130   0.151   2.897   7.055  0.3791  0.4268  0.1179
   30MOL   C19321131   0.058   3.120   7.075 -0.4679  0.6215  0.2159
   30MOL   C19421132   0.000   3.091   6.939 -0.2443 -0.2024  0.3957
   30MOL   C19521133   7.725   3.156   7.184 -0.4815  0.1801 -0.1208
   30MOL   H19621134   0.706   3.605   7.673 -0.8949  1.2227 -2.1759
   30MOL   H19721135   0.560   3.550   7.600  1.5031 -3.1076 -1.0674
   30MOL   H19821136   0.549   3.578   7.770 -3.1074 -1.2369 -1.8853
   30MOL   H19921137   0.714   3.409   0.042  2.4173 -1.1743 -0.7872
   30MOL   H20021138   0.748   3.377   7.652  0.3382  0.8073  0.6533
   30MOL   H20121139   0.602   3.198   7.744 -0.9116 -0.3226 -0.6950
   30MOL   H20221140   0.467   3.312   7.748 -0.3980 -0.2984  0.3455
   30MOL   H20321141   0.481   3.332   7.503 -1.8750 -0.1584  0.4465
   30MOL   H20421142   0.603   3.215   7.496  1.2173 -0.0979  1.4500
   30MOL   H20521143   0.319   3.188   7.592 -0.1653  0.3604 -1.3876
   30MOL   H20621144   0.439   3.072   7.654 -1.8412 -0.3105  1.1399
   30MOL   H20721145   0.514   3.027   7.427 -0.5246 -1.4714 -0.4185
   30MOL   H20821146   0.392   3.135   7.367 -1.4691  0.0424  0.0264
   30MOL   H20921147   0.374   2.848   7.486 -1.8802 -1.1171  1.0262
   30MOL   H21021148   0.235   2.956   7.509 -0.4003 -0.7101 -0.1533
   30MOL   H21121149   0.196   2.819   7.305 -0.4309  0.4540 -2.9232
   30MOL   H21221150   0.342   2.865   7.239  0.2327  2.7727 -1.0411
   30MOL   H21321151   7.747   3.186   6.897  0.8360  0.9325  2.1063
   30MOL   H21421152   0.060   3.041   6.862 -0.6413  2.3347 -1.6117
   30MOL   H21521153   7.689   3.032   6.925 -0.8121  0.6442  0.5222
   30MOL   H21621154   7.771   3.209   7.267  0.5064 -1.8366  0.6465
   30MOL   H21721155   7.664   3.240   7.151 -0.9731 -0.2696 -0.3843
   30MOL   C21821156   0.565   2.717   0.023 -0.3254  0.3028  0.5134
   30MOL   C21921157   0.416   2.673   7.773  0.2126  0.0681  0.5138
   30MOL   C22021158   0.402   2.528   7.734  0.0468 -0.6218 -0.6715
   30MOL   C22121159   0.269   2.484   7.664  0.2247  0.0320  0.5282
   30MOL   C22221160   0.237   2.560   7.535 -0.4843  0.4122  0.3168
   30MOL   C22321161   0.104   2.509   7.478  0.8171 -0.2453  0.0362
   30MOL   C22421162   0.032   2.613   7.380 -0.3893  0.1901  0.6873
   30MOL   C22521163   7.773   2.749   7.440  0.8261  0.1241 -0.3883
   30MOL   O22621164   7.723   2.836   7.337  0.5224  0.0938 -0.0512
   30MOL   C22721165   7.693   2.970   7.369 -0.3940  0.6759  0.3714
   30MOL   O22821166   7.722   3.027   7.477  0.5194  0.3837 -0.3807
   30MOL   C22921167   7.627   3.049   7.253 -0.0544  0.6063  0.3714
   30MOL   C23021168   7.585   2.943   7.144  0.1856 -0.0859  0.1379
   30MOL   C23121169   7.508   3.121   7.312  0.1764  0.1535  0.2483
   30MOL   H23221170   0.631   2.704   7.716 -1.0986 -0.1148 -0.0141
   30MOL   H23321171   0.610   2.648   0.094 -2.8094 -2.4147 -0.4748
   30MOL   H23421172   0.557   2.817   0.066 -0.6430  0.0588  1.0184
   30MOL   H23521173   0.395   2.735   7.686 -0.4686 -1.2640 -0.2799
   30MOL   H23621174   0.355   2.704   0.078 -1.5804  0.6417 -0.9695
   30MOL   H23721175   0.489   2.487   7.682 -0.8165 -0.6384 -2.1156
   30MOL   H23821176   0.400   2.472   0.048 -1.0874  0.7706  0.1569
   30MOL   H23921177   0.274   2.376   7.649 -0.1478  0.0121  0.5575
   30MOL   H24021178   0.187   2.495   7.734 -0.0919  0.2031  0.1285
   30MOL   H24121179   0.217   2.666   7.549 -0.4134  0.3581  0.8297
   30MOL   H24221180   0.318   2.565   7.463  1.4207 -0.9583  2.2993
   30MOL   H24321181   0.131   2.413   7.434  2.9504  0.8733 -1.1639
   30MOL   H24421182   0.034   2.493   7.561 -1.5851  2.0098 -1.4768
   30MOL   H24521183   7.731   2.561   7.328 -0.2665  0.2618  0.4240
   30MOL   H24621184   0.104   2.625   7.298 -1.7965 -2.1676 -0.9675
   30MOL   H24721185   0.086   2.789   7.483 -0.3015 -0.6505  2.8400
   30MOL   H24821186   7.693   2.735   7.512 -2.0931  2.1924 -3.0997
   30MOL   H24921187   7.522   2.866   7.186  0.4106 -0.8405 -0.9003
   30MOL   H25021188   7.672   2.891   7.105 -0.3038 -0.3945 -0.5446
   30MOL   H25121189   7.552   2.987   7.050  0.2991  2.1761  1.1111
   30MOL   H25221190   7.548   3.176   7.397  1.8145 -0.2448 -0.2508
   30MOL   H25321191   7.474   3.206   7.254 -2.5468  1.5485  3.7389
   30MOL   C25421192   7.042   2.092   7.125 -0.2121  0.4942  0.3756
   30MOL   C25521193   7.131   2.198   7.064  0.6820 -0.9708 -0.6927
   30MOL   C25621194   7.074   2.348   7.058  0.2024  0.2994  0.5670
   30MOL   C25721195   7.066   2.423   7.194  0.4770 -0.0579  0.0814
   30MOL   C25821196   7.022   2.564   7.167  0.7767 -0.2687 -0.0706
   30MOL   C25921197   7.131   2.662   7.122  0.1077  0.4027 -0.2419
   30MOL   C26021198   7.085   2.806   7.090  0.1338 -0.7369  0.2688
   30MOL   C26121199   7.208   2.893   7.053  0.8453  0.3021 -0.2209
   30MOL   O26221200   7.287   2.917   7.165  0.1237  0.2248 -0.2809
   30MOL   C26321201   7.277   3.033   7.234 -0.0967  1.1682  0.3080
   30MOL   O26421202   7.212   3.131   7.194  0.6067  0.1182  0.1966
   30MOL   C26521203   7.368   3.058   7.361 -0.0161 -0.3033 -0.0731
   30MOL   C26621204   7.295   3.158   7.456 -0.4269 -0.0985  0.7459
   30MOL   C26721205   7.394   2.926   7.440  0.1367 -0.1219 -0.2618
   30MOL   H26821206   6.951   2.094   7.065 -0.2720  0.3031  0.4617
   30MOL   H26921207   7.090   1.995   7.134  0.1537  0.7159  0.8718
   30MOL   H27021208   7.005   2.120   7.223 -2.4341 -1.7707  0.2084
   30MOL   H27121209   7.223   2.211   7.121 -0.6317 -1.4188  1.5565
   30MOL   H27221210   7.157   2.175   6.960  0.9885 -0.3544 -0.7566
   30MOL   H27321211   6.978   2.348   7.008 -0.0057 -0.5863  0.9490
   30MOL   H27421212   7.134   2.404   6.986 -1.0866  0.9617  0.0034
   30MOL   H27521213   7.161   2.413   7.245  1.3987  2.0451 -1.1507
   30MOL   H27621214   6.997   2.366   7.256  1.2782 -0.7670  0.3129
   30MOL   H27721215   6.941   2.562   7.094  0.9571  0.1568 -0.2815
   30MOL   H27821216   6.973   2.607   7.255 -1.0902 -1.1942 -0.6240
   30MOL   H27921217   7.179   2.616   7.036 -0.5461 -1.6819  0.4852
   30MOL   H28021218   7.211   2.673   7.195 -0.3669  0.4270  0.2854
   30MOL   H28121219   7.024   2.804   7.000 -2.0546 -1.5064  1.7206
   30MOL   H28221220   7.018   2.856   7.161  0.3246 -1.9711  1.3305
   30MOL   H28321221   7.250   2.836   6.970 -1.4531  0.5570 -1.5791
   30MOL   H28421222   7.182   2.987   7.006  0.7239  1.1678  1.5211
   30MOL   H28521223   7.287   3.258   7.415 -0.3161 -0.4719 -0.1799
   30MOL   H28621224   7.194   3.121   7.472 -0.7838 -0.0552 -1.3959
   30MOL   H28721225   7.354   3.165   7.548 -0.0823 -0.9223  0.5931
   30MOL   H28821226   7.481   2.943   7.503  1.2603 -0.8013 -1.5923
   30MOL   H28921227   7.432   2.853   7.369 -1.1101 -2.4934  1.4273
   30MOL   C29021228   7.307   3.813   7.447  0.1051 -0.1514 -0.0092
   30MOL   C29121229   7.317   3.692   7.542 -0.5505 -0.2413  0.4037
   30MOL   C29221230   7.190   3.603   7.544  0.1025 -0.0200 -0.4944
   30MOL   C29321231   7.201   3.496   7.654 -0.2842 -0.4064  0.5538
   30MOL   C29421232   7.091   3.393   7.635 -0.2961  0.3602 -0.5793
   30MOL   C29521233   7.105   3.283   7.740  0.0951  0.0323 -0.2048
   30MOL   C29621234   7.001   3.169   7.735 -0.3002  0.0161  0.1623
   30MOL   C29721235   7.064   3.029   7.779 -0.1614 -0.4418 -0.3314
   30MOL   O29821236   7.120   2.966   7.670  0.1646  0.0181  0.2480
   30MOL   C29921237   7.249   2.936   7.660 -0.5732 -0.3651 -0.4844
   30MOL   O30021238   7.332   2.978   7.738 -1.1239  0.4147 -0.4925
   30MOL   C30121239   7.292   2.851   7.534  0.3236 -0.0549 -0.8834
   30MOL   C30221240   7.166   2.815   7.453 -0.0505  0.2864 -0.3938
   30MOL   C30321241   7.374   2.726   7.582 -0.3205  0.0284  0.3684
   30MOL   H30421242   7.259   3.794   7.351  1.5149  0.7772 -0.9071
   30MOL   H30521243   7.399   3.869   7.434 -1.0253  1.3703 -1.5957
   30MOL   H30621244   7.230   3.877   7.490 -1.3114 -2.2121  0.6326
   30MOL   H30721245   7.335   3.725   7.644  2.2659 -2.0041  0.5443
   30MOL   H30821246   7.409   3.636   7.526 -1.1474 -1.1571  0.1208
   30MOL   H30921247   7.186   3.557   7.445  2.6059  0.9885 -1.0965
   30MOL   H31021248   7.110   3.676   7.560  1.7567  1.5755  0.6845
   30MOL   H31121249   7.303   3.456   7.655  0.1419  0.6713  0.5533
   30MOL   H31221250   7.190   3.544   7.751 -0.9075 -0.6438  0.6003
   30MOL   H31321251   6.990   3.431   7.649 -1.7830 -3.7302  0.3811
   30MOL   H31421252   7.094   3.344   7.538  0.9014  0.8829 -0.8209
   30MOL   H31521253   7.111   3.340   0.054  0.9313  1.1603 -0.9305
   30MOL   H31621254   7.203   3.239   7.726 -0.1911 -0.5826 -0.2878
   30MOL   H31721255   6.959   3.147   7.637 -1.0297  0.7853  0.3041
   30MOL   H31821256   6.920   3.191   0.024 -1.5833 -0.2841 -1.2192
   30MOL   H31921257   6.979   2.969   0.032 -1.6372  1.1738 -1.1098
   30MOL   H32021258   7.123   3.021   0.090  1.1750 -2.4642 -1.3238
   30MOL   H32121259   7.090   2.768   7.516  0.7859 -0.3473  0.1409
   30MOL   H32221260   7.192   2.737   7.382 -0.9465  1.1054 -1.6599
   30MOL   H32321261   7.117   2.899   7.403  0.4496 -0.1482 -1.6286
   30MOL   H32421262   7.425   2.688   7.493 -2.1956  0.9445 -1.1319
   30MOL   H32521263   7.465   2.764   7.629 -1.2570  0.2196  2.0584
   30MOL   C32621264   7.060   3.341   0.315  0.7358  0.1437  0.2491
   30MOL   C32721265   7.201   3.294   0.355  0.4021 -0.9079  0.3967
   30MOL   C32821266   7.201   3.170   0.445  0.5252 -0.3408 -0.5226
   30MOL   C32921267   7.335   3.109   0.461 -0.2404 -0.3332 -0.0032
   30MOL   C33021268   7.338   2.976   0.524 -0.2140  0.4014 -0.4980
   30MOL   C33121269   7.286   2.852   0.439  0.1659  0.2436  0.6986
   30MOL   C33221270   7.360   2.817   0.309 -0.0901 -0.6269  0.4127
   30MOL   C33321271   7.279   2.731   0.215  0.0008  0.0165  0.7048
   30MOL   O33421272   7.335   2.692   0.097 -0.1358 -0.4826  0.2799
   30MOL   C33521273   7.257   2.643   0.004  0.2625  0.4069 -0.2977
   30MOL   O33621274   7.131   2.634   0.020 -0.1019  0.3774 -0.2048
   30MOL   C33721275   7.335   2.599   7.658 -0.7065  0.4802  0.5118
   30MOL   C33821276   7.259   2.507   7.567  0.0511 -0.3656 -0.3381
   30MOL   C33921277   7.467   2.521   7.693 -0.0110 -0.7316 -0.1130
   30MOL   H34021278   6.993   3.273   0.262  0.6690  1.2102 -1.0615
   30MOL   H34121279   7.068   3.425   0.246  0.3446 -2.4717 -3.0921
   30MOL   H34221280   7.010   3.364   0.409 -1.1835  1.0342 -0.9613
   30MOL   H34321281   7.245   3.381   0.404 -2.9630  1.8841 -1.2620
   30MOL   H34421282   7.264   3.278   0.267 -1.8557 -2.0832 -1.0562
   30MOL   H34521283   7.121   3.099   0.424  0.0494  0.6961 -2.3530
   30MOL   H34621284   7.163   3.205   0.541  0.1988 -0.3796 -0.6364
   30MOL   H34721285   7.402   3.177   0.513 -1.2831 -0.5126  1.6290
   30MOL   H34821286   7.371   3.106   0.358 -0.3257 -0.3595 -0.0332
   30MOL   H34921287   7.438   2.951   0.559 -0.3460  0.4351 -0.0969
   30MOL   H35021288   7.277   2.979   0.614 -0.4636 -2.2035 -0.5407
   30MOL   H35121289   7.281   2.764   0.504 -0.0341  0.4207  0.9252
   30MOL   H35221290   7.182   2.876   0.415  0.0754 -0.0776  0.7678
   30MOL   H35321291   7.459   2.774   0.327 -0.4803 -0.4929  3.0261
   30MOL   H35421292   7.375   2.911   0.256  1.1847  0.0673  1.9525
   30MOL   H35521293   7.254   2.634   0.259 -0.2635 -0.2404  0.0008
   30MOL   H35621294   7.180   2.775   0.201 -0.8825 -2.0821  0.0082
   30MOL   H35721295   7.166   2.551   7.532 -1.0108  1.1485  4.0751
   30MOL   H35821296   7.311   2.485   7.473  0.7855  1.3712 -0.3460
   30MOL   H35921297   7.226   2.411   7.607 -0.8749  0.0635 -0.0560
   30MOL   H36021298   7.523   2.502   7.601  0.3268  1.1540 -0.3134
   30MOL   H36121299   7.530   2.595   7.742  2.1076 -1.9382 -0.9264
   30MOL   C36221300   7.454   2.632   6.805  0.5595 -0.1904  0.1332
   30MOL   C36321301   7.485   2.485   6.810  0.2831  0.6311 -0.8916
   30MOL   C36421302   7.581   2.453   6.927 -0.2458 -0.0400  0.1589
   30MOL   C36521303   7.522   2.428   7.061  0.0749 -0.1860 -0.5599
   30MOL   C36621304   7.622   2.346   7.145  0.0636  0.3288 -0.3444
   30MOL   C36721305   7.568   2.313   7.286 -0.5021 -0.0119 -0.2783
   30MOL   C36821306   7.648   2.208   7.376  0.3012 -0.2312 -0.6269
   30MOL   C36921307   7.571   2.149   7.495  0.3177 -0.0948  0.5109
   30MOL   O37021308   7.559   2.257   7.584  0.2628  0.5166  0.7083
   30MOL   C37121309   7.451   2.275   7.669  0.2355  0.1632  0.3547
   30MOL   O37221310   7.346   2.212   7.654  0.0392 -0.0988 -0.3225
   30MOL   C37321311   7.478   2.392   7.771 -0.1589 -0.1889 -0.3127
   30MOL   C37421312   7.377   2.376   0.103  0.2359  0.4870 -0.2638
   30MOL   C37521313   7.626   2.390   0.049  0.6352  0.1156 -0.0181
   30MOL   H37621314   7.538   2.693   6.839 -0.6826  2.0285 -0.6610
   30MOL   H37721315   7.429   2.659   6.703 -1.1478 -0.9381  0.3312
   30MOL   H37821316   7.374   2.669   6.869 -0.6261  0.1263 -1.4994
   30MOL   H37921317   7.533   2.445   6.720  0.9744  0.5403 -0.4881
   30MOL   H38021318   7.387   2.440   6.819  0.2001  0.6730 -1.5435
   30MOL   H38121319   7.656   2.529   6.951 -1.1740  0.4832  1.4630
   30MOL   H38221320   7.634   2.369   6.883  0.5112  0.6967 -0.3483
   30MOL   H38321321   7.429   2.372   7.052  0.9446 -1.5759 -1.0423
   30MOL   H38421322   7.497   2.522   7.111 -1.6059 -0.5175 -0.7513
   30MOL   H38521323   7.645   2.250   7.098  0.8723  0.1445  0.4256
   30MOL   H38621324   7.722   2.387   7.161  1.0387 -2.4245  0.9298
   30MOL   H38721325   7.473   2.266   7.260  0.4500 -3.0345  1.4873
   30MOL   H38821326   7.548   2.401   7.348  0.0036 -0.3392  0.3512
   30MOL   H38921327   7.742   2.253   7.408 -0.3783 -0.4504  1.7718
   30MOL   H39021328   7.674   2.129   7.305  0.9033 -0.9792  0.4130
   30MOL   H39121329   7.470   2.111   7.475 -0.1624  1.7071 -0.5767
   30MOL   H39221330   7.633   2.072   7.541  1.0871 -0.2632 -0.7787
   30MOL   H39321331   7.281   2.385   0.053  1.0461  1.1825 -1.7493
   30MOL   H39421332   7.393   2.275   0.140 -1.4791 -0.0241 -0.8867
   30MOL   H39521333   7.395   2.448   0.183  1.0938 -0.4518  0.4010
   30MOL   H39621334   7.692   2.395   7.742 -0.9762  2.6137 -1.1862
   30MOL   H39721335   7.646   2.485   0.100  1.0070  0.5721 -1.0054
   30MOL   C39821336   6.824   1.915   0.553  0.1246  0.2220 -0.7753
   30MOL   C39921337   6.852   2.035   0.461 -0.5341  0.0346  0.5983
   30MOL   C40021338   6.973   2.024   0.362  0.2683 -0.4152  0.0796
   30MOL   C40121339   7.107   2.025   0.437 -0.0635 -0.2322  1.0478
   30MOL   C40221340   7.221   2.021   0.335  0.9547 -0.1485 -0.1308
   30MOL   C40321341   7.361   1.992   0.394  0.4841  0.1379 -0.4421
   30MOL   C40421342   7.401   2.107   0.483 -0.1536 -0.2209 -0.2469
   30MOL   C40521343   7.440   2.232   0.409  0.1267 -0.0086 -0.1716
   30MOL   O40621344   7.543   2.201   0.318  0.3723  0.2186 -0.3728
   30MOL   C40721345   7.630   2.298   0.280 -0.1720  0.4921 -0.1994
   30MOL   O40821346   7.645   2.409   0.344  0.4249 -0.0528 -0.4089
   30MOL   C40921347   7.682   2.271   0.134 -0.0767  0.5249  0.2178
   30MOL   C41021348   7.642   2.128   0.088  0.1304 -0.1056  0.4830
   30MOL   C41121349   0.058   2.293   0.131  0.5001  0.0281  0.1569
   30MOL   H41221350   6.835   1.817   0.506 -2.1796 -1.1075  1.3227
   30MOL   H41321351   6.717   1.911   0.574  0.7419  0.6995  2.7243
   30MOL   H41421352   6.891   1.906   0.639 -1.5031 -1.0993  0.3842
   30MOL   H41521353   6.872   2.120   0.526  0.8369  0.6299 -0.5712
   30MOL   H41621354   6.763   2.064   0.405  1.0953  1.1535 -1.4479
   30MOL   H41721355   6.972   1.922   0.323  0.2252 -0.0563 -0.8765
   30MOL   H41821356   6.975   2.095   0.280  0.7424 -0.3126  0.1827
   30MOL   H41921357   7.117   1.938   0.501  1.9829 -0.2367  0.7450
   30MOL   H42021358   7.119   2.120   0.490 -0.5639 -0.0506  0.8460
   30MOL   H42121359   7.186   1.955   0.256  0.2253  1.5304 -1.2329
   30MOL   H42221360   7.224   2.118   0.285 -0.0460 -0.1633 -0.2387
   30MOL   H42321361   7.420   1.991   0.303 -0.2851  1.7782 -0.9895
   30MOL   H42421362   7.358   1.894   0.440 -1.0651  1.0537  1.4923
   30MOL   H42521363   7.332   2.125   0.565 -1.5552 -1.2900 -1.1572
   30MOL   H42621364   7.494   2.082   0.534  1.3904  1.4491 -2.1980
   30MOL   H42721365   7.350   2.284   0.376 -0.5749  0.4380  2.3405
   30MOL   H42821366   7.479   2.296   0.489 -0.3809 -2.5164  2.1542
   30MOL   H42921367   7.679   2.112   7.766 -1.4732  1.1408 -0.3255
   30MOL   H43021368   7.535   2.115   0.075  0.0724 -0.1622  1.0230
   30MOL   H43121369   7.668   2.054   0.164 -0.5766 -0.4949  0.3500
   30MOL   H43221370   0.074   2.395   0.166  0.1789 -0.4345  1.6661
   30MOL   H43321371   0.081   2.285   0.025 -2.6471 -0.9946 -0.4986
   30MOL   C43421372   0.306   2.164   6.849  0.4135  0.0372 -0.3256
   30MOL   C43521373   0.231   2.165   6.978 -0.3377 -0.4791  0.1389
   30MOL   C43621374   0.320   2.138   7.099 -0.3145 -0.0736  0.2104
   30MOL   C43721375   0.233   2.141   7.228 -0.6293 -0.0240 -0.1629
   30MOL   C43821376   0.313   2.085   7.351  0.4909 -0.3618  0.1442
   30MOL   C43921377   0.235   2.067   7.483 -0.0465 -0.0058  0.3167
   30MOL   C44021378   0.307   1.983   7.590  0.2456 -0.0096 -0.0838
   30MOL   C44121379   0.212   1.950   7.706  0.1479  0.3488  1.0172
   30MOL   O44221380   0.185   2.066   0.004 -0.4232 -0.1887  0.6632
   30MOL   C44321381   0.150   2.054   0.132  0.3288  0.0251  0.4754
   30MOL   O44421382   0.111   1.952   0.185 -0.5380 -0.5154  0.4888
   30MOL   C44521383   0.154   2.193   0.206 -0.1230  0.2626 -0.4712
   30MOL   C44621384   0.111   2.180   0.362  0.9349 -0.3174 -0.6163
   30MOL   C44721385   0.300   2.260   0.202 -0.1144  0.5612  0.7523
   30MOL   H44821386   0.311   2.060   6.818 -0.7863  0.6010 -2.5715
   30MOL   H44921387   0.411   2.193   6.852  0.7729 -1.4064  1.7690
   30MOL   H45021388   0.262   2.224   6.768  0.5159 -1.7486 -1.7377
   30MOL   H45121389   0.154   2.088   6.966  0.6128 -1.2109 -1.4775
   30MOL   H45221390   0.172   2.256   6.988  1.1049  0.4498  0.2200
   30MOL   H45321391   0.384   2.225   7.112 -2.1491  0.9825  2.6055
   30MOL   H45421392   0.378   2.046   7.104  0.8992  0.6492 -0.4378
   30MOL   H45521393   0.151   2.071   7.214 -0.2075 -0.7397  0.8206
   30MOL   H45621394   0.203   2.242   7.252  2.1165  0.8420 -0.1687
   30MOL   H45721395   0.348   1.987   7.319  1.0401 -0.3320  0.6490
   30MOL   H45821396   0.402   2.147   7.359  0.7366 -0.5414 -1.0696
   30MOL   H45921397   0.150   2.004   7.456  0.3430  0.6955 -2.8185
   30MOL   H46021398   0.196   2.162   7.518 -0.7730  0.3001 -1.2809
   30MOL   H46121399   0.340   1.892   7.539 -0.1861  0.9465 -2.1429
   30MOL   H46221400   0.399   2.033   7.619 -0.6448  1.0965  0.8566
   30MOL   H46321401   0.257   1.861   7.750 -0.2693  0.2224  1.1847
   30MOL   H46421402   0.118   1.918   7.662 -0.2373 -0.6481  2.5002
   30MOL   H46521403   0.100   2.274   0.417  1.3053  0.2019 -1.4212
   30MOL   H46621404   0.027   2.114   0.381  0.4500  0.5870  0.5057
   30MOL   H46721405   0.182   2.121   0.420 -1.8971 -1.4342  1.8341
   30MOL   H46821406   0.334   2.262   0.098 -1.4632 -0.0918  0.2899
   30MOL   H46921407   0.292   2.368   0.216  0.6491  0.5667  1.2041
   30MOL   C47021408   7.742   2.858   0.001 -0.2355  0.2105  0.0403
   30MOL   C47121409   7.716   2.866   0.147 -0.2543 -0.1824 -0.6428
   30MOL   C47221410   0.053   2.818   0.239  0.2642  0.6860  0.3395
   30MOL   C47321411   0.020   2.810   0.393  0.5967 -0.0705 -0.1927
   30MOL   C47421412   0.141   2.766   0.479  0.4297  0.0451  0.2683
   30MOL   C47521413   0.175   2.622   0.472  0.6738  0.4326 -0.4082
   30MOL   C47621414   0.316   2.595   0.523  0.6595  0.9485  0.7098
   30MOL   C47721415   0.337   2.446   0.550 -0.0975  0.3999 -0.4046
   30MOL   O47821416   0.391   2.391   0.435  0.6108  0.5541  0.1347
   30MOL   C47921417   0.408   2.259   0.425 -0.1413  0.1936  0.3015
   30MOL   O48021418   0.415   2.195   0.531  0.5160 -0.1247  0.5883
   30MOL   C48121419   0.425   2.209   0.282  0.6122  1.0131 -0.5633
   30MOL   C48221420   0.432   2.055   0.285 -0.5876  0.2876  0.6637
   30MOL   C48321421   0.569   2.266   0.249  0.1711 -0.1236  0.7762
   30MOL   H48421422   0.050   2.914   7.747  1.6050 -2.7254 -0.2737
   30MOL   H48521423   7.661   2.904   7.724  0.2662  3.6392  1.9964
   30MOL   H48621424   7.742   2.754   7.746 -2.0082  0.0153  0.6030
   30MOL   H48721425   7.697   2.970   0.174 -1.8005 -0.2254 -1.5232
   30MOL   H48821426   7.633   2.796   0.160 -0.3205 -0.0111 -0.1409
   30MOL   H48921427   0.089   2.719   0.214 -0.8295  1.0104 -2.6636
   30MOL   H49021428   0.137   2.886   0.224 -0.5579  1.7441  0.4545
   30MOL   H49121429   7.759   2.910   0.410 -1.0339 -0.3278 -2.3144
   30MOL   H49221430   7.719   2.736   0.400  0.1730  0.2238 -1.6383
   30MOL   H49321431   0.227   2.824   0.447  0.3233 -0.3319 -0.7120
   30MOL   H49421432   0.135   2.795   0.584 -0.4712  0.0855  0.2105
   30MOL   H49521433   0.100   2.557   0.518 -1.2584  0.9496 -2.6817
   30MOL   H49621434   0.173   2.587   0.368 -0.5483 -1.9190  0.3501
   30MOL   H49721435   0.388   2.632   0.450 -0.0404  0.6102 -0.1596
   30MOL   H49821436   0.332   2.645   0.618  1.9630  1.9748 -0.0173
   30MOL   H49921437   0.251   2.392   0.590 -0.1505  2.0198  1.7790
   30MOL   H50021438   0.407   2.430   0.632 -1.6915 -0.9026  0.7236
   30MOL   H50121439   0.338   2.019   0.327 -0.9325  1.8470  1.2425
   30MOL   H50221440   0.514   2.006   0.338  0.3634 -1.1727 -2.0440
   30MOL   H50321441   0.448   2.009   0.187  2.7488 -1.0002  1.7310
   30MOL   H50421442   0.551   2.362   0.201  1.0650 -2.0463 -3.6705
   30MOL   H50521443   0.634   2.275   0.336 -0.7555 -0.8184  1.5432
   30MOL   C50621444   1.118   1.681   1.079  0.1132  1.0178  0.0044
   30MOL   C50721445   1.024   1.792   1.045 -0.5055  0.4131 -0.6300
   30MOL   C50821446   0.941   1.754   0.927  0.8546 -0.0920 -0.1742
   30MOL   C50921447   0.845   1.873   0.875 -0.0690  0.6173 -0.5691
   30MOL   C51021448   0.779   1.831   0.745 -0.0658 -0.0335 -0.1309
   30MOL   C51121449   0.861   1.856   0.616  0.7234  0.1342 -0.5044
   30MOL   C51221450   0.766   1.920   0.510 -0.7809  0.1068 -0.3369
   30MOL   C51321451   0.841   1.972   0.386  0.6471 -0.4492  0.5910
   30MOL   O51421452   0.777   2.075   0.317  0.5768  0.0103  1.0191
   30MOL   C51521453   0.733   2.068   0.188  0.5910  0.6594 -0.3508
   30MOL   O51621454   0.746   1.965   0.120  0.0749 -0.5281 -0.2863
   30MOL   C51721455   0.662   2.202   0.139  0.2514  0.7086  0.1553
   30MOL   C51821456   0.595   2.178   0.004 -0.1179  0.0564  0.2167
   30MOL   C51921457   0.779   2.307   0.117  0.2127 -0.0263 -0.6298
   30MOL   H52021458   1.075   1.581   1.083 -2.3089  1.9534 -1.7532
   30MOL   H52121459   1.154   1.711   1.177  1.3914 -0.2918 -0.0496
   30MOL   H52221460   1.210   1.674   1.022  1.0917  4.3073  1.0656
   30MOL   H52321461   1.087   1.875   1.011  1.0743 -0.6673 -0.4048
   30MOL   H52421462   0.952   1.820   1.122  0.3471  0.0294  0.3180
   30MOL   H52521463   1.002   1.718   0.844 -0.8342 -2.7347 -0.3523
   30MOL   H52621464   0.896   1.659   0.955  1.6299 -0.1462  0.9106
   30MOL   H52721465   0.768   1.899   0.948  1.8994  0.9060  1.4657
   30MOL   H52821466   0.912   1.957   0.855 -2.2839  2.7426  0.7540
   30MOL   H52921467   0.760   1.724   0.750  2.9978 -0.6140  0.0645
   30MOL   H53021468   0.680   1.877   0.739 -0.0123  0.2271  0.9190
   30MOL   H53121469   0.901   1.758   0.592 -0.4128 -0.5898  0.5116
   30MOL   H53221470   0.947   1.918   0.642  2.4117 -2.0862 -0.6736
   30MOL   H53321471   0.704   1.998   0.555  1.0843  0.7683  1.1463
   30MOL   H53421472   0.695   1.842   0.480  0.1423 -1.1057  0.5671
   30MOL   H53521473   0.858   1.884   0.323  1.9716  0.4137 -0.2873
   30MOL   H53621474   0.937   2.014   0.416  0.3396  1.1813 -0.6551
   30MOL   H53721475   0.498   2.129   0.010  0.8832 -1.7120  2.6480
   30MOL   H53821476   0.655   2.116   7.718  1.8611  2.0500  0.1094
   30MOL   H53921477   0.592   2.270   7.726 -0.9606  0.0689  0.2679
   30MOL   H54021478   0.731   2.400   0.085  1.1192  0.1684 -1.4257
   30MOL   H54121479   0.820   2.333   0.215 -2.4839  4.5483 -0.5801
   30MOL   C54221480   0.296   2.725   6.837  0.3565 -0.0607 -0.2015
   30MOL   C54321481   0.317   2.623   6.950  0.2723 -0.6970  0.4201
   30MOL   C54421482   0.441   2.649   7.041 -0.0934 -0.1849  0.0560
   30MOL   C54521483   0.479   2.525   7.123  0.0449 -0.7468  0.1092
   30MOL   C54621484   0.616   2.523   7.185 -0.1967 -0.0429  0.0916
   30MOL   C54721485   0.667   2.390   7.249  0.4467 -0.2702 -0.6240
   30MOL   C54821486   0.738   2.409   7.382 -0.9232  0.1272  0.1961
   30MOL   C54921487   0.764   2.285   7.461  0.1405 -0.3982  0.0213
   30MOL   O55021488   0.797   2.326   7.591 -0.0644 -0.3602 -0.2950
   30MOL   C55121489   0.884   2.249   7.665  0.1029 -0.2812  0.3025
   30MOL   O55221490   0.934   2.144   7.630 -0.0347 -0.1165 -0.0671
   30MOL   C55321491   0.911   2.301   0.023 -0.3517 -0.4847  0.2830
   30MOL   C55421492   1.012   2.208   0.088  0.5970  0.0566  0.1968
   30MOL   C55521493   0.960   2.448   0.016  0.5015  0.0577 -0.2692
   30MOL   H55621494   0.199   2.705   6.793  0.3974 -0.7413  0.0204
   30MOL   H55721495   0.367   2.710   6.756  3.2971  1.3196  2.0276
   30MOL   H55821496   0.298   2.823   6.884  0.4029 -0.0158 -0.2960
   30MOL   H55921497   0.230   2.625   7.017  0.3193  1.6807  0.4694
   30MOL   H56021498   0.322   2.527   6.899  1.3032 -0.1762 -0.4720
   30MOL   H56121499   0.430   2.730   7.114  0.6982  0.9287 -1.0450
   30MOL   H56221500   0.521   2.672   6.971 -0.7418 -2.2701 -1.3928
   30MOL   H56321501   0.412   2.518   7.209  0.7277 -1.2510  0.6168
   30MOL   H56421502   0.453   2.441   7.058  1.7229  0.8443 -2.7104
   30MOL   H56521503   0.623   2.606   7.255 -0.0677  0.9309 -1.0592
   30MOL   H56621504   0.683   2.537   7.100 -2.0284 -0.5524 -1.4981
   30MOL   H56721505   0.573   2.339   7.269  0.5086 -0.1782 -0.0856
   30MOL   H56821506   0.736   2.346   7.177  0.7533 -1.4478  0.3779
   30MOL   H56921507   0.821   2.479   7.370 -0.6913 -0.0892  0.5205
   30MOL   H57021508   0.669   2.469   7.441 -0.7434  1.3216 -0.7911
   30MOL   H57121509   0.848   2.233   7.414  0.8272 -0.9257  1.8165
   30MOL   H57221510   0.683   2.213   7.465  0.8784 -1.2559 -0.2706
   30MOL   H57321511   1.037   2.233   0.191 -0.7334 -0.5146  0.6648
   30MOL   H57421512   1.100   2.220   0.024  1.1307 -0.7091  0.7702
   30MOL   H57521513   0.976   2.105   0.085  0.4310  0.1651 -2.2747
   30MOL   H57621514   0.947   2.509   0.105 -0.9850  0.3671 -0.6842
   30MOL   H57721515   0.894   2.494   7.721  0.5611  1.1411  0.3312
   30MOL   C57821516   0.677   2.268   0.665 -0.0140  0.5816 -0.5440
   30MOL   C57921517   0.819   2.276   0.737  0.0686  0.4392 -0.0884
   30MOL   C58021518   0.926   2.367   0.666 -0.4225  0.0926 -0.1499
   30MOL   C58121519   0.954   2.319   0.520  0.7262  0.2464 -0.2358
   30MOL   C58221520   1.046   2.414   0.441  0.9636 -0.8962 -0.0219
   30MOL   C58321521   1.191   2.410   0.480  0.5675  0.1088  0.4178
   30MOL   C58421522   1.275   2.520   0.413 -0.2115  0.1036  0.3279
   30MOL   C58521523   1.324   2.493   0.267  0.1858  0.5962  0.4090
   30MOL   O58621524   1.215   2.502   0.177 -0.5029  0.4628 -0.7671
   30MOL   C58721525   1.219   2.444   0.055 -0.0577  0.1722  0.3068
   30MOL   O58821526   1.291   2.353   0.021 -0.2892 -0.4459  0.4048
   30MOL   C58921527   1.101   2.499   7.744 -0.2678 -0.6698 -0.3827
   30MOL   C59021528   1.096   2.651   7.751 -0.1942 -0.4184  0.8187
   30MOL   C59121529   1.115   2.459   7.591 -0.1160 -0.4069  0.1047
   30MOL   H59221530   0.623   2.360   0.644  2.1633  2.7258  2.8578
   30MOL   H59321531   0.613   2.215   0.736 -0.3126  1.2139 -0.3415
   30MOL   H59421532   0.674   2.206   0.575  0.3479 -1.9379  1.1368
   30MOL   H59521533   0.853   2.173   0.752 -0.9626 -0.1414 -1.5314
   30MOL   H59621534   0.802   2.308   0.839 -3.5344  0.2861 -0.5431
   30MOL   H59721535   1.020   2.377   0.720  0.2882  0.1250 -1.3727
   30MOL   H59821536   0.883   2.467   0.661 -1.7887 -0.3722  1.7486
   30MOL   H59921537   0.854   2.325   0.479  0.4689  0.0308  0.3508
   30MOL   H60021538   0.970   2.212   0.509 -2.5314  0.0283 -3.8157
   30MOL   H60121539   1.002   2.513   0.457  1.6546 -0.5246 -0.4069
   30MOL   H60221540   1.029   2.396   0.335 -0.5236  0.9112 -0.1053
   30MOL   H60321541   1.225   2.309   0.458  0.3068  0.0921  0.0969
   30MOL   H60421542   1.191   2.434   0.587  1.5042 -1.0037  0.6793
   30MOL   H60521543   1.365   2.532   0.473 -0.3676  2.8331  0.0914
   30MOL   H60621544   1.227   2.616   0.435 -2.4393 -1.3983  2.1888
   30MOL   H60721545   1.414   2.545   0.232  0.6358 -0.5264 -0.1316
   30MOL   H60821546   1.346   2.386   0.263 -0.6683  0.4837 -1.4751
   30MOL   H60921547   1.190   2.698   7.722 -0.1370 -0.5425  0.8025
   30MOL   H61021548   1.015   2.673   7.682  1.2897 -1.2696 -1.2267
   30MOL   H61121549   1.061   2.686   0.068 -0.4432 -0.8329  0.8799
   30MOL   H61221550   1.020   2.473   7.539  0.5382 -0.5086 -1.1384
   30MOL   H61321551   1.132   2.352   7.585 -1.0083 -0.4982 -1.0192
   30MOL   C61421552   0.748   3.007   6.691 -0.0787 -0.4603  0.0090
   30MOL   C61521553   0.685   3.042   6.823 -0.0880 -0.2377 -0.4202
   30MOL   C61621554   0.722   2.947   6.940  0.4507 -0.0662  0.1406
   30MOL   C61721555   0.644   2.980   7.067  0.1151 -0.2143  0.1657
   30MOL   C61821556   0.682   2.881   7.177 -0.7322  0.5435 -0.3030
   30MOL   C61921557   0.824   2.902   7.240  0.2071 -0.0661 -0.3891
   30MOL   C62021558   0.890   2.769   7.268  0.6829 -0.3724  0.7164
   30MOL   C62121559   1.022   2.792   7.334 -0.2410  0.1809  0.5070
   30MOL   O62221560   1.065   2.667   7.394  0.0365 -0.5685  0.3882
   30MOL   C62321561   1.194   2.657   7.446 -0.6699  0.3724 -0.1049
   30MOL   O62421562   1.278   2.750   7.458  0.3377  0.1104  0.0652
   30MOL   C62521563   1.228   2.519   7.496  0.0625 -0.3801 -0.6252
   30MOL   C62621564   1.364   2.524   7.568 -0.1258 -0.0557  0.3236
   30MOL   C62721565   1.239   2.417   7.376 -0.2131 -0.2320 -0.1198
   30MOL   H62821566   0.706   3.086   6.630 -1.7525 -1.2691  0.0846
   30MOL   H62921567   0.704   2.916   6.649 -1.9410  0.0266  0.8695
   30MOL   H63021568   0.857   3.009   6.679 -0.3515  0.0128 -2.5409
   30MOL   H63121569   0.699   3.147   6.848  1.1936  0.4734 -3.7570
   30MOL   H63221570   0.578   3.025   6.809 -0.1661 -1.4312  1.5207
   30MOL   H63321571   0.830   2.955   6.953  0.5493 -0.9915 -0.0301
   30MOL   H63421572   0.708   2.844   6.905  1.7490 -0.5881  1.1422
   30MOL   H63521573   0.538   2.976   7.044  0.1526 -0.5294  0.0423
   30MOL   H63621574   0.677   3.079   7.097  0.8741  0.3853 -2.4835
   30MOL   H63721575   0.603   2.875   7.251 -0.4790  2.4151  0.1277
   30MOL   H63821576   0.675   2.780   7.135 -1.1423  0.1276  0.7412
   30MOL   H63921577   0.897   2.937   7.168  0.9188 -1.2840 -0.2685
   30MOL   H64021578   0.837   2.973   7.322 -2.3838 -1.2158  1.0732
   30MOL   H64121579   0.909   2.705   7.182 -0.0008  0.9572 -0.4383
   30MOL   H64221580   0.832   2.713   7.342 -1.0314  1.0432  0.4718
   30MOL   H64321581   1.101   2.835   7.272  0.4808 -0.8683  0.6901
   30MOL   H64421582   1.013   2.861   7.418  1.2651  0.6245  0.3269
   30MOL   H64521583   1.405   2.424   7.576 -3.1164 -1.5992 -2.6535
   30MOL   H64621584   1.367   2.582   7.661  1.0926  1.3639 -0.5620
   30MOL   H64721585   1.435   2.578   7.505  1.2647 -1.2174  0.8601
   30MOL   H64821586   1.137   2.400   7.341  0.0614 -4.7219  0.9622
   30MOL   H64921587   1.263   2.320   7.420 -0.4808 -0.4750 -0.5011
   30MOL   C65021588   1.755   1.976   6.702 -0.1525  0.3435  0.1568
   30MOL   C65121589   1.687   1.984   6.843 -0.0371 -0.0229  0.6634
   30MOL   C65221590   1.735   2.110   6.926  0.5415 -0.0747 -0.1847
   30MOL   C65321591   1.704   2.099   7.073 -0.1828  0.0678  0.6508
   30MOL   C65421592   1.756   2.213   7.164 -0.5327 -0.2023 -0.3014
   30MOL   C65521593   1.722   2.195   7.309  0.2654 -0.4149 -0.6328
   30MOL   C65621594   1.751   2.320   7.397  0.8304 -0.3788 -0.3306
   30MOL   C65721595   1.668   2.448   7.362  0.5754  0.6059 -0.1932
   30MOL   O65821596   1.528   2.428   7.337  0.4664  0.3355  0.6652
   30MOL   C65921597   1.451   2.508   7.265 -0.3609 -0.6147 -0.2747
   30MOL   O66021598   1.493   2.613   7.205  0.2456  0.6964  0.6063
   30MOL   C66121599   1.313   2.450   7.242  0.5516  0.0733 -0.0079
   30MOL   C66221600   1.243   2.547   7.147 -0.4403  1.0607 -0.2547
   30MOL   C66321601   1.330   2.321   7.153 -0.3074 -0.1340  0.2852
   30MOL   H66421602   1.719   2.049   6.629  1.3681  0.1067 -0.8771
   30MOL   H66521603   1.746   1.881   6.649  1.4549  0.8264 -1.0471
   30MOL   H66621604   1.860   1.995   6.724  0.1790 -2.5431  1.2580
   30MOL   H66721605   1.700   1.888   6.895 -2.8795 -1.5410 -1.2661
   30MOL   H66821606   1.581   1.996   6.820 -0.2356  0.2978  1.6900
   30MOL   H66921607   1.693   2.204   6.890  0.0416 -0.6275 -1.0714
   30MOL   H67021608   1.839   2.135   6.905  0.2953  1.2246  0.1236
   30MOL   H67121609   1.740   2.003   7.111  1.1201  0.1032 -0.4692
   30MOL   H67221610   1.597   2.086   7.093  0.4704 -1.2669  3.6594
   30MOL   H67321611   1.719   2.309   7.128 -2.3332 -1.0440 -0.7663
   30MOL   H67421612   1.863   2.233   7.160 -0.7950  1.2722 -0.1820
   30MOL   H67521613   1.618   2.164   7.324  0.6473 -0.9103  1.0118
   30MOL   H67621614   1.780   2.110   7.344  0.8643  0.2530  0.0085
   30MOL   H67721615   1.857   2.343   7.398  0.2336  2.6818  2.1301
   30MOL   H67821616   1.715   2.295   7.497 -0.0332  1.8865 -0.0365
   30MOL   H67921617   1.708   2.483   7.267  3.4720 -1.6182  0.1384
   30MOL   H68021618   1.683   2.518   7.444 -2.7657  1.5638 -0.2943
   30MOL   H68121619   1.259   2.526   7.041  0.4342  1.0885 -0.1347
   30MOL   H68221620   1.275   2.651   7.157  2.8068 -0.0713  2.3663
   30MOL   H68321621   1.135   2.555   7.156 -0.5359  0.4579 -0.8370
   30MOL   H68421622   1.375   2.349   7.058  0.7226  0.9076  1.0620
   30MOL   H68521623   1.401   2.253   7.200 -1.0638 -0.1103  1.4809
   30MOL   C68621624   1.986   1.733   7.762 -0.2977  0.2334 -0.2070
   30MOL   C68721625   1.876   1.741   7.661  0.2522 -0.2037 -0.0554
   30MOL   C68821626   1.762   1.836   7.705 -0.2895 -0.1416  0.0335
   30MOL   C68921627   1.656   1.843   7.594 -0.4138 -0.2268  0.5245
   30MOL   C69021628   1.554   1.962   7.604 -0.1956  0.0700 -0.0332
   30MOL   C69121629   1.429   1.933   7.507  0.7373 -0.5033 -0.3856
   30MOL   C69221630   1.311   2.025   7.534 -0.0028  0.3356  0.0212
   30MOL   C69321631   1.204   2.024   7.432 -0.1472 -0.4873 -0.1080
   30MOL   O69421632   1.241   2.104   7.314 -0.3335  0.3468 -0.4859
   30MOL   C69521633   1.144   2.155   7.236 -0.2085 -0.1802  0.3989
   30MOL   O69621634   1.024   2.154   7.261 -0.1911 -0.2606  0.0725
   30MOL   C69721635   1.216   2.226   7.112 -0.2695  0.1738  0.4557
   30MOL   C69821636   1.270   2.124   7.014  0.2938 -0.0459 -0.1048
   30MOL   C69921637   1.110   2.308   7.035 -0.4602 -0.1648 -0.3113
   30MOL   H70021638   2.008   1.835   0.013 -0.1073 -0.4246  1.9218
   30MOL   H70121639   2.075   1.683   7.724 -0.1506 -0.7058  1.3191
   30MOL   H70221640   1.945   1.695   0.076 -0.2233  0.5183 -0.0599
   30MOL   H70321641   1.830   1.644   7.643  0.8930 -0.0266 -2.7934
   30MOL   H70421642   1.931   1.777   7.574 -0.5024 -2.2654 -1.4102
   30MOL   H70521643   1.799   1.935   7.729 -0.4532 -0.8521  3.4136
   30MOL   H70621644   1.711   1.804   0.016  0.2806  1.0658  0.7806
   30MOL   H70721645   1.599   1.751   7.593  0.0672 -0.5690 -3.0110
   30MOL   H70821646   1.701   1.847   7.494 -0.2783  0.4418  0.6083
   30MOL   H70921647   1.599   2.060   7.587  0.0571 -0.1742 -0.8352
   30MOL   H71021648   1.515   1.957   7.705 -0.5177 -1.3382 -0.2173
   30MOL   H71121649   1.461   1.958   7.407  0.7734  1.2521  0.0530
   30MOL   H71221650   1.397   1.828   7.506  0.7362 -0.5208  0.5614
   30MOL   H71321651   1.260   1.988   7.623  1.2852  0.8775  1.0076
   30MOL   H71421652   1.344   2.128   7.547 -1.4712  1.1501 -2.2989
   30MOL   H71521653   1.118   2.074   7.476 -1.0816 -2.6280  0.5859
   30MOL   H71621654   1.172   1.921   7.410 -0.3741 -0.2059 -1.1598
   30MOL   H71721655   1.199   2.044   6.995  0.3498 -0.5539  1.6873
   30MOL   H71821656   1.295   2.163   6.916 -0.4939  1.3887  0.2424
   30MOL   H71921657   1.358   2.074   7.052 -0.0273  0.9356  2.0395
   30MOL   H72021658   1.059   2.384   7.094  0.5287  0.9900 -0.9266
   30MOL   H72121659   1.034   2.239   6.997  0.2082  0.2434 -2.4771
   30MOL   H72221660   1.149   2.360   6.947 -2.6960  0.2460 -1.0969
   31MOL     C121661   4.141   6.913   0.795 -1.0143 -0.6318  0.2776
   31MOL     C221662   4.083   7.036   0.715 -0.0225 -0.5639  0.2564
   31MOL     C321663   3.934   7.026   0.691  0.3229  0.5891 -0.0990
   31MOL     C421664   3.853   7.053   0.819 -0.0753  0.7632  0.5465
   31MOL     C521665   3.718   7.007   0.794  0.7344  0.4268 -0.0731
   31MOL     C621666   3.625   7.047   0.914 -0.5297 -0.5185  0.3754
   31MOL     C721667   3.470   7.006   0.906 -0.2534 -0.3080 -0.0522
   31MOL     C821668   3.389   7.034   1.032 -0.3479 -0.1899  0.8955
   31MOL     O921669   3.248   7.037   0.997 -0.5758  0.6951 -0.8472
   31MOL    C1021670   3.155   7.050   1.097  0.2406  0.3697 -0.9550
   31MOL    O1121671   3.185   7.033   1.213 -0.1145 -0.1728  0.2915
   31MOL    C1221672   3.008   7.074   1.048  0.3801  0.5741  0.6864
   31MOL    C1321673   2.998   7.201   0.968 -1.2916 -0.6225 -0.1149
   31MOL    C1421674   2.943   6.958   0.965 -0.3953 -0.0704  0.5798
   31MOL    H1521675   4.113   6.924   0.900  0.1954  1.0161  0.4408
   31MOL    H1621676   4.248   6.898   0.809 -0.5669  1.4106 -0.7335
   31MOL    H1721677   4.099   6.826   0.746  0.5166 -1.1455 -0.1608
   31MOL    H1821678   4.129   7.038   0.616  0.1947 -2.2938  0.3024
   31MOL    H1921679   4.110   7.131   0.762 -1.0625 -0.7252  1.1968
   31MOL    H2021680   3.900   7.098   0.617 -0.0296 -1.2502 -1.7805
   31MOL    H2121681   3.907   6.934   0.638 -0.4971 -0.6173  2.3245
   31MOL    H2221682   3.886   7.016   0.916 -1.0638 -0.4923  0.4120
   31MOL    H2321683   3.853   7.162   0.833  0.7707  0.7133  0.9702
   31MOL    H2421684   3.716   6.899   0.781  0.2736  0.5062 -0.6907
   31MOL    H2521685   3.697   7.065   0.704  0.6336  0.1328 -0.2377
   31MOL    H2621686   3.619   7.153   0.938 -0.4178 -0.0143 -1.7492
   31MOL    H2721687   3.653   6.999   1.008 -0.7129  0.1032  0.7524
   31MOL    H2821688   3.477   6.902   0.872 -3.0851  0.1144 -2.0463
   31MOL    H2921689   3.428   7.070   0.829 -0.6018  1.2753  1.4225
   31MOL    H3021690   3.437   7.125   1.069  2.0261 -1.0054 -0.0451
   31MOL    H3121691   3.401   6.951   1.101 -0.2354 -0.5659  0.4274
   31MOL    H3221692   2.893   7.226   0.955 -1.5849  1.8659  5.6260
   31MOL    H3321693   3.045   7.281   1.025 -0.9432  0.0433 -1.3281
   31MOL    H3421694   3.040   7.193   0.868 -0.4649  1.3586  0.0572
   31MOL    H3521695   3.026   6.899   0.926  0.1703 -1.1246  3.3069
   31MOL    H3621696   2.886   6.993   0.879  2.7815  0.7810 -1.2587
   31MOL    H3721697   2.951   7.086   1.140  1.2350  2.1846  1.0294
   31MOL    C3821698   1.970   7.194   0.428 -0.2474  0.3845 -0.2862
   31MOL    C3921699   2.063   7.258   0.531  0.1576 -0.3161  0.0217
   31MOL    C4021700   2.083   7.169   0.653 -0.0315 -0.2437  0.4091
   31MOL    C4121701   2.185   7.217   0.762 -0.4597  0.2009 -0.0668
   31MOL    C4221702   2.182   7.124   0.890  0.4802  0.2787  0.6030
   31MOL    C4321703   2.293   7.143   0.993  0.3787  0.3772 -1.1697
   31MOL    C4421704   2.427   7.084   0.954  0.2100  0.0519  0.2696
   31MOL    C4521705   2.535   7.082   1.055 -0.0153  0.0174  0.6118
   31MOL    O4621706   2.652   7.011   1.009 -0.6240 -0.1528  0.1885
   31MOL    C4721707   2.731   6.948   1.100  0.3950  0.0362 -0.1129
   31MOL    O4821708   2.712   6.959   1.224 -0.1844  0.1370 -0.3391
   31MOL    C4921709   2.847   6.863   1.040 -0.1203 -0.0286  0.3281
   31MOL    C5021710   2.925   6.788   1.145  0.4440  0.0107 -0.3242
   31MOL    C5121711   2.794   6.752   0.941 -0.2430 -0.0092 -0.2226
   31MOL    H5221712   1.966   7.086   0.439 -1.5872  0.4307 -0.1963
   31MOL    H5321713   2.002   7.230   0.330 -0.9226 -0.0369 -0.6666
   31MOL    H5421714   1.864   7.216   0.445 -0.2637  1.0761 -1.2553
   31MOL    H5521715   2.027   7.356   0.562  0.2746 -0.0181 -0.7618
   31MOL    H5621716   2.154   7.284   0.477 -0.5959  0.3319 -0.9595
   31MOL    H5721717   1.985   7.149   0.695 -0.3666 -0.7720 -0.5977
   31MOL    H5821718   2.119   7.077   0.606 -0.6149 -0.7505  0.9424
   31MOL    H5921719   2.152   7.314   0.800  1.2173  1.7138 -2.3545
   31MOL    H6021720   2.282   7.235   0.717  0.6799 -1.4258  1.6443
   31MOL    H6121721   2.087   7.133   0.942 -0.5206 -0.8280 -1.0023
   31MOL    H6221722   2.183   7.023   0.850 -0.4322  0.3815  0.3244
   31MOL    H6321723   2.307   7.249   1.011 -0.0669  0.0537  1.3435
   31MOL    H6421724   2.253   7.101   1.086 -2.7149  2.9936 -1.2199
   31MOL    H6521725   2.460   7.150   0.873  0.1576  1.9207  1.7446
   31MOL    H6621726   2.407   6.983   0.918  0.5859  0.3299 -0.7595
   31MOL    H6721727   2.508   7.033   1.149  1.3327 -3.3163 -0.6496
   31MOL    H6821728   2.564   7.183   1.082 -1.2410  0.5843 -0.1303
   31MOL    H6921729   3.010   6.729   1.111 -0.2532 -1.2345  0.0396
   31MOL    H7021730   2.962   6.855   1.223  1.5726 -1.4533  0.4235
   31MOL    H7121731   2.858   6.721   1.200  0.0711  1.2552  0.7793
   31MOL    H7221732   2.879   6.701   0.894 -2.3799 -3.0504 -0.9618
   31MOL    H7321733   2.748   6.813   0.863 -1.3911 -0.1651  0.3249
   31MOL    C7421734   3.070   5.604   1.185  0.8729 -0.0556  0.1107
   31MOL    C7521735   3.079   5.749   1.147 -0.2044 -0.1923 -0.8235
   31MOL    C7621736   2.964   5.797   1.061  0.2589  0.4309 -0.2764
   31MOL    C7721737   2.968   5.941   1.064 -0.3606 -0.2318 -0.2650
   31MOL    C7821738   2.850   6.010   0.999 -0.6031  0.2200 -0.3997
   31MOL    C7921739   2.871   6.158   0.978 -0.2802  0.1678  0.5082
   31MOL    C8021740   2.891   6.248   1.097  0.8825  0.6705 -0.5222
   31MOL    C8121741   2.965   6.382   1.061 -0.4586  0.2318  0.0426
   31MOL    O8221742   2.883   6.478   0.996 -0.4771 -0.2419  0.3673
   31MOL    C8321743   2.777   6.531   1.064 -0.2480 -0.3865 -0.0257
   31MOL    O8421744   2.749   6.507   1.180  0.1990 -0.0179 -0.2793
   31MOL    C8521745   2.692   6.640   0.977  0.0556 -0.0300 -0.3301
   31MOL    C8621746   2.572   6.702   1.049 -0.4467 -0.2569  0.1355
   31MOL    C8721747   2.637   6.569   0.846  1.0048  0.1119  0.4557
   31MOL    H8821748   3.081   5.528   1.108  0.6463 -0.3167  0.3362
   31MOL    H8921749   2.976   5.580   1.234  0.4094 -0.1936 -0.8332
   31MOL    H9021750   3.143   5.584   1.263 -0.2563 -1.7252  0.7746
   31MOL    H9121751   3.179   5.769   1.107 -0.0399  3.0509  1.0640
   31MOL    H9221752   3.087   5.801   1.242  2.0636  1.5292 -1.9125
   31MOL    H9321753   2.970   5.752   0.961 -2.8277 -0.0668 -0.3029
   31MOL    H9421754   2.870   5.767   1.108 -0.1035 -0.8983 -1.7863
   31MOL    H9521755   3.062   5.977   1.023  0.1160 -3.2729 -1.9822
   31MOL    H9621756   2.977   5.977   1.167  1.6306  2.6524 -1.3840
   31MOL    H9721757   2.836   5.961   0.902  2.5778  0.2996 -0.9660
   31MOL    H9821758   2.764   5.978   1.057 -1.3909 -1.9978 -2.6984
   31MOL    H9921759   2.954   6.177   0.910 -0.1755 -1.7032  0.0684
   31MOL   H10021760   2.780   6.185   0.925 -0.4256 -1.1025  0.0998
   31MOL   H10121761   2.795   6.265   1.146  0.6314 -2.7933  0.3037
   31MOL   H10221762   2.952   6.200   1.174  0.6155 -0.1026 -0.7931
   31MOL   H10321763   3.052   6.359   0.999 -0.2160  0.3850  0.3223
   31MOL   H10421764   3.025   6.413   1.146  0.9045 -0.1107 -0.7736
   31MOL   H10521765   2.490   6.630   1.052 -0.4691 -0.2609 -0.5198
   31MOL   H10621766   2.536   6.795   1.007  0.1547 -0.0156  0.1521
   31MOL   H10721767   2.591   6.715   1.156 -0.2738  0.7337 -0.0146
   31MOL   H10821768   2.607   6.651   0.780  1.0817 -2.0055 -2.2975
   31MOL   H10921769   2.721   6.524   0.794 -0.6447 -0.1371 -2.0795
   31MOL   C11021770   2.347   7.041   0.139 -0.1931  0.1286 -0.4795
   31MOL   C11121771   2.191   7.048   0.145  1.1321  1.2811 -0.3356
   31MOL   C11221772   2.132   6.910   0.166 -0.4128  0.0923 -0.0405
   31MOL   C11321773   2.143   6.861   0.314  0.3812  0.1877 -0.0050
   31MOL   C11421774   2.229   6.736   0.340 -0.6877 -0.0468 -0.8025
   31MOL   C11521775   2.196   6.673   0.476 -0.0115  0.2137  0.2315
   31MOL   C11621776   2.205   6.769   0.593  0.2079 -1.0686  0.3381
   31MOL   C11721777   2.218   6.696   0.721 -0.5591  0.2608 -0.0954
   31MOL   O11821778   2.351   6.629   0.726 -0.1302 -0.3600 -0.2411
   31MOL   C11921779   2.379   6.557   0.838 -0.3484 -0.4879 -0.6036
   31MOL   O12021780   2.304   6.552   0.932  0.3059 -0.1159  0.3409
   31MOL   C12121781   2.510   6.477   0.837  0.1150  0.9911  1.2644
   31MOL   C12221782   2.508   6.377   0.943 -0.0398  0.0846  0.3651
   31MOL   C12321783   2.536   6.402   0.699 -0.4736  0.7969 -0.8215
   31MOL   H12421784   2.384   7.134   0.097 -0.2012 -1.6724 -4.6673
   31MOL   H12521785   2.397   7.027   0.235  1.4472 -0.7101 -1.4421
   31MOL   H12621786   2.382   6.961   0.073 -0.9409 -1.8368  1.4183
   31MOL   H12721787   2.155   7.098   0.055 -0.0757 -0.9810 -1.1280
   31MOL   H12821788   2.167   7.123   0.221  1.9603  1.4219 -0.2035
   31MOL   H12921789   2.168   6.846   0.085 -2.9367 -0.2687 -0.9404
   31MOL   H13021790   2.026   6.925   0.145 -0.5228  3.7811  2.6870
   31MOL   H13121791   2.168   6.944   0.380  1.3258  0.4360 -0.6550
   31MOL   H13221792   2.043   6.825   0.338 -0.2375  0.8863 -1.5033
   31MOL   H13321793   2.335   6.760   0.336 -0.9822  1.0735 -2.6577
   31MOL   H13421794   2.219   6.662   0.260 -3.2040 -1.1491  0.4844
   31MOL   H13521795   2.104   6.616   0.477 -0.4428  0.8853  3.5698
   31MOL   H13621796   2.275   6.599   0.490  1.6382  2.1105  1.1895
   31MOL   H13721797   2.122   6.839   0.582  0.3272 -0.8729  0.6685
   31MOL   H13821798   2.289   6.835   0.569 -0.0295  0.2903  2.9814
   31MOL   H13921799   2.215   6.756   0.812  1.2012  0.3097 -0.0545
   31MOL   H14021800   2.129   6.633   0.730 -0.6197  0.6510  2.5241
   31MOL   H14121801   2.586   6.305   0.919 -1.4825 -2.2534  2.4998
   31MOL   H14221802   2.533   6.414   1.042 -0.9022  0.0878  0.5859
   31MOL   H14321803   2.413   6.324   0.950  0.2706 -0.5366 -0.0199
   31MOL   H14421804   2.636   6.361   0.689 -0.1731  0.6477  2.4601
   31MOL   H14521805   2.529   6.478   0.621 -0.5672  0.0027 -1.6017
   31MOL   C14621806   1.813   6.235   0.684 -0.2906  0.5614 -0.2142
   31MOL   C14721807   1.855   6.098   0.741 -0.0712 -0.1760 -0.2061
   31MOL   C14821808   1.898   5.990   0.643  0.0954 -0.1239  0.2150
   31MOL   C14921809   1.953   5.856   0.697  0.5236 -0.0981  0.0701
   31MOL   C15021810   2.035   5.873   0.823 -1.1546 -0.4761 -0.3381
   31MOL   C15121811   2.172   5.920   0.774  0.1891 -0.3759  0.7560
   31MOL   C15221812   2.279   5.922   0.882  0.3809  0.4784  0.0425
   31MOL   C15321813   2.414   5.963   0.818 -0.1230 -0.0980  0.3602
   31MOL   O15421814   2.395   6.093   0.769 -0.2237  0.4352  0.4510
   31MOL   C15521815   2.491   6.156   0.703 -0.0773 -0.5276  0.4325
   31MOL   O15621816   2.603   6.115   0.682 -0.0235  0.1363  0.0653
   31MOL   C15721817   2.443   6.291   0.640  0.0307 -1.3994 -0.0370
   31MOL   C15821818   2.292   6.317   0.676  0.2021  0.1899 -0.3272
   31MOL   C15921819   2.457   6.287   0.486 -0.4761 -0.1365 -0.1318
   31MOL   H16021820   1.888   6.294   0.632  0.5996 -0.9873 -0.7295
   31MOL   H16121821   1.770   6.303   0.758  2.1764  0.0941  1.7130
   31MOL   H16221822   1.731   6.215   0.615 -0.2409 -0.6006  0.0500
   31MOL   H16321823   1.931   6.125   0.814  0.5727 -0.3578 -0.8018
   31MOL   H16421824   1.777   6.056   0.805  0.7808 -0.7133  0.4963
   31MOL   H16521825   1.985   6.016   0.583 -0.4992 -1.7608 -1.4019
   31MOL   H16621826   1.814   5.963   0.579 -0.6297  2.5832 -0.0245
   31MOL   H16721827   1.871   5.794   0.733  0.4113  0.0113  0.0042
   31MOL   H16821828   1.990   5.793   0.617 -1.7528 -1.6501  0.1783
   31MOL   H16921829   2.042   5.776   0.872 -0.0455  0.1912  0.8448
   31MOL   H17021830   1.984   5.932   0.899 -0.1132 -0.0491  0.0316
   31MOL   H17121831   2.164   6.020   0.731  0.3357 -1.0065 -0.7752
   31MOL   H17221832   2.217   5.859   0.695  0.2855 -1.4133  1.6090
   31MOL   H17321833   2.253   5.995   0.958 -0.7604 -0.1080  0.2072
   31MOL   H17421834   2.291   5.826   0.931  2.6054  2.2169  3.1262
   31MOL   H17521835   2.493   5.953   0.892 -1.5715 -1.1996  1.7884
   31MOL   H17621836   2.439   5.890   0.741  3.6641  0.3023  1.1219
   31MOL   H17721837   2.225   6.249   0.623  0.0753  0.4368 -0.4860
   31MOL   H17821838   2.273   6.419   0.643 -0.9169  0.2058  0.3264
   31MOL   H17921839   2.264   6.315   0.781  0.7972 -0.1491 -0.1730
   31MOL   H18021840   2.562   6.276   0.460 -0.7579 -0.6819 -1.0549
   31MOL   H18121841   2.425   6.390   0.469 -2.4211 -1.0488 -2.2405
   31MOL   C18221842   1.267   5.790   0.032  0.2555  0.1699 -0.0901
   31MOL   C18321843   1.355   5.912   0.055 -0.7590  0.4213  0.5219
   31MOL   C18421844   1.487   5.876   0.127 -0.6880  0.5724 -0.7418
   31MOL   C18521845   1.565   6.005   0.172  0.3192 -0.0610  0.3340
   31MOL   C18621846   1.715   5.978   0.176 -0.1954 -0.4958 -0.6051
   31MOL   C18721847   1.791   6.106   0.224  0.7912 -0.4790  0.1568
   31MOL   C18821848   1.943   6.077   0.234 -0.3261 -0.5466 -0.3440
   31MOL   C18921849   2.016   6.173   0.320 -0.4710 -0.0382  1.1661
   31MOL   O19021850   2.161   6.159   0.313 -0.1443 -0.0146  0.4663
   31MOL   C19121851   2.239   6.248   0.367 -0.0182  0.1054  0.7729
   31MOL   O19221852   2.202   6.366   0.396  0.2110  0.3875  0.8219
   31MOL   C19321853   2.379   6.195   0.394 -0.1766 -0.2247  0.4397
   31MOL   C19421854   2.371   6.040   0.442  0.0564 -0.0938 -0.3973
   31MOL   C19521855   2.446   6.179   0.251  0.1945  0.5280 -0.4449
   31MOL   H19621856   1.333   5.709   0.002  1.2993  1.1470 -0.4969
   31MOL   H19721857   1.223   5.745   0.121 -1.8435  2.5331  0.1285
   31MOL   H19821858   1.187   5.810   7.740  1.1289 -0.9344 -1.4058
   31MOL   H19921859   1.293   5.975   0.118 -0.8800  0.4910  0.3353
   31MOL   H20021860   1.368   5.958   7.736 -1.1075  1.5882  1.0110
   31MOL   H20121861   1.462   5.803   0.204 -0.2487  0.5220 -0.6444
   31MOL   H20221862   1.556   5.836   0.052 -0.1080 -1.1707  0.6891
   31MOL   H20321863   1.553   6.085   0.100  1.9668  1.3543  1.5872
   31MOL   H20421864   1.515   6.049   0.258 -1.1119 -1.3653  0.1979
   31MOL   H20521865   1.751   5.939   0.080 -0.7901 -0.6064 -0.7843
   31MOL   H20621866   1.741   5.898   0.245  1.7882  0.0408 -0.7132
   31MOL   H20721867   1.762   6.148   0.320  1.1554  1.3332 -0.4866
   31MOL   H20821868   1.766   6.192   0.161  2.2502  0.1572  0.4293
   31MOL   H20921869   1.949   5.986   0.294  1.0707  1.1056  2.1498
   31MOL   H21021870   1.990   6.061   0.137  2.9627  0.4711  1.0177
   31MOL   H21121871   1.988   6.157   0.424  0.3322  0.1105  1.4119
   31MOL   H21221872   1.983   6.273   0.293 -0.1219 -0.4218 -0.7337
   31MOL   H21321873   2.472   5.999   0.448 -0.9232 -2.6296 -0.4031
   31MOL   H21421874   2.326   6.037   0.542 -0.4547 -1.8356 -0.6645
   31MOL   H21521875   2.311   5.974   0.380 -0.1995 -0.6422  0.4225
   31MOL   H21621876   2.529   6.110   0.268 -0.1913 -0.1485 -1.2828
   31MOL   H21721877   2.380   6.114   0.193  1.0584 -0.7562 -0.0130
   31MOL   C21821878   3.383   6.367   7.330  0.5278 -0.9061 -0.3248
   31MOL   C21921879   3.326   6.386   7.465 -0.4901 -0.3322  0.2157
   31MOL   C22021880   3.368   6.277   7.565  0.8341 -0.2001 -0.3649
   31MOL   C22121881   3.303   6.287   7.705 -0.0419 -0.6119  0.6042
   31MOL   C22221882   3.144   6.282   7.703  0.0990  0.0806 -0.5849
   31MOL   C22321883   3.085   6.258   0.065 -1.7923 -0.2368 -0.3160
   31MOL   C22421884   2.934   6.261   0.057  0.1151  0.1181  0.2167
   31MOL   C22521885   2.866   6.209   0.188 -0.0250  0.0382 -0.4870
   31MOL   O22621886   2.724   6.208   0.175  0.0525 -0.6049  0.1631
   31MOL   C22721887   2.650   6.323   0.192  0.4800 -0.2171 -1.0761
   31MOL   O22821888   2.703   6.434   0.217 -0.2495 -0.1143  0.1999
   31MOL   C22921889   2.496   6.299   0.158 -0.9383 -0.6013 -0.4111
   31MOL   C23021890   2.427   6.439   0.184  0.5028 -0.6533 -0.0100
   31MOL   C23121891   2.492   6.250   0.005 -0.2855  0.5127 -0.2706
   31MOL   H23221892   3.359   6.457   7.274 -1.4526 -0.7344  0.7424
   31MOL   H23321893   3.339   6.287   7.270 -0.7171  0.3284 -1.0831
   31MOL   H23421894   3.490   6.348   7.327  0.8848  0.5053  2.0071
   31MOL   H23521895   3.218   6.394   7.454 -0.5585 -2.5486 -0.8811
   31MOL   H23621896   3.346   6.486   7.505 -3.9269  0.7604 -0.7023
   31MOL   H23721897   3.350   6.174   7.533 -2.5388  0.3080 -0.2416
   31MOL   H23821898   3.476   6.279   7.582  0.8562 -2.0693 -0.2028
   31MOL   H23921899   3.344   6.207   7.767  1.6357 -0.0077  0.3022
   31MOL   H24021900   3.326   6.375   7.765  0.2950  0.4022 -0.9811
   31MOL   H24121901   3.098   6.373   7.665 -0.6824  0.2296  0.6962
   31MOL   H24221902   3.100   6.205   7.640  0.5674 -0.9149  0.2800
   31MOL   H24321903   3.116   6.161   0.105 -0.7304  1.1997  2.4542
   31MOL   H24421904   3.123   6.332   0.135  0.7552 -0.3871 -1.4564
   31MOL   H24521905   2.898   6.190   7.763  1.2655 -1.8827  1.5292
   31MOL   H24621906   2.908   6.364   0.031 -1.7354 -0.5340 -0.6260
   31MOL   H24721907   2.897   6.269   0.273  3.2635 -0.6778 -1.1336
   31MOL   H24821908   2.914   6.112   0.203  0.9461  0.5974  0.0318
   31MOL   H24921909   2.455   6.516   0.112 -0.5002  0.6987  1.0192
   31MOL   H25021910   2.457   6.489   0.276 -1.8112  0.5485  0.1497
   31MOL   H25121911   2.318   6.440   0.174  0.4481  0.2179  0.5798
   31MOL   H25221912   2.583   6.290   7.740 -0.0569  0.7181  0.3675
   31MOL   H25321913   2.518   6.144   0.008 -0.0799  0.4896 -2.3520
   31MOL   C25421914   3.259   6.728   0.248  0.0698  0.2817 -0.5634
   31MOL   C25521915   3.110   6.682   0.227  0.1735  0.0180 -0.1033
   31MOL   C25621916   3.054   6.718   0.089 -0.3215  0.9976 -0.0224
   31MOL   C25721917   2.904   6.677   0.082  0.3934 -0.4705 -0.4187
   31MOL   C25821918   2.836   6.715   7.729  0.4027 -0.0126  0.0485
   31MOL   C25921919   2.702   6.646   7.734 -0.4120 -0.2956  0.6113
   31MOL   C26021920   2.611   6.683   7.608  0.0481  0.1893  0.2138
   31MOL   C26121921   2.472   6.614   7.604  0.7690  0.0767  0.2475
   31MOL   O26221922   2.470   6.476   7.627 -0.1244  0.2767  0.1935
   31MOL   C26321923   2.352   6.421   7.662 -0.2341 -0.0803  0.6122
   31MOL   O26421924   2.249   6.481   7.684 -0.1897  0.1601 -0.2731
   31MOL   C26521925   2.366   6.267   7.688  0.4445  0.3391  0.0850
   31MOL   C26621926   2.232   6.225   7.762  0.2442 -0.4945 -0.0327
   31MOL   C26721927   2.380   6.213   7.543  0.3826  0.4317  0.8661
   31MOL   H26821928   3.330   6.679   0.181 -0.3428 -0.2818 -0.5998
   31MOL   H26921929   3.263   6.837   0.248 -0.9501  0.3197 -0.5852
   31MOL   H27021930   3.296   6.691   0.343  0.6818  1.3110 -0.3954
   31MOL   H27121931   3.109   6.573   0.232 -3.1939 -0.0563 -1.2110
   31MOL   H27221932   3.045   6.704   0.312 -0.8578 -2.4221 -0.2010
   31MOL   H27321933   3.108   6.656   0.018 -0.6350  2.4569 -1.5364
   31MOL   H27421934   3.067   6.823   0.065 -1.5889  0.7840 -1.7032
   31MOL   H27521935   2.842   6.723   0.159  2.0354  1.0938 -0.0007
   31MOL   H27621936   2.896   6.570   0.103  1.9220 -0.0647  2.5910
   31MOL   H27721937   2.831   6.823   7.712 -2.3791 -0.1933 -0.5734
   31MOL   H27821938   2.889   6.677   7.642  1.2991  0.0913  0.5400
   31MOL   H27921939   2.652   6.664   0.049 -2.4187  1.7616 -0.7791
   31MOL   H28021940   2.731   6.541   7.722  1.4795  0.1362  1.2810
   31MOL   H28121941   2.605   6.791   7.601  1.7006  0.5246  3.0530
   31MOL   H28221942   2.656   6.657   7.512 -1.8156 -1.3821 -0.2672
   31MOL   H28321943   2.408   6.659   7.680  0.4896 -0.3204  0.2447
   31MOL   H28421944   2.425   6.629   7.507 -0.5670 -2.7536  0.4072
   31MOL   H28521945   2.149   6.230   7.692 -1.8736 -2.6598  2.2015
   31MOL   H28621946   2.235   6.127   0.031 -0.4010 -1.0096 -1.0156
   31MOL   H28721947   2.202   6.286   0.068 -1.0727  1.6607 -1.9781
   31MOL   H28821948   2.442   6.277   7.480  1.2236 -0.7562  0.4698
   31MOL   H28921949   2.285   6.232   7.493  1.7899 -0.4309 -2.3185
   31MOL   C29021950   3.533   5.893   0.070 -0.2502 -0.6023 -0.4196
   31MOL   C29121951   3.443   5.862   7.726  0.6691 -0.0384 -0.5030
   31MOL   C29221952   3.293   5.848   7.775 -0.3331  0.8986 -0.1271
   31MOL   C29321953   3.196   5.869   7.656  0.9587  0.1281 -0.0601
   31MOL   C29421954   3.051   5.838   7.691  0.1150  0.0985 -0.2835
   31MOL   C29521955   2.964   5.855   7.558 -0.2349  0.6561  0.0692
   31MOL   C29621956   2.808   5.843   7.578  0.2823  0.2188  0.2331
   31MOL   C29721957   2.727   5.868   7.448  0.5719  0.1271  0.1677
   31MOL   O29821958   2.592   5.913   7.479  0.3610 -0.3286  0.6262
   31MOL   C29921959   2.566   6.040   7.516 -0.6413  0.1247 -0.5412
   31MOL   O30021960   2.646   6.127   7.552 -0.2971  0.6427 -0.0189
   31MOL   C30121961   2.420   6.066   7.507  0.1964 -0.6711  0.1423
   31MOL   C30221962   2.357   5.966   7.601  0.0915 -0.1585 -0.0525
   31MOL   C30321963   2.369   6.021   7.353  0.1036 -0.3433  0.4691
   31MOL   H30421964   3.632   5.926   0.039  0.1401 -1.5245 -0.1614
   31MOL   H30521965   3.533   5.810   0.141  0.9820  0.6305  1.0429
   31MOL   H30621966   3.489   5.965   0.140  0.1843  0.2180 -0.9839
   31MOL   H30721967   3.477   5.778   7.665  1.2045  1.0132 -1.6809
   31MOL   H30821968   3.440   5.945   7.656  0.3383 -0.0215 -0.4671
   31MOL   H30921969   3.280   5.933   0.062 -3.3212  1.5662 -1.4335
   31MOL   H31021970   3.273   5.763   0.061 -1.3438  0.8811 -0.4530
   31MOL   H31121971   3.207   5.977   7.643 -0.2542  0.2064 -0.4077
   31MOL   H31221972   3.233   5.823   7.565 -0.3532 -0.6824 -0.1912
   31MOL   H31321973   3.050   5.734   7.723 -0.6245  0.4173  0.7420
   31MOL   H31421974   3.017   5.901   7.773 -0.4700 -0.6320  0.0342
   31MOL   H31521975   2.992   5.772   7.493 -0.1669 -1.2375  2.4786
   31MOL   H31621976   2.989   5.956   7.524  3.0244  0.6534  2.2228
   31MOL   H31721977   2.781   5.916   7.653 -0.9626  0.5132 -0.5009
   31MOL   H31821978   2.780   5.748   7.625  0.9983  1.1352  2.5757
   31MOL   H31921979   2.707   5.774   7.396  0.3146  0.8439 -1.0425
   31MOL   H32021980   2.779   5.939   7.385  1.1772  1.7362  2.3981
   31MOL   H32121981   2.372   5.867   7.558 -0.0173  0.0905 -0.6614
   31MOL   H32221982   2.249   5.964   7.612  0.0413  0.4265 -0.4442
   31MOL   H32321983   2.403   5.970   7.700 -1.8421 -1.6214  0.9489
   31MOL   H32421984   2.396   5.920   7.324 -2.2697 -0.7500 -0.3845
   31MOL   H32521985   2.260   6.013   7.356  0.1330 -1.7562 -1.4084
   31MOL   C32621986   1.422   6.345   7.734 -0.3304 -0.1571  0.0300
   31MOL   C32721987   1.513   6.327   7.617  0.1012  0.4693  0.1865
   31MOL   C32821988   1.636   6.238   7.632 -0.4765 -0.0384 -0.4355
   31MOL   C32921989   1.737   6.250   7.521  0.1910  0.2182  0.1903
   31MOL   C33021990   1.862   6.162   7.521 -0.8977 -0.1376 -0.3206
   31MOL   C33121991   1.980   6.211   7.443  0.0344 -0.4334 -0.0977
   31MOL   C33221992   1.963   6.240   7.295  0.4188  0.6011  0.2645
   31MOL   C33321993   2.084   6.304   7.237  0.2132  0.2737 -0.4521
   31MOL   O33421994   2.182   6.202   7.221  0.0835 -0.2162 -0.4354
   31MOL   C33521995   2.308   6.234   7.217 -0.3934  0.4720  0.3148
   31MOL   O33621996   2.344   6.354   7.216 -0.1471 -0.0340 -0.2419
   31MOL   C33721997   2.406   6.111   7.218  0.5396 -0.1039 -0.4314
   31MOL   C33821998   2.561   6.154   7.224  0.0097 -0.8346  0.0944
   31MOL   C33921999   2.372   6.026   7.086  0.2368  0.4017 -0.2168
   31MOL   H34022000   1.402   6.252   0.007  1.6012 -2.3265 -2.8868
   31MOL   H34122001   1.327   6.392   7.708 -1.3715 -0.3034  3.3377
   31MOL   H34222002   1.471   6.413   0.024 -0.2251 -0.9228  0.7145
   31MOL   H34322003   1.545   6.429   7.594 -1.3260  1.2357  1.5241
   31MOL   H34422004   1.447   6.294   7.536 -0.9840  1.2972  0.7126
   31MOL   H34522005   1.593   6.138   7.639 -1.9922  0.6634  0.3260
   31MOL   H34622006   1.673   6.263   7.732 -0.4153  0.9651 -0.7085
   31MOL   H34722007   1.763   6.354   7.500 -4.0061  1.3527  0.0562
   31MOL   H34822008   1.683   6.213   7.433  0.7112  0.6881 -0.3333
   31MOL   H34922009   1.912   6.156   7.618  0.8069  0.5835 -1.1279
   31MOL   H35022010   1.827   6.062   7.495 -1.1281  0.1605 -1.1454
   31MOL   H35122011   2.012   6.306   7.485 -1.6898 -0.9935  2.6390
   31MOL   H35222012   2.066   6.145   7.451 -0.6484 -1.6114 -2.2554
   31MOL   H35322013   1.872   6.299   7.281 -0.5780 -1.4360 -2.5270
   31MOL   H35422014   1.939   6.162   7.222 -2.4918 -0.1862  1.9623
   31MOL   H35522015   2.068   6.343   7.137  1.6900  2.2368  0.0552
   31MOL   H35622016   2.132   6.379   7.300 -2.7873  1.5220  0.4522
   31MOL   H35722017   2.596   6.222   7.146  2.2534 -2.8604 -0.7168
   31MOL   H35822018   2.571   6.217   7.312 -3.0882  0.6413 -0.5292
   31MOL   H35922019   2.619   6.063   7.243  1.6313 -0.3496 -2.2964
   31MOL   H36022020   2.404   5.925   7.113 -0.2533 -0.2004 -1.8378
   31MOL   H36122021   2.264   6.014   7.080  0.5830 -2.3572 -1.6029
   31MOL   C36222022   2.786   6.683   6.351  0.2141 -0.8221  0.2052
   31MOL   C36322023   2.655   6.776   6.346 -0.5167  0.0547  0.2747
   31MOL   C36422024   2.532   6.697   6.379  0.3173 -0.0743  0.8475
   31MOL   C36522025   2.540   6.622   6.516 -0.6685  0.1880  0.0288
   31MOL   C36622026   2.405   6.543   6.550 -0.1519 -0.9227  0.0931
   31MOL   C36722027   2.398   6.456   6.677  0.0429  0.3955  0.3363
   31MOL   C36822028   2.250   6.405   6.720 -0.1791 -0.3897 -0.3344
   31MOL   C36922029   2.229   6.366   6.871  0.5811 -0.7752 -0.2120
   31MOL   O37022030   2.269   6.232   6.900 -0.3242 -0.4237 -0.0033
   31MOL   C37122031   2.399   6.204   6.912 -0.2449  0.6799  0.1549
   31MOL   O37222032   2.486   6.292   6.912 -0.2996  0.2665 -0.3747
   31MOL   C37322033   2.428   6.052   6.941  0.1613 -0.0251 -0.0996
   31MOL   C37422034   2.352   5.956   6.844  0.2824 -0.1538 -0.0974
   31MOL   C37522035   2.580   6.021   6.941 -0.2414  0.2518 -0.4861
   31MOL   H37622036   2.868   6.747   6.320 -0.3057  0.6619  1.7743
   31MOL   H37722037   2.811   6.647   6.450 -2.4330 -1.3114  0.7286
   31MOL   H37822038   2.767   6.598   6.285 -3.1545 -0.4186  0.5654
   31MOL   H37922039   2.652   6.840   6.258 -1.3153 -1.6839 -0.9844
   31MOL   H38022040   2.664   6.849   6.427  0.7062  0.5179 -0.2649
   31MOL   H38122041   2.503   6.633   6.296  0.4892 -0.5216  1.1296
   31MOL   H38222042   2.447   6.765   6.395  0.6881  0.3242  1.1337
   31MOL   H38322043   2.573   6.694   6.591  1.0052 -1.3389  0.8076
   31MOL   H38422044   2.632   6.566   6.501 -0.1530  0.4982  1.8915
   31MOL   H38522045   2.331   6.622   6.557  1.4766  0.6835 -0.3656
   31MOL   H38622046   2.366   6.480   6.470  0.1268  0.8070 -1.4317
   31MOL   H38722047   2.446   6.510   6.758  0.2089  1.4867 -0.4735
   31MOL   H38822048   2.460   6.367   6.665 -0.4424  0.0144  0.6278
   31MOL   H38922049   2.220   6.318   6.662  0.5038 -1.0294  0.2529
   31MOL   H39022050   2.184   6.489   6.699 -0.6651 -0.4385  0.8964
   31MOL   H39122051   2.284   6.437   6.932  2.1460 -1.5114 -0.7363
   31MOL   H39222052   2.124   6.382   6.897  1.1327  1.4773  0.7042
   31MOL   H39322053   2.359   5.849   6.863 -0.7276 -0.5039 -1.6111
   31MOL   H39422054   2.249   5.992   6.849 -0.3504 -1.6018 -2.4401
   31MOL   H39522055   2.377   5.973   6.740 -0.6006  0.5261 -0.2018
   31MOL   H39622056   2.635   6.102   6.988  1.0373 -0.6213 -0.4641
   31MOL   H39722057   2.591   5.942   7.015 -1.0169  1.3121  0.7804
   31MOL   C39822058   2.966   5.477   7.438  0.6957  0.2218  0.0616
   31MOL   C39922059   2.948   5.362   7.340  0.6468 -0.7158  0.0584
   31MOL   C40022060   2.807   5.318   7.319  0.1864  0.3023  0.3114
   31MOL   C40122061   2.703   5.406   7.255 -0.1698  0.7184 -0.1624
   31MOL   C40222062   2.739   5.431   7.105  0.1281  0.4702 -0.3806
   31MOL   C40322063   2.646   5.529   7.036 -0.6076 -0.4111 -0.1826
   31MOL   C40422064   2.660   5.522   6.884 -0.3795 -0.1044 -0.9473
   31MOL   C40522065   2.575   5.627   6.813  0.2503 -1.4889 -0.1981
   31MOL   O40622066   2.617   5.754   6.844  0.0375 -0.1402 -0.0549
   31MOL   C40722067   2.614   5.846   6.748 -0.5392  0.3896 -0.2203
   31MOL   O40822068   2.589   5.834   6.628 -0.3725 -0.1270 -0.0582
   31MOL   C40922069   2.667   5.983   6.810  0.4351  0.1191  0.2440
   31MOL   C41022070   2.662   6.088   6.690  0.0493 -0.7337  0.1979
   31MOL   C41122071   2.809   5.970   6.877 -0.0365 -0.4048 -0.4474
   31MOL   H41222072   2.922   5.575   7.418 -1.3402 -0.5539  0.5261
   31MOL   H41322073   3.073   5.495   7.445  0.3163  1.6400  3.2250
   31MOL   H41422074   2.928   5.452   7.537  2.4057 -2.1013  0.1611
   31MOL   H41522075   2.991   5.276   7.391  2.9834  0.0829 -0.5229
   31MOL   H41622076   3.004   5.376   7.248 -1.6472 -3.9226 -1.9660
   31MOL   H41722077   2.820   5.224   7.266 -1.3487  0.4570 -0.3831
   31MOL   H41822078   2.775   5.287   7.419  0.1504 -0.9854 -0.0981
   31MOL   H41922079   2.701   5.500   7.310 -2.6881  0.1545  0.7682
   31MOL   H42022080   2.603   5.364   7.244  0.1884 -0.0981 -0.3540
   31MOL   H42122081   2.844   5.460   7.103  0.5610 -0.9072  0.9854
   31MOL   H42222082   2.729   5.338   7.050 -0.6629  0.5711 -0.4191
   31MOL   H42322083   2.680   5.627   7.067 -2.0875 -0.1314  0.5972
   31MOL   H42422084   2.539   5.527   7.059 -0.4905  0.1730  0.3910
   31MOL   H42522085   2.766   5.539   6.866 -0.1887  0.9227  1.0161
   31MOL   H42622086   2.635   5.418   6.861 -0.6123 -0.2603 -0.0315
   31MOL   H42722087   2.600   5.607   6.709  2.7440 -1.4590  0.3653
   31MOL   H42822088   2.471   5.600   6.831  0.6811 -1.0438  3.3355
   31MOL   H42922089   2.562   6.122   6.661  1.5290  3.2221 -0.5183
   31MOL   H43022090   2.712   6.047   6.602 -1.9128 -0.7179 -0.9751
   31MOL   H43122091   2.701   6.181   6.730 -0.5694 -1.1932  1.9237
   31MOL   H43222092   2.791   5.895   6.955  0.8455 -1.7267 -1.4924
   31MOL   H43322093   2.830   6.060   6.934 -0.9036 -0.1842 -0.4740
   31MOL   C43422094   3.597   6.584   7.045 -0.4118 -0.1873  0.0424
   31MOL   C43522095   3.483   6.678   6.989 -0.1626  0.3049 -0.1656
   31MOL   C43622096   3.358   6.598   6.958  0.4461 -0.5636  0.5675
   31MOL   C43722097   3.257   6.676   6.867 -0.0551 -0.5099 -0.6814
   31MOL   C43822098   3.122   6.597   6.883  0.3915  0.4936  0.0528
   31MOL   C43922099   3.125   6.456   6.811 -0.9208 -0.1305 -0.6579
   31MOL   C44022100   2.989   6.427   6.748  0.3382 -0.9708 -0.1119
   31MOL   C44122101   2.986   6.308   6.650 -0.6870 -0.4306  0.0355
   31MOL   O44222102   2.959   6.198   6.736  0.4757  0.1397  0.4669
   31MOL   C44322103   2.967   6.067   6.691 -0.4362 -0.2426 -0.4441
   31MOL   O44422104   3.002   6.038   6.575  0.0853  0.0207 -0.3804
   31MOL   C44522105   2.937   5.949   6.790  0.1367 -0.1664  0.1148
   31MOL   C44622106   2.917   5.822   6.700 -0.7444 -0.2993 -0.0224
   31MOL   C44722107   3.069   5.919   6.874  0.1573  0.0720 -0.0286
   31MOL   H44822108   3.563   6.542   7.140 -0.7874 -0.6956 -0.3124
   31MOL   H44922109   3.688   6.639   7.069  0.2826 -0.0914 -2.6941
   31MOL   H45022110   3.632   6.506   6.978  0.6976 -0.1696  0.5927
   31MOL   H45122111   3.515   6.731   6.900 -0.8064 -0.5869 -0.9334
   31MOL   H45222112   3.462   6.761   7.057 -2.1324 -1.5162  1.5273
   31MOL   H45322113   3.312   6.565   7.051  2.1752 -1.4677  1.1207
   31MOL   H45422114   3.394   6.505   6.914 -1.6378 -1.2190  0.1709
   31MOL   H45522115   3.286   6.689   6.763 -0.3814 -0.3314 -0.7517
   31MOL   H45622116   3.243   6.774   6.912 -1.9194 -1.2137  0.3322
   31MOL   H45722117   3.094   6.573   6.985  1.7520 -3.1443 -0.3526
   31MOL   H45822118   3.050   6.673   6.852  0.2909  1.4436  2.5202
   31MOL   H45922119   3.147   6.373   6.879  0.4428  1.5973  1.0734
   31MOL   H46022120   3.200   6.449   6.733  1.3462  0.3113  1.4108
   31MOL   H46122121   2.908   6.418   6.820  1.2210  0.1386  1.0401
   31MOL   H46222122   2.967   6.515   6.687  2.2989 -0.8627 -0.7044
   31MOL   H46322123   3.086   6.305   6.607 -1.1576 -0.9125 -1.0601
   31MOL   H46422124   2.900   6.307   6.582 -0.1331 -0.5018 -0.6743
   31MOL   H46522125   2.852   5.842   6.614 -1.5912  0.1063  0.7005
   31MOL   H46622126   3.016   5.799   6.661 -1.3593 -2.3765 -0.4302
   31MOL   H46722127   2.871   5.734   6.745 -3.2373  1.8361  1.7539
   31MOL   H46822128   3.146   5.873   6.812 -0.3033 -0.5339 -0.1546
   31MOL   H46922129   3.110   6.019   6.888 -0.9541  0.6456 -0.8387
   31MOL   C47022130   2.519   6.708   7.016  1.0236 -0.2545 -0.1329
   31MOL   C47122131   2.654   6.645   7.047 -0.0588  0.2254  0.5473
   31MOL   C47222132   2.675   6.581   7.182 -0.4161 -0.0941 -0.2099
   31MOL   C47322133   2.813   6.516   7.198  0.2913 -0.0972  0.1943
   31MOL   C47422134   2.829   6.441   7.329 -0.0454  0.0052 -1.2157
   31MOL   C47522135   2.968   6.379   7.345  0.3018  0.2116  0.1996
   31MOL   C47622136   3.021   6.281   7.236 -0.6609  0.4197  0.2553
   31MOL   C47722137   2.945   6.136   7.225 -0.3393 -0.3136 -0.1222
   31MOL   O47822138   2.995   6.058   7.127 -0.4426 -0.5311 -0.0309
   31MOL   C47922139   2.991   5.917   7.136 -0.2706 -0.3204  0.2452
   31MOL   O48022140   2.957   5.853   7.235 -0.7940  0.4591  0.9214
   31MOL   C48122141   3.067   5.844   7.014 -0.4198  1.2024 -0.6073
   31MOL   C48222142   3.015   5.700   6.997  0.3915  0.6227  0.0337
   31MOL   C48322143   3.226   5.822   7.060  0.0161  0.0241  1.0030
   31MOL   H48422144   2.445   6.628   7.014  0.2781  0.3451  2.1034
   31MOL   H48522145   2.527   6.748   6.915  0.5730 -2.9149 -1.2642
   31MOL   H48622146   2.486   6.785   7.084  0.1799 -0.7276  0.0032
   31MOL   H48722147   2.674   6.568   6.972  0.4674 -0.6963  1.6142
   31MOL   H48822148   2.723   6.728   7.034  0.5150  0.4961  4.5061
   31MOL   H48922149   2.669   6.650   7.266 -0.8871  1.6784 -1.6822
   31MOL   H49022150   2.601   6.502   7.189 -0.3262 -0.5487 -3.5943
   31MOL   H49122151   2.832   6.444   7.117  0.8948  1.9095 -1.4905
   31MOL   H49222152   2.882   6.599   7.184 -0.4381  0.9808  2.8300
   31MOL   H49322153   2.829   6.510   7.413  1.5905  0.3484 -1.4795
   31MOL   H49422154   2.760   6.362   7.357  1.6824 -0.5349  1.6444
   31MOL   H49522155   3.039   6.462   7.338 -1.4320  1.7192  0.2912
   31MOL   H49622156   2.981   6.352   7.449 -1.8015  0.1889  0.4754
   31MOL   H49722157   3.035   6.331   7.140  1.5394  2.2504  1.4749
   31MOL   H49822158   3.124   6.253   7.258 -1.2985 -0.0039  2.9636
   31MOL   H49922159   2.840   6.146   7.198 -0.3830  0.7470  0.4128
   31MOL   H50022160   2.957   6.075   7.315  1.1057  0.0167 -0.0749
   31MOL   H50122161   2.921   5.694   6.942  0.3063  1.6978  0.0550
   31MOL   H50222162   3.022   5.639   7.087 -0.0449  0.6573  0.0898
   31MOL   H50322163   3.087   5.653   6.930  0.7794  1.8691 -0.4502
   31MOL   H50422164   3.219   5.748   7.140 -0.4707 -0.2725  0.6906
   31MOL   H50522165   3.274   5.767   6.980  0.3260  0.8751  0.5977
   31MOL   C50622166   3.336   6.138   5.987 -0.9362 -0.2365 -0.2149
   31MOL   C50722167   3.427   6.219   6.078  0.0348 -0.6374 -0.1739
   31MOL   C50822168   3.425   6.166   6.226 -0.0980 -0.2411  0.2897
   31MOL   C50922169   3.519   6.249   6.314  0.3437  0.2376 -0.5475
   31MOL   C51022170   3.547   6.179   6.454 -0.5213  0.0064 -0.0058
   31MOL   C51122171   3.431   6.172   6.544  1.3214  0.9158  0.5690
   31MOL   C51222172   3.459   6.118   6.683 -0.1785  0.1006 -0.5677
   31MOL   C51322173   3.334   6.085   6.760  0.5970 -0.0787 -0.5708
   31MOL   O51422174   3.361   6.004   6.873 -0.4877  0.1199 -0.1352
   31MOL   C51522175   3.334   6.042   6.997  0.7760  0.1633  0.2561
   31MOL   O51622176   3.315   6.157   7.027 -0.2086  0.1790 -0.0738
   31MOL   C51722177   3.333   5.928   7.100 -0.3804  0.6211  0.5104
   31MOL   C51822178   3.292   5.983   7.242  0.6939  0.4250  0.3260
   31MOL   C51922179   3.474   5.855   7.098  0.2046  0.2145  0.3246
   31MOL   H52022180   3.233   6.144   6.020 -0.9643  0.2253 -0.3847
   31MOL   H52122181   3.372   6.035   5.985 -0.4206 -0.0663  0.2179
   31MOL   H52222182   3.333   6.178   5.886 -1.7997 -0.6001 -0.3383
   31MOL   H52322183   3.384   6.319   6.073  0.8372 -0.2607  0.3673
   31MOL   H52422184   3.528   6.234   6.040  0.1645  0.4180  0.5602
   31MOL   H52522185   3.321   6.159   6.260 -0.2037 -0.0123  0.0141
   31MOL   H52622186   3.475   6.070   6.230  1.5002  0.6021  0.7149
   31MOL   H52722187   3.616   6.280   6.275  1.2009  0.0764  1.3809
   31MOL   H52822188   3.466   6.339   6.348 -0.3575 -1.0637  1.9646
   31MOL   H52922189   3.600   6.087   6.428 -0.1498  0.3279 -0.4100
   31MOL   H53022190   3.618   6.252   6.494 -0.4584  0.3626 -0.7448
   31MOL   H53122191   3.355   6.109   6.498  1.4043  0.9951  0.3225
   31MOL   H53222192   3.376   6.265   6.559 -0.5739 -0.2856  1.3132
   31MOL   H53322193   3.530   6.177   6.741 -0.3872 -0.7145  0.5307
   31MOL   H53422194   3.511   6.023   6.677 -1.8216 -0.9441  1.1881
   31MOL   H53522195   3.270   6.029   6.692 -2.3545 -0.8218  2.7008
   31MOL   H53622196   3.267   6.168   6.784  0.9056  0.2142 -0.7112
   31MOL   H53722197   3.208   6.050   7.258  0.8052  0.9419 -1.2213
   31MOL   H53822198   3.373   6.036   7.294 -1.1634  2.8413  0.8703
   31MOL   H53922199   3.262   5.897   7.302 -1.1797 -0.6548 -2.1102
   31MOL   H54022200   3.471   5.763   7.157  0.9621  0.5419  0.8941
   31MOL   H54122201   3.489   5.816   6.997 -1.9023 -0.6879  0.3454
   31MOL   C54222202   3.914   6.850   7.641  0.2910  0.0368 -0.3384
   31MOL   C54322203   3.838   6.739   7.556  0.4037 -0.1254 -0.1685
   31MOL   C54422204   3.884   6.604   7.602  0.0940  0.0057  0.0524
   31MOL   C54522205   3.821   6.494   7.520  0.4466  0.3340 -0.6256
   31MOL   C54622206   3.888   6.360   7.553 -0.0515 -0.1783  0.4553
   31MOL   C54722207   3.803   6.244   7.505  0.3606 -0.0135  0.2009
   31MOL   C54822208   3.861   6.101   7.523 -0.3352  0.2224 -0.4685
   31MOL   C54922209   3.751   5.999   7.486 -0.3218  0.8218  0.1361
   31MOL   O55022210   3.718   6.008   7.347 -0.2196  0.6059  0.0902
   31MOL   C55122211   3.622   5.935   7.300  0.2147  0.7034  0.4667
   31MOL   O55222212   3.554   5.862   7.367 -0.2007  0.3863 -0.3868
   31MOL   C55322213   3.613   5.924   7.144 -0.4268  0.5720  0.7851
   31MOL   C55422214   3.634   6.062   7.079 -0.0407  0.0422  0.2731
   31MOL   C55522215   3.733   5.823   7.112 -1.1558  0.1905 -0.0265
   31MOL   H55622216   4.022   6.852   7.629  0.2734  0.3911 -0.4268
   31MOL   H55722217   3.891   6.838   7.747  0.6559 -0.7098 -0.3376
   31MOL   H55822218   3.880   6.948   7.607 -1.6241 -0.6463 -0.4833
   31MOL   H55922219   3.729   6.749   7.553  0.5649  1.6063 -1.3676
   31MOL   H56022220   3.860   6.746   7.450 -1.0711 -1.3848 -0.5704
   31MOL   H56122221   3.881   6.591   7.710  1.0825 -0.7492 -0.0016
   31MOL   H56222222   3.991   6.600   7.582  0.7595 -1.8078  3.6110
   31MOL   H56322223   3.716   6.479   7.548  0.1836 -1.5059 -2.4600
   31MOL   H56422224   3.840   6.519   7.416  1.8830 -0.2359 -0.5010
   31MOL   H56522225   3.907   6.361   7.660 -1.9528 -0.5379  0.8146
   31MOL   H56622226   3.983   6.361   7.500  0.3053  2.3580  1.1123
   31MOL   H56722227   3.704   6.243   7.551  0.1057 -0.5042 -0.3652
   31MOL   H56822228   3.774   6.266   7.402 -1.2460 -1.1357  0.4005
   31MOL   H56922229   3.954   6.090   7.468  0.0878  1.0887  0.0722
   31MOL   H57022230   3.885   6.087   7.628 -2.3215 -0.0541 -0.0294
   31MOL   H57122231   3.669   6.022   7.554  0.7703 -0.0530  1.7959
   31MOL   H57222232   3.760   5.894   7.514 -0.1205  0.4320 -1.3593
   31MOL   H57322233   3.609   6.073   6.973  1.7637 -0.2332 -0.1925
   31MOL   H57422234   3.735   6.100   7.090 -0.4996  0.4140  3.8288
   31MOL   H57522235   3.570   6.135   7.128 -2.3129 -1.1429 -0.8127
   31MOL   H57622236   3.701   5.727   7.153 -1.3883  0.8615  1.3884
   31MOL   H57722237   3.818   5.839   7.180 -0.6838  1.1596 -0.8340
   31MOL   C57822238   4.272   6.862   7.424  0.3737 -0.3989 -0.4518
   31MOL   C57922239   4.308   6.756   7.323 -0.6466 -0.4820 -0.1097
   31MOL   C58022240   4.220   6.631   7.342  0.1949  0.5581 -0.1217
   31MOL   C58122241   4.238   6.517   7.241  0.3146 -0.6397 -0.7532
   31MOL   C58222242   4.142   6.396   7.258  0.7784 -0.3371  0.7218
   31MOL   C58322243   4.138   6.300   7.135 -0.0598 -0.6708  0.7226
   31MOL   C58422244   4.036   6.192   7.153 -0.0033  0.0998 -0.6256
   31MOL   C58522245   4.046   6.089   7.037 -0.4278 -0.7236 -0.7430
   31MOL   O58622246   3.951   5.986   7.047 -0.1904  0.2330 -0.1402
   31MOL   C58722247   3.876   5.944   6.947 -0.4618  0.2485  0.5812
   31MOL   O58822248   3.854   5.997   6.843 -0.0463  0.0271  0.0226
   31MOL   C58922249   3.804   5.805   6.975  0.0872  0.2076 -0.2446
   31MOL   C59022250   3.697   5.768   6.872 -0.1196 -0.0129 -0.1177
   31MOL   C59122251   3.914   5.701   7.016 -0.1574 -0.0894  0.4159
   31MOL   H59222252   4.174   6.907   7.411  0.0477 -0.4947  1.5338
   31MOL   H59322253   4.351   6.938   7.417 -1.8114  1.7770 -2.4257
   31MOL   H59422254   4.274   6.822   7.526 -0.5387 -0.3390 -0.4096
   31MOL   H59522255   4.410   6.722   7.337 -0.6751 -1.3919 -1.9686
   31MOL   H59622256   4.293   6.808   7.229  2.5736  0.0911 -0.3456
   31MOL   H59722257   4.122   6.677   7.329  0.3793  1.2361  0.8182
   31MOL   H59822258   4.237   6.600   7.445 -1.0430 -1.3516 -0.4691
   31MOL   H59922259   4.334   6.466   7.243  1.9871  2.4661  1.4748
   31MOL   H60022260   4.236   6.566   7.144  0.3743  0.0899 -0.3936
   31MOL   H60122261   4.039   6.430   7.263  1.3285  1.5924 -0.5568
   31MOL   H60222262   4.158   6.341   7.351 -0.1963  0.5251  1.3983
   31MOL   H60322263   4.239   6.260   7.125 -0.2361 -1.2682  1.3745
   31MOL   H60422264   4.107   6.351   7.043  0.3316 -2.2195 -0.2863
   31MOL   H60522265   3.936   6.235   7.148  0.1653  0.3851 -1.7322
   31MOL   H60622266   4.060   6.143   7.248  0.1025 -0.9490 -1.1801
   31MOL   H60722267   4.047   6.143   6.943  1.4130 -1.9586 -1.4636
   31MOL   H60822268   4.141   6.041   7.059 -0.2218  0.2595  0.5583
   31MOL   H60922269   3.738   5.755   6.772  2.1309  2.7883  0.3751
   31MOL   H61022270   3.655   5.672   6.901 -0.0368 -0.3985 -1.2429
   31MOL   H61122271   3.628   5.852   6.863 -0.0745 -0.0042 -0.3894
   31MOL   H61222272   3.872   5.622   7.078 -0.7631 -1.1859 -1.3628
   31MOL   H61322273   3.990   5.756   7.072  0.6341 -0.9769  0.2234
   31MOL   C61422274   4.417   4.709   6.682  0.0227 -0.8915  0.7583
   31MOL   C61522275   4.518   4.817   6.659 -0.5292 -0.4542  0.1166
   31MOL   C61622276   4.454   4.945   6.618 -0.3859  0.2300 -0.1036
   31MOL   C61722277   4.334   4.994   6.701  0.3088  0.6177  0.2069
   31MOL   C61822278   4.257   5.101   6.627  0.7821 -0.1809  0.4794
   31MOL   C61922279   4.131   5.167   6.698  0.1219  0.2000  0.3350
   31MOL   C62022280   4.050   5.255   6.598 -0.5005  0.0459  0.2458
   31MOL   C62122281   3.935   5.334   6.660  0.3584 -0.3824 -0.2296
   31MOL   O62222282   3.988   5.430   6.750 -0.9178  0.2327 -0.4717
   31MOL   C62322283   3.916   5.498   6.850 -0.0110  0.0780  0.0875
   31MOL   O62422284   3.803   5.471   6.887  0.4262 -0.5597  0.0287
   31MOL   C62522285   3.996   5.609   6.918 -0.3014 -0.5813  0.2523
   31MOL   C62622286   4.048   5.698   6.797 -0.5215  0.5323  0.1042
   31MOL   C62722287   4.121   5.543   6.995 -0.0590 -0.3389 -0.1178
   31MOL   H62822288   4.372   4.711   6.782 -1.9682 -0.5969 -0.1123
   31MOL   H62922289   4.452   4.612   6.649 -0.6427 -0.4593 -1.2818
   31MOL   H63022290   4.333   4.729   6.615 -1.0715  0.8514  2.5801
   31MOL   H63122291   4.577   4.832   6.749 -2.6141  0.8498  1.3155
   31MOL   H63222292   4.589   4.795   6.580  0.5315  1.3148  0.5513
   31MOL   H63322293   4.419   4.934   6.516  2.3921 -0.8789 -0.9992
   31MOL   H63422294   4.528   5.025   6.625 -1.6121  1.2327  2.0729
   31MOL   H63522295   4.379   5.035   6.792  0.5600 -0.6635  0.6619
   31MOL   H63622296   4.271   4.909   6.725  3.2621 -2.1161 -1.4079
   31MOL   H63722297   4.328   5.176   6.592  1.7861 -0.4299  1.9303
   31MOL   H63822298   4.226   5.053   6.534  0.3995 -2.9807  1.9806
   31MOL   H63922299   4.066   5.088   6.734  1.9551  0.0371  3.5525
   31MOL   H64022300   4.169   5.211   6.791 -0.1511 -0.0105  0.5460
   31MOL   H64122301   4.021   5.195   6.512  1.9895 -0.3241 -0.3855
   31MOL   H64222302   4.116   5.328   6.552 -0.5689  0.8900  1.4594
   31MOL   H64322303   3.894   5.380   6.570  0.4311  0.9674  0.4205
   31MOL   H64422304   3.875   5.258   6.710 -0.0224  1.0867  1.5753
   31MOL   H64522305   4.106   5.781   6.836  1.9628 -1.2160  0.2017
   31MOL   H64622306   3.966   5.725   6.730 -0.6168  0.7432  0.3062
   31MOL   H64722307   4.117   5.641   6.734  0.6461  0.2170  1.6637
   31MOL   H64822308   4.193   5.625   6.999 -0.1686 -0.2417 -0.1187
   31MOL   H64922309   4.165   5.468   6.930  0.0574  0.0542 -0.4990
   31MOL   C65022310   3.893   5.926   0.320  0.1416  0.1319 -0.2922
   31MOL   C65122311   4.041   5.907   0.277  0.1164 -0.1427  0.0150
   31MOL   C65222312   4.057   5.862   0.132  0.1882  0.1918  0.1370
   31MOL   C65322313   4.197   5.892   0.075  0.6446 -0.4243  0.4348
   31MOL   C65422314   4.240   5.809   7.730 -0.0470  0.1142 -0.0398
   31MOL   C65522315   4.171   5.843   7.598 -0.4142 -0.1858 -0.8679
   31MOL   C65622316   4.215   5.755   7.482  0.8906 -0.1705 -0.6403
   31MOL   C65722317   4.126   5.774   7.357  0.3588  0.1341  0.3267
   31MOL   O65822318   4.152   5.677   7.258  0.2329  0.2488 -0.2562
   31MOL   C65922319   4.075   5.561   7.250  0.4810  0.0064  0.3624
   31MOL   O66022320   3.981   5.543   7.324 -0.0695 -0.1217 -0.0606
   31MOL   C66122321   4.115   5.470   7.135  0.0030  0.3679  0.1035
   31MOL   C66222322   4.257   5.421   7.158 -0.0563 -0.3049 -0.1551
   31MOL   C66322323   4.014   5.350   7.121  0.1896 -0.0323 -0.1072
   31MOL   H66422324   3.892   5.964   0.422 -0.5179  1.8551 -0.9317
   31MOL   H66522325   3.838   5.832   0.319 -0.9460  0.7315  1.3077
   31MOL   H66622326   3.851   6.000   0.252  0.4279  1.1211  0.5853
   31MOL   H66722327   4.092   5.838   0.343  0.2411 -1.1379 -1.0906
   31MOL   H66822328   4.097   5.999   0.292  1.1569 -0.7130 -0.3657
   31MOL   H66922329   3.986   5.916   0.069 -1.4601 -1.7985  0.2304
   31MOL   H67022330   4.026   5.759   0.118 -1.3944  0.6957 -0.1503
   31MOL   H67122331   4.271   5.855   0.147  0.4104 -1.5539  0.1017
   31MOL   H67222332   4.207   5.997   0.044 -1.5507 -0.2386  0.3027
   31MOL   H67322333   4.227   5.705   7.758 -0.7135  0.3882  0.6588
   31MOL   H67422334   4.348   5.821   7.715 -0.3178  4.8140  0.8783
   31MOL   H67522335   4.065   5.827   7.615 -0.1663  0.6899  1.6307
   31MOL   H67622336   4.196   5.943   7.564 -0.2661 -0.3944 -1.3707
   31MOL   H67722337   4.213   5.649   7.508 -0.6720 -0.2372 -0.9268
   31MOL   H67822338   4.320   5.775   7.464  0.4300  1.3095 -1.7731
   31MOL   H67922339   4.144   5.869   7.306  0.0353 -1.0627 -2.0891
   31MOL   H68022340   4.021   5.778   7.386 -0.6735 -0.4423 -3.1463
   31MOL   H68122341   4.336   5.493   7.137  1.8900 -3.1549 -3.1111
   31MOL   H68222342   4.288   5.345   7.086  2.7248 -1.0864  1.7904
   31MOL   H68322343   4.259   5.377   7.258 -1.0505 -0.2737 -0.1194
   31MOL   H68422344   3.913   5.388   7.104  0.4633  0.7652  0.0842
   31MOL   H68522345   4.032   5.311   7.021  1.0183 -0.7308  0.3096
   31MOL   C68622346   3.046   5.377   6.748  0.7397  0.3183 -0.0277
   31MOL   C68722347   3.105   5.340   6.885  0.1572 -0.7733  0.1166
   31MOL   C68822348   3.252   5.389   6.918 -0.0917  0.3343 -0.5053
   31MOL   C68922349   3.301   5.317   7.049  0.5871  0.1328 -0.0046
   31MOL   C69022350   3.434   5.376   7.111 -0.5647  0.1209 -0.4006
   31MOL   C69122351   3.477   5.312   7.247 -0.0972 -0.2157 -0.1142
   31MOL   C69222352   3.513   5.162   7.243  0.4501  0.3961 -0.1328
   31MOL   C69322353   3.643   5.127   7.151  0.2503  0.2578 -0.6741
   31MOL   O69422354   3.760   5.183   7.207 -0.1612  0.0928  0.0092
   31MOL   C69522355   3.878   5.143   7.160 -0.4712 -0.3028 -0.2025
   31MOL   O69622356   3.891   5.047   7.086  0.0995  0.1788  0.3494
   31MOL   C69722357   3.992   5.231   7.219 -0.9208 -0.3307 -0.1979
   31MOL   C69822358   3.971   5.271   7.373  0.3971  0.5656 -0.1239
   31MOL   C69922359   4.108   5.138   7.204 -0.6114  0.2129 -0.7305
   31MOL   H70022360   2.942   5.346   6.753  0.0651  2.7845  1.9016
   31MOL   H70122361   3.102   5.331   6.666 -0.8458  0.3378 -1.1487
   31MOL   H70222362   3.052   5.481   6.718  0.8855  0.5140  0.6778
   31MOL   H70322363   3.103   5.232   6.895  2.9213 -0.9454 -0.9366
   31MOL   H70422364   3.040   5.370   6.968 -0.0462  1.8895 -0.9542
   31MOL   H70522365   3.269   5.497   6.923 -1.1233  0.5173 -0.6850
   31MOL   H70622366   3.323   5.363   6.840 -1.9798 -1.6624 -1.6138
   31MOL   H70722367   3.321   5.214   7.020  1.2405  0.2927 -0.1469
   31MOL   H70822368   3.222   5.314   7.124 -0.1578  0.1950 -0.7873
   31MOL   H70922369   3.423   5.481   7.137  1.1062  0.5433 -1.3390
   31MOL   H71022370   3.518   5.361   7.043  1.3409 -1.2905  2.2032
   31MOL   H71122371   3.570   5.362   7.274 -1.5292  2.6664 -0.3166
   31MOL   H71222372   3.402   5.325   7.325 -1.2397  0.4016 -1.2923
   31MOL   H71322373   3.526   5.125   7.344 -0.7158 -1.7742 -0.7615
   31MOL   H71422374   3.438   5.107   7.187  0.2059  0.0125  0.5759
   31MOL   H71522375   3.618   5.159   7.050  2.6576  1.7152 -0.8388
   31MOL   H71622376   3.660   5.019   7.147  2.2052  0.5173  0.1169
   31MOL   H71722377   3.883   5.334   7.385 -0.3763 -0.2906 -1.1925
   31MOL   H71822378   3.953   5.177   7.425 -0.2804 -0.2455 -1.8075
   31MOL   H71922379   4.061   5.308   7.424 -0.0381  0.4656  0.7212
   31MOL   H72022380   4.185   5.173   7.273 -0.1061 -1.1074 -0.6193
   31MOL   H72122381   4.151   5.120   7.105  1.1361 -0.2224  0.0937
   31MOL   H72222382   4.096   5.041   7.252 -2.5481 -0.2760 -2.1343
   32MOL     C122383   7.673   7.246   6.406 -0.2164 -0.2251 -0.3702
   32MOL     C222384   7.544   7.284   6.336 -1.2000 -0.8796 -0.5845
   32MOL     C322385   7.516   7.198   6.219 -0.3878 -0.5583  0.2825
   32MOL     C422386   7.367   7.208   6.175 -0.4267 -0.0700  0.0088
   32MOL     C522387   7.277   7.130   6.270  0.0886 -0.4564  0.6120
   32MOL     C622388   7.141   7.110   6.211  0.4560 -0.0486  0.6294
   32MOL     C722389   7.035   7.054   6.306 -0.0828  0.8795 -0.0242
   32MOL     C822390   6.898   7.030   6.229 -0.0956 -0.2383  0.3811
   32MOL     O922391   6.818   6.996   6.335  0.0604  0.3407  0.0214
   32MOL    C1022392   6.688   6.977   6.320  0.3679  0.2257 -0.3721
   32MOL    O1122393   6.629   6.993   6.214  0.4659 -0.4781 -0.8454
   32MOL    C1222394   6.607   6.942   6.449 -0.1914  0.8543  0.5630
   32MOL    C1322395   6.507   7.054   6.479  0.1952 -0.2470  0.3507
   32MOL    C1422396   6.535   6.803   6.447  0.4352 -0.5941 -0.3225
   32MOL    H1522397   7.672   7.139   6.426 -1.3054 -0.1993 -0.2668
   32MOL    H1622398   7.692   7.308   6.494  2.8854  0.7736 -1.6868
   32MOL    H1722399   7.758   7.245   6.338  2.0770 -0.0364  2.3901
   32MOL    H1822400   7.560   7.388   6.307 -1.6668 -1.0406 -1.4308
   32MOL    H1922401   7.466   7.270   6.411  0.0675 -2.3100  0.4975
   32MOL    H2022402   7.576   7.238   6.138 -0.1593  0.9735  1.1996
   32MOL    H2122403   7.554   7.096   6.231  1.8724 -0.0010 -1.7884
   32MOL    H2222404   7.342   7.314   6.163 -0.1119 -0.0815 -0.7961
   32MOL    H2322405   7.355   7.175   6.072 -1.7078  3.4786 -1.0827
   32MOL    H2422406   7.269   7.188   6.363  0.6871 -0.4908  0.6889
   32MOL    H2522407   7.320   7.034   6.297  0.3947 -0.3215  0.6145
   32MOL    H2622408   7.155   7.039   6.130 -1.0107  0.2874  0.0512
   32MOL    H2722409   7.101   7.200   6.163  0.8340 -1.1429 -1.7870
   32MOL    H2822410   7.020   7.116   6.395  0.2082  2.1640 -0.8470
   32MOL    H2922411   7.075   6.959   6.339  0.2825  1.3863  1.0285
   32MOL    H3022412   6.898   6.967   6.140 -0.1888 -0.9310  0.8673
   32MOL    H3122413   6.869   7.131   6.199 -0.7289 -0.0766  1.5162
   32MOL    H3222414   6.447   7.042   6.570  0.3631 -0.4160  0.4387
   32MOL    H3322415   6.565   7.143   6.502  2.1574 -1.2157 -0.7822
   32MOL    H3422416   6.434   7.064   6.398  1.7697 -1.7496 -1.2753
   32MOL    H3522417   6.474   6.793   6.357  1.6567  0.2765 -1.2603
   32MOL    H3622418   6.479   6.802   6.540  0.7531  0.5925 -0.1082
   32MOL    H3722419   6.685   6.941   6.524 -1.5529  1.3738  2.0123
   32MOL    C3822420   6.163   6.549   7.172  0.4966 -0.7076 -0.6647
   32MOL    C3922421   6.172   6.533   7.018 -0.1624 -0.1138  0.0012
   32MOL    C4022422   6.317   6.534   6.969  0.0398  0.3872 -0.3131
   32MOL    C4122423   6.372   6.675   6.991  0.7142 -0.0608  0.6714
   32MOL    C4222424   6.490   6.718   6.903  0.1805 -0.1325 -0.6480
   32MOL    C4322425   6.619   6.678   6.968 -0.2813 -0.1915 -0.4047
   32MOL    C4422426   6.745   6.743   6.906 -0.8942 -0.0720  0.2098
   32MOL    C4522427   6.794   6.682   6.780  0.5429 -0.4402  0.4551
   32MOL    O4622428   6.696   6.687   6.678 -0.1297  0.7151  0.4829
   32MOL    C4722429   6.735   6.678   6.554 -0.0013 -0.1355  0.2997
   32MOL    O4822430   6.854   6.693   6.517 -0.0374 -0.3382 -0.8219
   32MOL    C4922431   6.612   6.668   6.451  0.4172  0.5898  0.1552
   32MOL    C5022432   6.669   6.640   6.308  0.4025  0.0086  0.2944
   32MOL    C5122433   6.506   6.559   6.494 -1.1226  0.7850 -0.4070
   32MOL    H5222434   6.214   6.639   7.205  0.1156 -0.1937 -1.4557
   32MOL    H5322435   6.212   6.470   7.229  3.1872  1.2282 -0.1782
   32MOL    H5422436   6.058   6.558   7.199  1.2341  4.1204  0.9657
   32MOL    H5522437   6.119   6.617   6.974 -1.7627  0.0404  2.1495
   32MOL    H5622438   6.117   6.444   6.987 -1.2498  0.8724 -0.9335
   32MOL    H5722439   6.374   6.453   7.015  0.4655  0.2306 -1.1083
   32MOL    H5822440   6.305   6.494   6.868  3.9590  0.0535 -0.7313
   32MOL    H5922441   6.407   6.695   7.092  0.9154  1.3312  0.3390
   32MOL    H6022442   6.294   6.748   6.973 -1.7636 -2.0682  2.9415
   32MOL    H6122443   6.475   6.673   6.805 -0.0870 -0.5288 -0.4259
   32MOL    H6222444   6.487   6.825   6.880  5.1636  0.0304 -0.9291
   32MOL    H6322445   6.615   6.698   7.076  0.2951  1.9136 -0.7512
   32MOL    H6422446   6.632   6.570   6.963  0.4738 -0.0735 -1.0508
   32MOL    H6522447   6.832   6.745   6.971 -3.3075  2.0283  3.6063
   32MOL    H6622448   6.726   6.851   6.902  2.7534  0.5708 -1.6108
   32MOL    H6722449   6.829   6.579   6.793  0.4558 -0.3886  1.1120
   32MOL    H6822450   6.883   6.741   6.756  1.2401 -0.8919  1.8873
   32MOL    H6922451   6.707   6.539   6.297  0.2120  0.1579 -2.0284
   32MOL    H7022452   6.592   6.645   6.231  0.8395 -0.6382 -0.1806
   32MOL    H7122453   6.742   6.709   6.265  0.5895 -1.4605 -1.7928
   32MOL    H7222454   6.415   6.585   6.440 -1.6819 -0.8727 -0.2920
   32MOL    H7322455   6.480   6.566   6.599 -1.7855 -0.4212 -0.4799
   32MOL    C7422456   6.158   7.119   5.849 -0.2671 -0.4601 -0.2038
   32MOL    C7522457   6.300   7.132   5.924  0.4495 -0.0482 -0.1049
   32MOL    C7622458   6.382   7.002   5.923 -0.2060 -0.3884  0.0935
   32MOL    C7722459   6.316   6.890   6.011  0.2699  0.4170  0.3486
   32MOL    C7822460   6.385   6.750   5.983 -0.4576 -0.2594  0.1918
   32MOL    C7922461   6.348   6.636   6.074 -0.0288  0.4878 -0.0508
   32MOL    C8022462   6.433   6.515   6.036 -0.3280  0.4839 -0.0016
   32MOL    C8122463   6.407   6.386   6.126  0.6954 -0.7844 -0.6572
   32MOL    O8222464   6.439   6.417   6.262 -0.8958 -0.3309 -0.0419
   32MOL    C8322465   6.538   6.357   6.326  0.0214  0.1391 -0.0487
   32MOL    O8422466   6.612   6.270   6.293 -0.4916 -0.0844 -0.0087
   32MOL    C8522467   6.530   6.399   6.482  0.0015  0.2723  0.3478
   32MOL    C8622468   6.664   6.369   6.544  0.3327  0.1475 -0.2669
   32MOL    C8722469   6.426   6.308   6.565 -0.2077 -0.0270 -0.3687
   32MOL    H8822470   6.094   7.206   5.865  1.3699  0.8618 -0.6489
   32MOL    H8922471   6.101   7.034   5.885 -0.6543 -0.0782  0.0950
   32MOL    H9022472   6.176   7.119   5.742 -0.0129 -0.6821 -0.1603
   32MOL    H9122473   6.278   7.156   6.028 -1.1708 -0.0794 -0.4267
   32MOL    H9222474   6.355   7.216   5.881 -0.5300  0.1215 -1.0529
   32MOL    H9322475   6.400   6.968   5.821  0.5910  0.4452 -0.0414
   32MOL    H9422476   6.482   7.024   5.959 -0.7606 -0.6891  1.8398
   32MOL    H9522477   6.214   6.862   5.983  0.9280 -1.7171 -0.0118
   32MOL    H9622478   6.321   6.914   6.117 -0.1328  0.4097  0.3690
   32MOL    H9722479   6.371   6.724   5.879 -0.2863  1.4063 -0.2674
   32MOL    H9822480   6.493   6.764   5.986 -0.6899  1.4554  3.0765
   32MOL    H9922481   6.352   6.656   6.181 -0.0224  0.3142 -0.0178
   32MOL   H10022482   6.246   6.602   6.057  0.9610 -1.1724 -2.9044
   32MOL   H10122483   6.419   6.495   5.930  1.6475  2.5721 -0.6972
   32MOL   H10222484   6.538   6.531   6.059 -0.5015 -0.5873  1.6314
   32MOL   H10322485   6.478   6.310   6.094 -0.5198 -2.6295  0.8907
   32MOL   H10422486   6.312   6.334   6.116  0.6883 -0.7407 -0.8121
   32MOL   H10522487   6.669   6.391   6.651 -1.2920 -1.6765  0.2180
   32MOL   H10622488   6.747   6.411   6.488  0.0988  2.2296  0.8901
   32MOL   H10722489   6.682   6.262   6.533  0.2547 -0.0326  1.3105
   32MOL   H10822490   6.477   6.216   6.596 -1.3352 -0.6178 -0.2288
   32MOL   H10922491   6.410   6.360   6.659 -2.4697 -0.3950 -0.5278
   32MOL   C11022492   6.518   5.854   7.037  0.4392  0.5094  0.2608
   32MOL   C11122493   6.514   5.748   6.928 -0.3820  0.3349 -0.1144
   32MOL   C11222494   6.484   5.803   6.791  0.2359  0.4410 -0.2084
   32MOL   C11322495   6.484   5.689   6.685 -0.6829  0.9770  0.6969
   32MOL   C11422496   6.468   5.742   6.542  0.1123 -0.2025  0.0591
   32MOL   C11522497   6.566   5.851   6.495  0.0837 -0.8618  0.6889
   32MOL   C11622498   6.538   5.909   6.351 -0.9710 -0.1916  0.6320
   32MOL   C11722499   6.394   5.959   6.330  0.0307 -0.8480 -0.1383
   32MOL   O11822500   6.370   6.057   6.425  0.0898  0.6972  0.2607
   32MOL   C11922501   6.297   6.167   6.402 -0.3388 -0.2658 -0.0595
   32MOL   O12022502   6.255   6.194   6.290 -0.2225  0.3233  0.3368
   32MOL   C12122503   6.280   6.267   6.523 -0.3858 -0.7326 -0.1090
   32MOL   C12222504   6.205   6.397   6.477 -0.2261  0.0103  0.2701
   32MOL   C12322505   6.216   6.196   6.651 -0.0584  0.5269  0.4399
   32MOL   H12422506   6.449   5.938   7.040 -0.1750  0.1252 -2.2078
   32MOL   H12522507   6.516   5.805   7.135 -1.7002 -0.7594 -0.3973
   32MOL   H12622508   6.620   5.890   7.048  0.6634 -0.1353  0.3685
   32MOL   H12722509   6.450   5.664   6.957  0.7662  0.5275  3.1662
   32MOL   H12822510   6.615   5.707   6.921 -0.5431 -0.3661  1.4462
   32MOL   H12922511   6.572   5.867   6.779 -0.8508  1.9953 -0.1155
   32MOL   H13022512   6.388   5.856   6.784  0.5970  1.0955 -0.2842
   32MOL   H13122513   6.576   5.632   6.695 -1.7870 -0.5619  2.7427
   32MOL   H13222514   6.404   5.615   6.694 -0.0808 -0.5089 -4.5435
   32MOL   H13322515   6.372   5.794   6.543 -0.5864 -1.4572  0.2648
   32MOL   H13422516   6.457   5.673   6.458 -3.7342  1.3048 -0.7941
   32MOL   H13522517   6.539   5.934   6.561  0.4901 -2.0444  2.3816
   32MOL   H13622518   6.668   5.815   6.506  0.8883  1.0425 -0.2733
   32MOL   H13722519   6.562   5.841   6.270 -0.8344  0.7009 -0.0933
   32MOL   H13822520   6.597   6.000   6.336 -0.8264 -0.5172 -0.7470
   32MOL   H13922521   6.385   5.993   6.227 -0.4274 -1.4109 -0.2931
   32MOL   H14022522   6.324   5.877   6.347  0.7143 -1.1063  1.5928
   32MOL   H14122523   6.227   6.427   6.374 -0.8205  2.9161  0.9490
   32MOL   H14222524   6.099   6.371   6.478 -0.7882  1.9654 -2.2688
   32MOL   H14322525   6.212   6.484   6.543 -0.0819 -0.6561  1.1429
   32MOL   H14422526   6.233   6.260   6.737  0.8219 -1.0324  1.4446
   32MOL   H14522527   6.284   6.112   6.667 -1.9219 -1.7593 -2.8801
   32MOL   C14622528   5.718   6.050   5.961 -0.0447 -0.0378 -0.6794
   32MOL   C14722529   5.606   6.053   6.059  0.3675 -0.2584 -0.1479
   32MOL   C14822530   5.630   6.134   6.184 -0.0148  0.1018 -1.1060
   32MOL   C14922531   5.529   6.118   6.298 -0.3220  0.2250  0.9078
   32MOL   C15022532   5.532   6.237   6.392  0.6653  0.1933 -0.2026
   32MOL   C15122533   5.642   6.210   6.493  0.2737  0.6129  1.0916
   32MOL   C15222534   5.677   6.332   6.580 -0.0826  0.5602  0.6109
   32MOL   C15322535   5.728   6.282   6.717  0.2184 -0.1134 -0.2796
   32MOL   O15422536   5.839   6.208   6.679 -0.0481 -0.4222  0.7717
   32MOL   C15522537   5.969   6.252   6.700  0.0055  0.1544 -0.1937
   32MOL   O15622538   5.993   6.371   6.737 -0.0690 -0.3770  0.3424
   32MOL   C15722539   6.072   6.141   6.666  0.1346  0.0345 -0.4974
   32MOL   C15822540   6.027   6.078   6.537 -0.6334  0.0699 -0.0383
   32MOL   C15922541   6.069   6.024   6.775 -0.3124  1.3320  0.3555
   32MOL   H16022542   5.800   5.997   6.009 -0.0632 -0.8327 -1.5043
   32MOL   H16122543   5.760   6.147   5.933  3.4643 -1.1005  0.5971
   32MOL   H16222544   5.706   5.974   5.884  1.7012 -0.5345 -0.4800
   32MOL   H16322545   5.512   6.075   6.009  0.7088  1.3447 -0.1224
   32MOL   H16422546   5.592   5.948   6.085  0.1962 -0.3008 -0.4068
   32MOL   H16522547   5.622   6.235   6.144 -0.4477 -0.4287 -2.3735
   32MOL   H16622548   5.735   6.120   6.213  0.2649  0.2171 -2.0473
   32MOL   H16722549   5.431   6.102   6.254  0.6302 -3.5700 -0.0224
   32MOL   H16822550   5.541   6.028   6.357 -0.1501  0.6439  1.5207
   32MOL   H16922551   5.438   6.250   6.447  1.0541 -0.8932  0.7210
   32MOL   H17022552   5.559   6.331   6.344  1.9629 -0.8782 -1.5877
   32MOL   H17122553   5.724   6.169   6.433 -0.5256  0.0481  0.3697
   32MOL   H17222554   5.604   6.135   6.562 -0.2815  1.6380  1.9109
   32MOL   H17322555   5.750   6.398   6.535  0.4700 -0.5602 -0.1558
   32MOL   H17422556   5.582   6.378   6.608 -2.5036 -3.0497 -1.1991
   32MOL   H17522557   5.754   6.362   6.786 -0.2536 -0.9415  0.8685
   32MOL   H17622558   5.664   6.205   6.760  1.3489 -1.9991 -1.8522
   32MOL   H17722559   5.924   6.043   6.527 -0.2894 -0.8996 -0.2616
   32MOL   H17822560   6.094   5.997   6.509  1.1841  0.8554  1.8805
   32MOL   H17922561   6.042   6.147   6.454  0.6951  0.1758  0.2849
   32MOL   H18022562   6.126   5.938   6.741 -1.7479 -0.0311  1.2942
   32MOL   H18122563   5.971   5.977   6.782  0.2838  0.2825  1.9949
   32MOL   C18222564   6.781   5.970   7.484 -0.2126 -0.4213  0.0101
   32MOL   C18322565   6.641   5.982   7.418  0.4826 -0.2848  0.2256
   32MOL   C18422566   6.525   6.029   7.498 -0.2971 -0.5973  0.0083
   32MOL   C18522567   6.389   6.022   7.419 -0.5826  0.3777 -0.0980
   32MOL   C18622568   6.273   6.074   7.503 -0.0689  0.0142  0.1746
   32MOL   C18722569   6.138   6.098   7.422 -0.0155 -0.3681  0.2821
   32MOL   C18822570   6.124   6.243   7.351 -0.4695 -0.1580  0.0606
   32MOL   C18922571   6.018   6.234   7.234 -0.3474 -0.3454 -0.0305
   32MOL   O19022572   6.068   6.157   7.134 -0.0239  0.1980  0.2429
   32MOL   C19122573   6.013   6.134   7.016  0.0523  0.1573 -0.6231
   32MOL   O19222574   5.899   6.163   6.986 -0.0108  0.4038  0.3146
   32MOL   C19322575   6.111   6.041   6.927 -0.1525 -0.6338 -0.1140
   32MOL   C19422576   6.247   6.108   6.937  0.5421  0.2928  0.1097
   32MOL   C19522577   6.139   5.905   6.993 -0.4385 -0.2169  0.1469
   32MOL   H19622578   6.778   5.992   7.591  0.5099  2.2918 -0.5100
   32MOL   H19722579   6.816   5.867   7.489 -1.1168 -0.7271  0.1901
   32MOL   H19822580   6.848   6.040   7.436 -1.3139  0.3744 -0.3974
   32MOL   H19922581   6.612   5.880   7.392 -0.9307  0.0900  0.2589
   32MOL   H20022582   6.647   6.038   7.325 -0.8311  1.2744  1.0530
   32MOL   H20122583   6.515   5.958   7.580 -3.2308  0.7778  0.9130
   32MOL   H20222584   6.543   6.119   7.557 -3.3802 -1.8708  3.0286
   32MOL   H20322585   6.399   6.083   7.330  1.5352 -2.1438 -1.6359
   32MOL   H20422586   6.369   5.924   7.377 -0.7605  0.1354  0.5464
   32MOL   H20522587   6.303   6.151   7.575  2.4908 -2.6603  2.1068
   32MOL   H20622588   6.248   5.990   7.568  0.1831 -0.9939 -1.0337
   32MOL   H20722589   6.049   6.081   7.481 -0.6593  0.0285 -0.5580
   32MOL   H20822590   6.125   6.021   7.346 -1.2806  0.7983 -0.7031
   32MOL   H20922591   6.091   6.309   7.432 -1.1431 -1.1818  0.6385
   32MOL   H21022592   6.220   6.276   7.311 -1.0730 -0.2047 -1.4427
   32MOL   H21122593   6.001   6.334   7.195  0.5583 -0.7438 -1.4688
   32MOL   H21222594   5.926   6.189   7.270 -1.6681  1.4008 -1.1521
   32MOL   H21322595   6.246   6.216   6.922 -1.1168  0.2345 -0.3735
   32MOL   H21422596   6.291   6.097   7.036  0.2313  0.7868  0.3071
   32MOL   H21522597   6.315   6.052   6.874 -1.1008 -1.4263 -0.1793
   32MOL   H21622598   6.237   5.865   6.964 -0.7057 -0.9862  0.2930
   32MOL   H21722599   6.144   5.930   7.099 -3.2481 -0.1622  0.2917
   32MOL   C21822600   5.247   6.516   7.271  0.8160  0.3285  0.1577
   32MOL   C21922601   5.254   6.376   7.328  1.0457  0.2115 -0.2431
   32MOL   C22022602   5.401   6.329   7.354  0.2628  0.0036 -0.4178
   32MOL   C22122603   5.409   6.196   7.419 -0.6137  0.0539 -0.0314
   32MOL   C22222604   5.549   6.124   7.415 -0.5707  0.0474 -0.5186
   32MOL   C22322605   5.566   6.040   7.286 -0.2356 -0.2524  0.1065
   32MOL   C22422606   5.708   6.018   7.237  0.0782 -0.1122  0.0153
   32MOL   C22522607   5.718   5.910   7.124 -0.2928  0.4018  0.3869
   32MOL   O22622608   5.850   5.870   7.110 -0.1679 -0.4850  0.5071
   32MOL   C22722609   5.887   5.819   6.989 -0.4474 -0.2495 -0.0391
   32MOL   O22822610   5.820   5.818   6.886  0.4337 -0.2755  0.0596
   32MOL   C22922611   6.041   5.779   6.988  0.2563 -0.1319  0.3698
   32MOL   C23022612   6.064   5.705   7.122 -0.5055  0.5088 -0.2015
   32MOL   C23122613   6.077   5.684   6.858 -0.8702 -0.2455 -0.7005
   32MOL   H23222614   5.320   6.531   7.191 -2.4996  2.5048 -2.6407
   32MOL   H23322615   5.262   6.588   7.351  2.7935  0.6076 -0.4368
   32MOL   H23422616   5.154   6.546   7.223  0.4084  1.1941  1.4729
   32MOL   H23522617   5.205   6.307   7.259 -0.5315  2.0310 -0.9915
   32MOL   H23622618   5.209   6.375   7.427  2.5121  0.6655  0.4257
   32MOL   H23722619   5.452   6.319   7.258 -1.3349  2.7348 -1.6015
   32MOL   H23822620   5.454   6.395   7.423 -0.0078 -1.7385  1.4985
   32MOL   H23922621   5.386   6.215   7.524  1.7042 -0.4419  0.5937
   32MOL   H24022622   5.335   6.125   7.383  1.0553 -0.8456 -1.7969
   32MOL   H24122623   5.632   6.195   7.420 -1.1081  0.6638 -0.3364
   32MOL   H24222624   5.573   6.057   7.497 -0.2530  1.7831  0.8504
   32MOL   H24322625   5.525   5.940   7.303 -1.6685  0.2517 -0.3186
   32MOL   H24422626   5.506   6.079   7.204 -2.0393 -2.4269  0.3424
   32MOL   H24522627   5.775   5.991   7.319 -0.7089  1.6805  1.2718
   32MOL   H24622628   5.732   6.116   7.196  0.8069 -0.2564  0.0972
   32MOL   H24722629   5.674   5.945   7.030 -0.8907  2.0949  1.2777
   32MOL   H24822630   5.650   5.829   7.150 -0.7948  1.0131  1.0111
   32MOL   H24922631   5.983   5.636   7.145  1.0176 -1.7217 -1.4083
   32MOL   H25022632   6.075   5.771   7.208  1.8987 -0.7664  0.5208
   32MOL   H25122633   6.161   5.656   7.118  0.0818  1.5520  0.9702
   32MOL   H25222634   6.021   5.737   6.781  0.4393  1.0428 -0.7849
   32MOL   H25322635   6.180   5.711   6.835 -0.6757 -0.5125 -0.1457
   32MOL   C25422636   5.749   4.898   6.547  0.5897 -0.5231 -0.0094
   32MOL   C25522637   5.675   4.892   6.684 -0.3823  0.0024  0.1113
   32MOL   C25622638   5.595   5.024   6.698 -0.1327 -0.3056  0.2366
   32MOL   C25722639   5.569   5.063   6.842 -0.2673  0.2236  0.9457
   32MOL   C25822640   5.483   5.190   6.838 -0.0665  0.3699  0.5268
   32MOL   C25922641   5.553   5.317   6.802 -0.8492  0.0684  0.1846
   32MOL   C26022642   5.627   5.371   6.926 -0.3984 -0.0414 -1.0202
   32MOL   C26122643   5.694   5.511   6.911  0.1155  0.3015  0.0426
   32MOL   O26222644   5.818   5.514   6.843 -0.0535 -1.0635 -0.5960
   32MOL   C26322645   5.930   5.472   6.910  0.1395  0.6004 -0.3209
   32MOL   O26422646   5.926   5.395   7.006  0.1309  0.0648  0.2066
   32MOL   C26522647   6.064   5.524   6.848  0.1067  0.9187  0.3105
   32MOL   C26622648   6.184   5.464   6.925 -0.0204  0.4670 -0.4639
   32MOL   C26722649   6.082   5.509   6.693  0.0976  0.5168  0.0924
   32MOL   H26822650   5.830   4.826   6.534  1.4473  0.8440 -2.5340
   32MOL   H26922651   5.692   4.909   6.455  1.0167  0.2709 -0.1801
   32MOL   H27022652   5.813   4.986   6.553 -0.1468 -0.1204  2.4281
   32MOL   H27122653   5.617   4.800   6.693 -0.8681  0.2093 -0.8199
   32MOL   H27222654   5.750   4.890   6.763 -0.0932  0.7495 -0.1411
   32MOL   H27322655   5.505   5.016   6.637 -0.1514  1.5136  0.0241
   32MOL   H27422656   5.657   5.098   6.648  1.6851 -3.3517 -2.1939
   32MOL   H27522657   5.666   5.077   6.889 -0.7502  3.5572  1.0940
   32MOL   H27622658   5.514   4.983   6.891 -2.9549  1.9005  0.7754
   32MOL   H27722659   5.410   5.158   6.763  1.6716 -0.1185 -0.9868
   32MOL   H27822660   5.438   5.211   6.935  0.1838  0.9298  0.5218
   32MOL   H27922661   5.476   5.393   6.788  2.3438  3.3379 -0.3768
   32MOL   H28022662   5.601   5.312   6.704 -0.9728 -0.5559  0.1509
   32MOL   H28122663   5.564   5.386   7.013 -0.4160  0.5823 -1.1430
   32MOL   H28222664   5.697   5.293   6.958  0.8664  0.9677 -1.2876
   32MOL   H28322665   5.621   5.575   6.863 -0.7408 -0.9905 -0.4250
   32MOL   H28422666   5.707   5.558   7.008  1.5066  0.2654 -0.1178
   32MOL   H28522667   6.188   5.482   7.032  1.3926  1.6961 -0.7089
   32MOL   H28622668   6.185   5.355   6.919  1.3044  0.4627 -0.2561
   32MOL   H28722669   6.281   5.493   6.885 -0.0177  0.6730 -0.3104
   32MOL   H28822670   6.156   5.574   6.646 -0.3033  0.2023 -0.9990
   32MOL   H28922671   5.985   5.527   6.645 -1.9422 -2.8560  2.7133
   32MOL   C29022672   6.433   4.539   5.950 -0.3673 -0.4533 -0.1594
   32MOL   C29122673   6.449   4.664   6.039  0.2841 -0.1606  0.4483
   32MOL   C29222674   6.320   4.753   6.056 -0.4803 -0.4549  0.8148
   32MOL   C29322675   6.337   4.887   6.122  0.4450  0.0678  0.1853
   32MOL   C29422676   6.334   4.867   6.275  0.5191  0.1097 -0.3398
   32MOL   C29522677   6.361   4.995   6.355  0.1377 -0.2363 -0.6541
   32MOL   C29622678   6.368   4.975   6.504  0.6021  0.1710  0.0249
   32MOL   C29722679   6.363   5.104   6.590  0.2962  0.4239  0.4045
   32MOL   O29822680   6.238   5.175   6.588  0.0662 -0.4270 -0.4238
   32MOL   C29922681   6.237   5.300   6.626 -0.3506  0.7013 -0.6529
   32MOL   O30022682   6.332   5.363   6.665  0.0675  0.2325  0.6652
   32MOL   C30122683   6.097   5.367   6.620  0.2856  0.7621  0.4173
   32MOL   C30222684   6.003   5.262   6.682  0.0631  0.8410  0.3096
   32MOL   C30322685   6.058   5.378   6.468  0.4374  0.0042  0.5308
   32MOL   H30422686   6.529   4.488   5.954 -1.2099 -2.1510 -0.7585
   32MOL   H30522687   6.422   4.570   5.846  0.6399 -0.3630 -0.2395
   32MOL   H30622688   6.345   4.482   5.981 -1.0052  0.4677 -0.2365
   32MOL   H30722689   6.530   4.728   6.002 -1.1904  0.0099 -2.6219
   32MOL   H30822690   6.476   4.624   6.137 -0.7905  0.0405  0.8299
   32MOL   H30922691   6.244   4.696   6.109  0.5933 -0.6739  2.1343
   32MOL   H31022692   6.289   4.776   5.954  2.0742 -0.4119  0.0181
   32MOL   H31122693   6.428   4.940   6.093  1.7418 -1.3041  1.7136
   32MOL   H31222694   6.256   4.954   6.092 -0.4781 -1.0077  0.2598
   32MOL   H31322695   6.232   4.829   6.284  0.4220  0.4829  0.2005
   32MOL   H31422696   6.394   4.777   6.289  0.4039  0.0912  0.0481
   32MOL   H31522697   6.271   5.053   6.334  0.6102  0.2893 -1.2646
   32MOL   H31622698   6.443   5.056   6.319 -1.5938  1.9855 -0.9875
   32MOL   H31722699   6.460   4.918   6.520  0.9571  0.1992 -1.8744
   32MOL   H31822700   6.289   4.901   6.521  1.5491 -1.1634 -1.2329
   32MOL   H31922701   6.429   5.180   6.547 -1.1187  1.9572  0.9064
   32MOL   H32022702   6.393   5.081   6.693 -1.2987 -1.1002  0.5428
   32MOL   H32122703   5.986   5.170   6.626  0.6088 -0.8709  2.8639
   32MOL   H32222704   5.904   5.303   6.700 -0.9242 -1.1852 -0.3577
   32MOL   H32322705   6.041   5.221   6.775 -2.9835 -1.2214  0.7286
   32MOL   H32422706   6.067   5.277   6.428  1.3041  0.8343 -1.4336
   32MOL   H32522707   5.949   5.382   6.460  0.5384  0.5752 -0.6931
   32MOL   C32622708   5.075   5.959   6.549  0.0877 -0.2222 -0.2264
   32MOL   C32722709   5.212   5.948   6.489  0.6104 -0.3488 -0.0133
   32MOL   C32822710   5.275   5.810   6.498 -0.6217 -0.3508  0.6137
   32MOL   C32922711   5.422   5.808   6.446 -0.4035 -0.0063 -0.3856
   32MOL   C33022712   5.499   5.672   6.456  0.1515 -0.0062  0.6671
   32MOL   C33122713   5.645   5.683   6.407  0.1989  0.9236 -0.4999
   32MOL   C33222714   5.752   5.728   6.500  0.3044  0.2820 -0.8093
   32MOL   C33322715   5.882   5.754   6.432 -0.3034  0.0661  0.0039
   32MOL   O33422716   5.937   5.624   6.410  0.0113 -0.6780  0.4314
   32MOL   C33522717   6.074   5.618   6.394 -0.2552 -0.6719 -0.2760
   32MOL   O33622718   6.143   5.723   6.400  0.6342 -0.1759  0.3528
   32MOL   C33722719   6.131   5.484   6.365  0.8720  0.4041  0.8264
   32MOL   C33822720   6.284   5.491   6.378  0.1330  0.3107  0.1212
   32MOL   C33922721   6.086   5.428   6.221  0.2689 -0.2858 -0.1695
   32MOL   H34022722   5.043   6.059   6.519 -0.3865 -0.6192 -1.0548
   32MOL   H34122723   5.086   5.960   6.657 -1.3525  1.2360 -0.0661
   32MOL   H34222724   5.005   5.878   6.528  0.2805 -0.2680 -0.7033
   32MOL   H34322725   5.278   6.026   6.527  0.7162  0.5610 -2.0282
   32MOL   H34422726   5.204   5.976   6.384 -1.2273  0.6856  0.3978
   32MOL   H34522727   5.207   5.739   6.451  0.5290 -0.8661 -0.2953
   32MOL   H34622728   5.279   5.775   6.601 -0.4367  0.0159  0.7323
   32MOL   H34722729   5.486   5.872   6.507  0.2293 -0.8586 -0.1390
   32MOL   H34822730   5.424   5.840   6.342 -2.0069 -0.6690 -0.6225
   32MOL   H34922731   5.501   5.647   6.562  0.7394  0.6212  0.8071
   32MOL   H35022732   5.453   5.594   6.395  2.7308  0.5366 -2.0831
   32MOL   H35122733   5.670   5.581   6.375 -2.9328  0.6549 -2.3584
   32MOL   H35222734   5.651   5.744   6.317 -2.0926 -0.2970 -1.5329
   32MOL   H35322735   5.761   5.660   6.585  0.2509  0.4157 -0.6971
   32MOL   H35422736   5.722   5.819   6.551 -0.2324 -1.5075  2.1949
   32MOL   H35522737   5.856   5.803   6.338 -0.4231 -1.4377 -0.7655
   32MOL   H35622738   5.940   5.816   6.501  1.5666 -2.1699  0.4793
   32MOL   H35722739   6.323   5.514   6.477 -0.9884 -1.2883  0.9623
   32MOL   H35822740   6.314   5.389   6.353  0.1338  0.4304 -0.3642
   32MOL   H35922741   6.327   5.553   6.300  0.9787  0.9370  1.0680
   32MOL   H36022742   6.102   5.320   6.217  0.2519 -0.2971  0.0627
   32MOL   H36122743   5.978   5.432   6.233  0.3297  0.2476  0.2001
   32MOL   C36222744   6.746   4.646   5.491  0.0564 -0.2772  0.0317
   32MOL   C36322745   6.770   4.783   5.564 -0.3128  0.3195 -0.1739
   32MOL   C36422746   6.646   4.834   5.630 -0.8624 -0.4486  0.2125
   32MOL   C36522747   6.668   4.961   5.705 -0.3682 -0.0423  0.0901
   32MOL   C36622748   6.542   5.001   5.784  0.0465 -0.1285 -0.1301
   32MOL   C36722749   6.557   5.137   5.855  0.2151 -0.3238 -0.0278
   32MOL   C36822750   6.426   5.204   5.892  0.1688 -0.4124  0.3318
   32MOL   C36922751   6.442   5.307   6.004  0.7583  0.0444  0.1665
   32MOL   O37022752   6.308   5.341   6.042 -0.3774  0.0406  0.1111
   32MOL   C37122753   6.271   5.471   6.043  0.1905  0.1921 -0.1918
   32MOL   O37222754   6.338   5.571   6.014  0.3024 -0.6843 -0.0080
   32MOL   C37322755   6.121   5.487   6.078  0.2403 -0.4159  0.1736
   32MOL   C37422756   6.072   5.635   6.081  0.8019 -0.0268  0.2203
   32MOL   C37522757   6.021   5.409   5.986  0.1857 -0.0933 -0.0359
   32MOL   H37622758   6.843   4.613   5.455  0.5162 -0.8915  1.7661
   32MOL   H37722759   6.705   4.571   5.560  0.1349  0.4919  0.9278
   32MOL   H37822760   6.676   4.654   5.408 -1.5111  1.0559  1.4361
   32MOL   H37922761   6.799   4.850   5.483  0.8608 -1.2436 -1.0819
   32MOL   H38022762   6.858   4.783   5.628 -0.2468  1.8410 -0.2365
   32MOL   H38122763   6.615   4.752   5.694 -0.4723 -1.1781 -0.5290
   32MOL   H38222764   6.564   4.842   5.559 -1.3341 -1.4805  0.6343
   32MOL   H38322765   6.699   5.047   5.646  0.5122 -0.6490 -0.3524
   32MOL   H38422766   6.755   4.941   5.767  1.7895 -0.3320 -2.9437
   32MOL   H38522767   6.463   5.009   5.710 -0.8708  0.2400  0.8675
   32MOL   H38622768   6.516   4.917   5.850  0.5068 -1.7954 -2.0151
   32MOL   H38722769   6.614   5.212   5.799  2.3023  0.8098  3.4383
   32MOL   H38822770   6.612   5.116   5.947  0.5381  1.1387  0.1211
   32MOL   H38922771   6.356   5.126   5.921  0.5118 -0.4789  0.9873
   32MOL   H39022772   6.384   5.251   5.803 -0.1216 -1.1280  0.0865
   32MOL   H39122773   6.491   5.269   6.094  0.3237 -0.1854  0.3077
   32MOL   H39222774   6.502   5.392   5.971 -0.5637  0.9661  0.1007
   32MOL   H39322775   6.100   5.688   5.989 -0.0201  1.4456  0.8126
   32MOL   H39422776   5.966   5.641   6.106  0.8033  0.8249  0.0376
   32MOL   H39522777   6.131   5.700   6.145  0.8257 -0.5764  0.7567
   32MOL   H39622778   6.070   5.312   5.994  1.6863  0.5938 -0.6028
   32MOL   H39722779   5.926   5.393   6.037  0.8352 -0.7904  0.9749
   32MOL   C39822780   5.038   5.203   5.778  0.4676  0.1340 -0.3014
   32MOL   C39922781   5.138   5.216   5.896 -0.1650 -1.1391  0.3470
   32MOL   C40022782   5.195   5.352   5.913 -0.2394 -0.3880  0.1055
   32MOL   C40122783   5.287   5.353   6.032 -0.7975  0.1802  0.3947
   32MOL   C40222784   5.365   5.484   6.042 -0.1442 -0.3896  0.2769
   32MOL   C40322785   5.471   5.498   5.927 -0.4551 -0.3839 -0.5357
   32MOL   C40422786   5.547   5.626   5.957  0.2686 -0.2561 -0.3077
   32MOL   C40522787   5.674   5.645   5.874 -0.9951 -0.1385  0.5337
   32MOL   O40622788   5.764   5.537   5.871 -0.6597 -0.3552  0.0531
   32MOL   C40722789   5.893   5.556   5.828 -0.3004  0.4165 -0.8028
   32MOL   O40822790   5.935   5.669   5.793 -0.1967 -0.0883 -0.1919
   32MOL   C40922791   5.989   5.435   5.834 -0.4806  0.2602 -0.2575
   32MOL   C41022792   6.126   5.465   5.761 -0.5227 -0.4069  0.1831
   32MOL   C41122793   5.912   5.305   5.785  0.2893  0.0632  0.1203
   32MOL   H41222794   5.074   5.245   5.684 -0.3797  1.0500 -0.2244
   32MOL   H41322795   4.949   5.258   5.808 -0.7469 -1.7244 -0.4093
   32MOL   H41422796   5.011   5.099   5.759  0.9100  0.3569 -2.2675
   32MOL   H41522797   5.203   5.130   5.885  0.8064 -0.4576  0.6823
   32MOL   H41622798   5.080   5.205   5.987 -0.2589  0.7768  0.5411
   32MOL   H41722799   5.246   5.378   5.820  1.2182 -2.0304  0.4147
   32MOL   H41822800   5.118   5.427   5.927  2.7404  3.0945 -1.3541
   32MOL   H41922801   5.351   5.266   6.046 -1.4878 -0.4567 -0.4023
   32MOL   H42022802   5.226   5.328   6.119  2.0906 -1.6427  1.9750
   32MOL   H42122803   5.295   5.567   6.034 -1.4087 -1.1845  2.4608
   32MOL   H42222804   5.406   5.487   6.143  0.5962 -0.8861 -0.0018
   32MOL   H42322805   5.419   5.517   5.833 -0.2358 -0.2232 -0.6220
   32MOL   H42422806   5.537   5.413   5.909  0.6458 -0.0609  1.8088
   32MOL   H42522807   5.487   5.716   5.945 -0.7894 -1.1797 -2.2403
   32MOL   H42622808   5.589   5.633   6.057  0.3854  0.6969 -0.4225
   32MOL   H42722809   5.649   5.674   5.772  0.8203 -0.2468  0.0475
   32MOL   H42822810   5.737   5.729   5.906  0.3481 -0.7394 -0.4865
   32MOL   H42922811   6.192   5.536   5.810 -1.0104 -0.1759  0.5029
   32MOL   H43022812   6.115   5.495   5.657 -1.1519  0.5522  0.5203
   32MOL   H43122813   6.177   5.369   5.750  1.2380  0.7262 -2.0220
   32MOL   H43222814   5.818   5.299   5.840  0.1678 -0.8694 -0.1705
   32MOL   H43322815   5.953   5.215   5.830 -0.1608 -0.7300 -1.0219
   32MOL   C43422816   6.520   4.341   5.582  0.5587  0.6404 -0.3608
   32MOL   C43522817   6.463   4.408   5.455  0.1177  0.4725  0.5379
   32MOL   C43622818   6.366   4.529   5.482  0.5350  0.3279  0.4434
   32MOL   C43722819   6.304   4.590   5.358  0.1203 -0.7343 -0.3626
   32MOL   C43822820   6.179   4.665   5.400 -0.1577 -1.3558 -0.5099
   32MOL   C43922821   6.223   4.781   5.498  0.4609 -0.3085 -0.3003
   32MOL   C44022822   6.118   4.893   5.510  0.2777  0.5459 -0.1850
   32MOL   C44122823   6.144   5.005   5.612  0.2604  0.5182 -0.0882
   32MOL   O44222824   6.023   5.076   5.627  0.2696 -0.1787  0.2306
   32MOL   C44322825   6.015   5.196   5.578 -0.0943 -0.0077  0.1028
   32MOL   O44422826   6.089   5.245   5.494  0.6336  0.4900  0.3053
   32MOL   C44522827   5.887   5.272   5.633  0.0432 -0.1042  0.1139
   32MOL   C44622828   5.858   5.403   5.543 -0.1253 -0.3008 -0.1574
   32MOL   C44722829   5.756   5.191   5.639  0.1650 -1.0159  0.0316
   32MOL   H44822830   6.524   4.234   5.560  1.2802  0.6293 -0.1963
   32MOL   H44922831   6.449   4.349   5.664  0.0474 -1.5073 -0.5697
   32MOL   H45022832   6.617   4.376   5.617  1.1854 -0.1352 -1.3047
   32MOL   H45122833   6.417   4.335   5.390 -2.9815  1.9657  0.9543
   32MOL   H45222834   6.545   4.432   5.388 -0.4994 -0.4582 -0.5486
   32MOL   H45322835   6.417   4.604   5.543  1.0717  0.5133 -0.2332
   32MOL   H45422836   6.293   4.485   5.549  1.2241 -2.4389 -0.5752
   32MOL   H45522837   6.260   4.522   5.285 -0.2393  0.7041 -1.5092
   32MOL   H45622838   6.386   4.655   5.326 -1.2057  1.0945 -0.1161
   32MOL   H45722839   6.116   4.706   5.321 -0.5517  0.3892  0.6743
   32MOL   H45822840   6.110   4.595   5.447 -0.4395 -1.5781 -1.2394
   32MOL   H45922841   6.313   4.829   5.460 -0.1961  0.5571 -0.7896
   32MOL   H46022842   6.250   4.744   5.597 -1.3801 -1.3027 -0.1313
   32MOL   H46122843   6.103   4.937   5.412  1.8792  1.6122  0.0306
   32MOL   H46222844   6.027   4.838   5.532  1.2226 -0.3749  1.5515
   32MOL   H46322845   6.230   5.062   5.576  0.4557 -0.8627 -1.9025
   32MOL   H46422846   6.164   4.971   5.713 -1.0573  2.1199  0.7485
   32MOL   H46522847   5.942   5.472   5.545 -0.3377  0.0383 -1.6993
   32MOL   H46622848   5.850   5.388   5.435  0.7546 -1.1381 -0.1166
   32MOL   H46722849   5.774   5.462   5.579 -1.2559 -1.8916 -0.1176
   32MOL   H46822850   5.766   5.111   5.713 -1.4499 -0.8803  0.4330
   32MOL   H46922851   5.680   5.252   5.688 -0.5852  0.7928 -3.2775
   32MOL   C47022852   4.961   4.735   4.740  0.1288 -0.2775  0.9001
   32MOL   C47122853   4.999   4.826   4.865 -0.0568 -0.3348  0.4348
   32MOL   C47222854   5.108   4.930   4.830  0.0470 -0.0772 -0.1893
   32MOL   C47322855   5.180   5.004   4.947 -1.0282  0.0178  0.2096
   32MOL   C47422856   5.295   5.089   4.891 -0.4902  0.3238 -0.3772
   32MOL   C47522857   5.337   5.189   4.996 -0.0714  0.1934 -0.3416
   32MOL   C47622858   5.417   5.123   5.107  0.2276  0.3859  0.5194
   32MOL   C47722859   5.465   5.228   5.211  0.6356 -0.2659 -0.5770
   32MOL   O47822860   5.547   5.155   5.311  0.0610 -0.1308 -0.0034
   32MOL   C47922861   5.607   5.227   5.412  0.2359 -0.2815  0.7641
   32MOL   O48022862   5.592   5.347   5.432 -0.5155  0.4647  0.1035
   32MOL   C48122863   5.692   5.129   5.509  0.0929 -0.4190 -0.2426
   32MOL   C48222864   5.795   5.065   5.415 -0.1624 -0.5963 -0.7664
   32MOL   C48322865   5.590   5.011   5.558 -0.0760 -0.1010 -0.5128
   32MOL   H48422866   4.889   4.666   4.784 -0.8316  1.8579  2.7192
   32MOL   H48522867   5.053   4.688   4.704 -0.5684 -1.8507  1.1010
   32MOL   H48622868   4.923   4.783   4.650  0.5755 -2.2050 -0.3613
   32MOL   H48722869   4.909   4.873   4.904  1.8250  2.8893  1.0885
   32MOL   H48822870   5.035   4.760   4.944  2.4751 -2.8432 -2.6471
   32MOL   H48922871   5.187   4.883   4.772 -0.2534 -0.4955 -0.2611
   32MOL   H49022872   5.069   4.998   4.755  0.4675 -0.3389 -0.6451
   32MOL   H49122873   5.112   5.075   4.994 -0.1282  0.6601  0.5537
   32MOL   H49222874   5.222   4.929   5.015  0.2076 -1.3676 -2.0379
   32MOL   H49322875   5.380   5.033   4.853 -1.3442 -1.2489  0.0140
   32MOL   H49422876   5.259   5.157   4.813 -1.8645 -1.2142 -1.1147
   32MOL   H49522877   5.396   5.262   4.942 -1.1702  0.3994 -1.2770
   32MOL   H49622878   5.250   5.238   5.041  1.2225 -0.0909  2.6049
   32MOL   H49722879   5.352   5.047   5.150  1.4061 -0.3913  0.9812
   32MOL   H49822880   5.503   5.072   5.062  0.4368  0.0954  1.2457
   32MOL   H49922881   5.381   5.277   5.260  1.5499  1.8523 -1.0724
   32MOL   H50022882   5.525   5.303   5.159 -1.6240  0.6729 -1.9658
   32MOL   H50122883   5.746   4.999   5.344  2.2422 -0.3185 -2.7357
   32MOL   H50222884   5.853   4.988   5.465  0.2006 -0.2454 -0.6415
   32MOL   H50322885   5.871   5.124   5.364  1.6342 -0.2626  2.1662
   32MOL   H50422886   5.544   4.968   5.469  1.0929 -3.0331  0.2228
   32MOL   H50522887   5.658   4.933   5.592 -1.1839 -0.2470  1.4815
   32MOL   C50622888   6.030   4.256   5.590 -0.1679 -0.2795  0.4103
   32MOL   C50722889   5.939   4.385   5.592 -0.1921 -0.1054 -0.2592
   32MOL   C50822890   5.984   4.475   5.706  0.3893  0.2784 -0.0321
   32MOL   C50922891   5.905   4.608   5.703 -0.5476  0.3892  0.7213
   32MOL   C51022892   5.952   4.690   5.819 -0.3140 -0.4501 -0.4731
   32MOL   C51122893   5.878   4.817   5.830 -0.1165 -0.1502 -0.8576
   32MOL   C51222894   5.758   4.809   5.930  0.5938  0.2015  0.2155
   32MOL   C51322895   5.671   4.935   5.954  0.5204  0.1420  0.0047
   32MOL   O51422896   5.589   4.934   5.841  0.5224 -0.0529  0.5282
   32MOL   C51522897   5.514   5.040   5.803  0.6906  0.2345  0.9105
   32MOL   O51622898   5.487   5.132   5.875  0.4257 -0.3466  0.4213
   32MOL   C51722899   5.471   5.040   5.652  0.4873 -0.2592 -0.7032
   32MOL   C51822900   5.398   5.176   5.626  0.2284  0.3369 -0.2422
   32MOL   C51922901   5.357   4.932   5.626  0.6241  0.1200 -0.1959
   32MOL   H52022902   6.000   4.185   5.514 -2.7913  0.1266  1.0206
   32MOL   H52122903   6.032   4.213   5.690  0.4801  0.1118  0.5706
   32MOL   H52222904   6.133   4.284   5.568 -0.8184  1.7202 -0.1976
   32MOL   H52322905   5.836   4.356   5.612  0.0598 -0.5902  0.3454
   32MOL   H52422906   5.944   4.434   5.494 -1.5170  0.1629 -0.1993
   32MOL   H52522907   5.976   4.413   5.795  1.3213 -2.4238 -1.7376
   32MOL   H52622908   6.089   4.504   5.698  0.8928 -1.6514 -0.9333
   32MOL   H52722909   5.921   4.663   5.610 -1.1372 -2.1349 -0.9313
   32MOL   H52822910   5.799   4.592   5.722 -0.3050 -2.4512 -0.1467
   32MOL   H52922911   5.956   4.643   5.917  0.7065 -0.8143 -0.6771
   32MOL   H53022912   6.055   4.714   5.792 -0.3100 -1.6858 -1.6598
   32MOL   H53122913   5.858   4.873   5.739  1.8057  1.6417 -0.2223
   32MOL   H53222914   5.945   4.884   5.883 -2.9709  0.4678  2.1046
   32MOL   H53322915   5.796   4.776   6.027  1.1885 -0.2740 -0.1781
   32MOL   H53422916   5.687   4.731   5.901 -1.9751  2.5779 -0.0686
   32MOL   H53522917   5.725   5.029   5.966 -1.9654  2.0539 -2.9681
   32MOL   H53622918   5.608   4.898   6.034  0.6133  2.3784  1.1623
   32MOL   H53722919   5.467   5.260   5.632 -0.6012  1.0611 -0.6750
   32MOL   H53822920   5.312   5.180   5.693  2.3528  0.3110  2.5967
   32MOL   H53922921   5.363   5.181   5.523 -0.6632 -0.2237  0.0313
   32MOL   H54022922   5.268   4.973   5.674  0.7334 -0.8212  0.8235
   32MOL   H54122923   5.341   4.936   5.518 -2.3261 -0.0240  0.1932
   32MOL   C54222924   5.680   5.292   6.184 -0.4242 -0.1070 -1.2028
   32MOL   C54322925   5.627   5.303   6.328 -0.1366 -0.4138 -0.4926
   32MOL   C54422926   5.557   5.182   6.386  0.3541 -0.5235 -0.1975
   32MOL   C54522927   5.432   5.150   6.300  0.3231  0.0794  0.5107
   32MOL   C54622928   5.353   5.022   6.339  0.6972 -0.2994  0.1295
   32MOL   C54722929   5.250   4.986   6.231  0.3212  0.7119 -0.2439
   32MOL   C54822930   5.303   4.938   6.087  0.2169 -0.5389 -0.2434
   32MOL   C54922931   5.206   4.850   6.011 -0.5982  0.9075  0.5955
   32MOL   O55022932   5.246   4.840   5.874 -0.1652  0.1550 -0.3728
   32MOL   C55122933   5.344   4.756   5.827  0.1684 -0.2021  0.6811
   32MOL   O55222934   5.408   4.682   5.896  0.0174 -0.0560 -0.0192
   32MOL   C55322935   5.356   4.780   5.671  0.3328  0.3806 -0.1929
   32MOL   C55422936   5.485   4.711   5.615  0.3124 -0.1119 -0.4612
   32MOL   C55522937   5.236   4.709   5.595  0.6038  0.5659  0.2443
   32MOL   H55622938   5.719   5.393   6.167  2.2276 -0.6628  1.3228
   32MOL   H55722939   5.595   5.293   6.115 -0.1710 -1.9509 -1.5416
   32MOL   H55822940   5.748   5.219   6.141  0.3027  0.7234 -1.4825
   32MOL   H55922941   5.712   5.327   6.391  1.3185 -0.3117 -2.4265
   32MOL   H56022942   5.562   5.390   6.337  0.7232  0.1910  0.0371
   32MOL   H56122943   5.519   5.206   6.486 -3.1120 -0.0497 -1.5700
   32MOL   H56222944   5.616   5.091   6.399  1.6326 -0.1154 -2.8384
   32MOL   H56322945   5.364   5.234   6.307 -1.3279 -1.1064 -0.9375
   32MOL   H56422946   5.468   5.139   6.198 -0.4035 -0.7228  0.3355
   32MOL   H56522947   5.314   5.038   6.440 -0.4868 -2.1738 -0.0149
   32MOL   H56622948   5.429   4.944   6.352 -0.8340 -1.7786  0.3627
   32MOL   H56722949   5.196   4.898   6.265  1.2161  1.2536  2.8279
   32MOL   H56822950   5.174   5.063   6.214  0.5120  0.4351 -2.3592
   32MOL   H56922951   5.304   5.026   6.023 -2.9683 -0.1293  0.2216
   32MOL   H57022952   5.400   4.892   6.107  1.3625  2.4846  1.5075
   32MOL   H57122953   5.106   4.894   6.014 -0.4407  1.2449  1.1585
   32MOL   H57222954   5.209   4.753   6.062  2.9967  0.4416 -0.4085
   32MOL   H57322955   5.580   4.740   5.660  0.5115  1.1062 -1.6152
   32MOL   H57422956   5.504   4.694   5.509  0.0604 -0.4088 -0.4605
   32MOL   H57522957   5.487   4.604   5.636  2.5621 -0.2593 -1.2482
   32MOL   H57622958   5.259   4.710   5.488  0.7759 -1.4558  0.2483
   32MOL   H57722959   5.155   4.782   5.598  0.8612  0.8699 -0.1877
   32MOL   C57822960   5.961   3.874   6.055 -0.5801 -0.1356  0.1149
   32MOL   C57922961   5.881   3.812   5.947 -0.1255  0.1902  0.2358
   32MOL   C58022962   5.754   3.881   5.906 -0.0014  0.4380  0.0239
   32MOL   C58122963   5.777   4.024   5.860  0.9865 -0.5331 -0.3235
   32MOL   C58222964   5.646   4.113   5.864  0.0372  0.3522  0.2343
   32MOL   C58322965   5.665   4.256   5.807  0.0031 -0.1063  0.0502
   32MOL   C58422966   5.542   4.344   5.840 -0.1079 -0.1700  0.1322
   32MOL   C58522967   5.419   4.316   5.751 -0.3451 -0.3778 -0.5573
   32MOL   O58622968   5.336   4.437   5.726 -0.4749  0.0210 -0.0365
   32MOL   C58722969   5.272   4.451   5.615  0.9624  0.4588  0.3099
   32MOL   O58822970   5.309   4.394   5.512  0.2295 -0.0959  0.2769
   32MOL   C58922971   5.170   4.567   5.621  0.3550 -0.7003  0.8979
   32MOL   C59022972   5.063   4.537   5.503 -0.2039  0.2781 -0.0813
   32MOL   C59122973   5.099   4.560   5.761 -0.2696 -0.3713  0.0138
   32MOL   H59222974   6.040   3.810   6.094 -0.6037  1.0252  2.1506
   32MOL   H59322975   5.910   3.919   6.140  1.3456  0.7724  0.8159
   32MOL   H59422976   6.012   3.965   6.022  2.5563 -1.1893  1.8226
   32MOL   H59522977   5.851   3.711   5.977  2.1436 -0.2878  0.9751
   32MOL   H59622978   5.945   3.803   5.860 -1.9210 -0.0758 -1.1029
   32MOL   H59722979   5.674   3.875   5.980  2.9659 -0.5459  3.2951
   32MOL   H59822980   5.721   3.819   5.823  2.0146 -0.5229 -0.0695
   32MOL   H59922981   5.805   4.015   5.755  1.0184 -1.3814 -0.2451
   32MOL   H60022982   5.849   4.076   5.922  1.0828  0.6592 -1.4029
   32MOL   H60122983   5.605   4.119   5.965 -0.5744  1.0175 -0.0592
   32MOL   H60222984   5.556   4.065   5.826 -0.4935  0.3462  1.4853
   32MOL   H60322985   5.686   4.251   5.700 -0.3806 -1.6552  0.0310
   32MOL   H60422986   5.755   4.295   5.855 -0.3667 -0.0632  0.7184
   32MOL   H60522987   5.574   4.443   5.806  1.0192 -1.3397 -2.3412
   32MOL   H60622988   5.522   4.351   5.947 -0.9150 -2.4407  0.1577
   32MOL   H60722989   5.457   4.279   5.656  1.2863 -1.0946  0.3734
   32MOL   H60822990   5.356   4.237   5.790 -0.0408 -0.7409 -0.8042
   32MOL   H60922991   5.106   4.558   5.405  0.4377  1.6888  0.4857
   32MOL   H61022992   5.010   4.442   5.496 -0.4496  0.4096 -0.0042
   32MOL   H61122993   4.983   4.610   5.508 -1.1031 -0.6438 -0.6843
   32MOL   H61222994   5.050   4.655   5.784 -1.4158 -0.7423 -0.8712
   32MOL   H61322995   5.162   4.565   5.850  2.6420 -1.0755 -1.9329
   32MOL   C61422996   4.760   4.956   6.411  0.3502 -0.0767 -0.2175
   32MOL   C61522997   4.899   4.994   6.346  0.5726  0.1215  0.5393
   32MOL   C61622998   4.875   5.039   6.199 -0.0780 -0.5717  0.4245
   32MOL   C61722999   4.848   4.933   6.098  0.3955 -0.4760  0.2027
   32MOL   C61823000   4.780   4.988   5.970  0.5275 -0.4930 -0.0590
   32MOL   C61923001   4.784   4.896   5.845  0.1313  0.6217 -0.2691
   32MOL   C62023002   4.673   4.787   5.846 -0.4278  0.1897 -0.4263
   32MOL   C62123003   4.693   4.680   5.741  0.2808 -0.9355  0.8456
   32MOL   O62223004   4.800   4.608   5.790  0.2511  0.1295 -0.0063
   32MOL   C62323005   4.848   4.498   5.735  0.2015  0.0187 -0.8232
   32MOL   O62423006   4.800   4.434   5.646  0.3439 -0.5868 -0.4167
   32MOL   C62523007   4.988   4.457   5.791  0.2417  0.3489 -0.1276
   32MOL   C62623008   5.016   4.311   5.749  0.4928  0.5881 -0.2629
   32MOL   C62723009   4.981   4.458   5.949 -0.2556 -0.1176 -0.3258
   32MOL   H62823010   4.728   4.864   6.363 -0.4089  0.7206 -1.2563
   32MOL   H62923011   4.691   5.036   6.387 -1.3111 -1.0532  1.1914
   32MOL   H63023012   4.773   4.938   6.518  0.4421 -0.0221 -0.2200
   32MOL   H63123013   4.944   5.082   6.391 -2.4751  1.7167  0.5981
   32MOL   H63223014   4.970   4.912   6.349  2.6142  1.9064  2.0244
   32MOL   H63323015   4.970   5.083   6.166 -0.9036  1.0468  0.1505
   32MOL   H63423016   4.803   5.121   6.206  0.9324  0.5957 -2.3106
   32MOL   H63523017   4.777   4.859   6.136 -0.5520  1.3004  2.0101
   32MOL   H63623018   4.933   4.870   6.072  0.1299 -0.2201 -1.3111
   32MOL   H63723019   4.674   5.009   5.986  0.3110 -0.8980 -0.9661
   32MOL   H63823020   4.822   5.088   5.959  2.3064 -1.2980 -0.7173
   32MOL   H63923021   4.778   4.959   5.756 -1.5373  0.4886 -0.2671
   32MOL   H64023022   4.881   4.845   5.841 -0.4887 -0.9313  3.0102
   32MOL   H64123023   4.584   4.845   5.823 -2.2016 -0.4505  4.2426
   32MOL   H64223024   4.655   4.730   5.938 -0.4299 -2.1396 -1.8265
   32MOL   H64323025   4.604   4.617   5.738  0.9006 -1.7972  0.3392
   32MOL   H64423026   4.713   4.723   5.642 -0.1517 -2.2215  0.1804
   32MOL   H64523027   5.065   4.309   5.651  1.4154  3.4322  0.0822
   32MOL   H64623028   4.935   4.240   5.737 -0.1552  1.2002  0.4556
   32MOL   H64723029   5.084   4.260   5.817  1.3191  1.6492 -0.2660
   32MOL   H64823030   4.967   4.563   5.975  2.3534 -0.0066  0.7950
   32MOL   H64923031   5.085   4.435   5.969 -0.4266 -0.0574  0.6566
   32MOL   C65023032   5.235   3.595   5.491 -0.6826 -0.5286  0.2621
   32MOL   C65123033   5.190   3.702   5.591  0.1879 -0.1808 -0.2995
   32MOL   C65223034   5.314   3.779   5.640  0.0821  0.5021  0.2118
   32MOL   C65323035   5.275   3.903   5.726  0.7358 -0.2785 -0.2250
   32MOL   C65423036   5.227   3.866   5.868 -0.1805 -0.1764  0.0374
   32MOL   C65523037   5.237   4.005   5.940  0.0969  0.2386  0.6002
   32MOL   C65623038   5.176   3.998   6.080  0.1746  0.2340  0.5032
   32MOL   C65723039   5.171   4.132   6.145 -0.4503 -0.2665 -0.6802
   32MOL   O65823040   5.099   4.231   6.076 -0.2816  0.4540  0.5591
   32MOL   C65923041   4.963   4.232   6.085 -0.2492  0.6511 -0.4070
   32MOL   O66023042   4.896   4.135   6.125  0.5631 -0.0536  0.5322
   32MOL   C66123043   4.895   4.364   6.039  0.3667 -0.8705 -1.1422
   32MOL   C66223044   4.758   4.336   5.966  1.2198 -0.6134  0.0312
   32MOL   C66323045   4.851   4.454   6.166  0.1924 -0.2554  0.0332
   32MOL   H66423046   5.291   3.637   5.407 -2.2675  1.8577  0.3403
   32MOL   H66523047   5.141   3.546   5.463 -0.6383 -0.3340 -0.2462
   32MOL   H66623048   5.300   3.523   5.540  2.1691  1.4815 -0.4580
   32MOL   H66723049   5.134   3.656   5.672 -0.4187  2.0904  0.6280
   32MOL   H66823050   5.129   3.777   5.540  0.8698 -0.1494 -1.0782
   32MOL   H66923051   5.371   3.825   5.560  2.9436 -1.6761  0.9147
   32MOL   H67023052   5.384   3.710   5.686  0.6774  1.0328  0.1056
   32MOL   H67123053   5.198   3.961   5.677 -0.6269 -0.5240  1.5650
   32MOL   H67223054   5.363   3.967   5.733  0.3875 -0.0120  2.6008
   32MOL   H67323055   5.299   3.797   5.911 -1.1275 -0.0628  1.8194
   32MOL   H67423056   5.127   3.823   5.874 -0.5937  0.3983 -2.1620
   32MOL   H67523057   5.343   4.027   5.956  0.5049 -1.2708  0.1445
   32MOL   H67623058   5.198   4.084   5.876 -0.4812  0.2848  1.0053
   32MOL   H67723059   5.234   3.932   6.144  0.3162  0.3178  0.4630
   32MOL   H67823060   5.079   3.950   6.070 -0.2625  1.5059 -1.6918
   32MOL   H67923061   5.274   4.169   6.149 -0.8737  1.2375 -2.8572
   32MOL   H68023062   5.134   4.134   6.248  5.3356  0.0346  1.5896
   32MOL   H68123063   4.686   4.418   5.970  0.3113 -1.3417 -0.9762
   32MOL   H68223064   4.711   4.258   6.026  2.4773 -1.0427  0.4761
   32MOL   H68323065   4.751   4.290   5.867 -0.5372 -0.6655  0.1570
   32MOL   H68423066   4.821   4.553   6.130  0.9105  0.7362  2.0903
   32MOL   H68523067   4.764   4.408   6.213  0.4307  0.1033  0.8285
   32MOL   C68623068   5.996   4.290   6.113 -0.6593  0.7466  0.3197
   32MOL   C68723069   5.915   4.330   6.236  0.6111 -0.2916 -0.6244
   32MOL   C68823070   5.799   4.427   6.209 -0.5915  0.6413  0.4242
   32MOL   C68923071   5.731   4.482   6.339  0.0031 -0.9865  0.0303
   32MOL   C69023072   5.661   4.625   6.312 -0.3113  0.3216  0.3442
   32MOL   C69123073   5.536   4.610   6.220  0.5930 -0.6120 -0.3029
   32MOL   C69223074   5.405   4.552   6.287 -0.0575 -0.6638  0.2986
   32MOL   C69323075   5.301   4.502   6.184 -0.0241  0.1765  0.4031
   32MOL   O69423076   5.179   4.455   6.233 -0.6742  0.7903  0.3858
   32MOL   C69523077   5.078   4.543   6.268 -0.3789  0.0982 -0.8750
   32MOL   O69623078   5.087   4.667   6.255  0.6776 -0.1241 -0.4256
   32MOL   C69723079   4.935   4.482   6.293 -0.2657 -0.0963 -0.6605
   32MOL   C69823080   4.958   4.360   6.387 -0.0193 -0.8926  0.0662
   32MOL   C69923081   4.848   4.581   6.377 -0.0624  0.6511 -0.2752
   32MOL   H70023082   5.937   4.210   6.066  2.2382 -0.7466 -0.8963
   32MOL   H70123083   6.093   4.252   6.146 -0.3780  0.0737 -1.2417
   32MOL   H70223084   6.005   4.361   6.031  0.5147  0.5776  0.2906
   32MOL   H70323085   5.977   4.378   6.312 -0.8906  0.5001  0.1185
   32MOL   H70423086   5.864   4.243   6.278 -0.9965  1.0781  0.3000
   32MOL   H70523087   5.720   4.382   6.149  0.4090 -1.5666  0.7076
   32MOL   H70623088   5.843   4.505   6.148 -0.5922 -0.5056 -1.0608
   32MOL   H70723089   5.804   4.494   6.419  0.3826  0.8237 -0.5563
   32MOL   H70823090   5.668   4.407   6.385  0.0249 -1.6734 -1.0423
   32MOL   H70923091   5.736   4.695   6.276 -0.0589  0.0855  0.4089
   32MOL   H71023092   5.634   4.676   6.404 -0.5374  0.8345 -0.0009
   32MOL   H71123093   5.510   4.712   6.190  0.7056  0.1825  2.1730
   32MOL   H71223094   5.562   4.550   6.132  2.4003 -1.1781  0.6064
   32MOL   H71323095   5.421   4.481   6.368  2.2246 -1.4693 -0.8207
   32MOL   H71423096   5.351   4.635   6.333  0.1617 -0.5591  0.3648
   32MOL   H71523097   5.339   4.415   6.131 -5.6826 -2.1245 -0.2881
   32MOL   H71623098   5.286   4.571   6.101  0.1959 -1.1392 -0.7364
   32MOL   H71723099   5.027   4.288   6.343  1.7701 -0.2625  1.7769
   32MOL   H71823100   5.013   4.402   6.471  0.7017  0.4531 -1.0515
   32MOL   H71923101   4.872   4.302   6.419  0.7835 -2.0279  0.2146
   32MOL   H72023102   4.840   4.679   6.328 -2.6622 -0.4970 -2.3351
   32MOL   H72123103   4.892   4.613   6.471  0.4382  0.6397 -0.5077
   32MOL   H72223104   4.754   4.534   6.406  1.1707 -0.4607  2.0306
   33MOL     C123105   6.470   0.874   5.362 -0.1759  0.3270 -0.3739
   33MOL     C223106   6.492   0.755   5.457  0.2393  0.7282 -0.1799
   33MOL     C323107   6.407   0.761   5.581  0.3788 -0.1142 -0.9490
   33MOL     C423108   6.274   0.684   5.570  0.1156  0.2435  0.0227
   33MOL     C523109   6.193   0.708   5.702  0.2523 -0.3010 -0.1501
   33MOL     C623110   6.059   0.635   5.699 -0.0043  0.0205 -0.3198
   33MOL     C723111   5.972   0.655   5.578  0.5164 -0.2818 -0.0050
   33MOL     C823112   5.842   0.583   5.620  0.0410 -0.0345 -0.2797
   33MOL     O923113   5.761   0.576   5.501  0.2194  0.6954  0.3336
   33MOL    C1023114   5.662   0.665   5.491 -0.0900  0.4311  0.1970
   33MOL    O1123115   5.641   0.759   5.565 -0.2760  0.1419 -0.2327
   33MOL    C1223116   5.567   0.635   5.375  0.1152 -0.2561 -0.7667
   33MOL    C1323117   5.448   0.728   5.352  0.6209  0.2337 -0.1289
   33MOL    C1423118   5.650   0.617   5.248 -0.7947  0.5004 -0.3469
   33MOL    H1523119   6.369   0.888   5.324  0.1860 -1.1789 -1.9235
   33MOL    H1623120   6.532   0.857   5.274  1.0442 -2.7167  1.0004
   33MOL    H1723121   6.508   0.963   5.413  4.4142 -1.1433 -0.9999
   33MOL    H1823122   6.595   0.740   5.487  0.0165 -1.6335 -0.4653
   33MOL    H1923123   6.460   0.668   5.400 -1.5052  0.1212  1.6525
   33MOL    H2023124   6.474   0.733   5.662  0.1037 -2.2768 -1.4350
   33MOL    H2123125   6.385   0.866   5.602  1.4029 -0.2038  0.6515
   33MOL    H2223126   6.215   0.712   5.483  2.0770 -0.5937 -1.6130
   33MOL    H2323127   6.302   0.581   5.548 -1.1601 -0.3272  1.0352
   33MOL    H2423128   6.174   0.811   5.731 -0.5037 -1.4096  3.5103
   33MOL    H2523129   6.252   0.676   5.787  3.2438 -0.4767 -2.2252
   33MOL    H2623130   6.003   0.649   5.792 -0.4094 -0.7748 -0.4402
   33MOL    H2723131   6.081   0.528   5.708 -2.1529 -0.2467  2.5897
   33MOL    H2823132   6.015   0.596   5.497  3.2462  3.1351 -1.1501
   33MOL    H2923133   5.964   0.754   5.534 -0.6020 -1.8232 -3.4944
   33MOL    H3023134   5.790   0.630   5.704 -1.1038  0.5431 -1.2974
   33MOL    H3123135   5.876   0.486   5.656  1.2119  0.0003 -1.2726
   33MOL    H3223136   5.377   0.684   5.282  0.4751  1.0057 -0.4691
   33MOL    H3323137   5.394   0.751   5.444 -0.5509 -0.3202 -0.6675
   33MOL    H3423138   5.485   0.823   5.315  0.7136  0.4601  0.5324
   33MOL    H3523139   5.757   0.632   5.262 -0.3019 -1.4988 -1.7277
   33MOL    H3623140   5.616   0.688   5.173  0.5155  0.6502 -0.8121
   33MOL    H3723141   5.517   0.540   5.396  1.7037 -0.9793 -0.1874
   33MOL    C3823142   6.664   0.220   4.968 -0.2642 -0.8682  0.3205
   33MOL    C3923143   6.508   0.221   4.995  0.0514  0.8301 -0.7791
   33MOL    C4023144   6.451   0.268   5.133 -0.1707  0.6806  0.3084
   33MOL    C4123145   6.303   0.301   5.139  0.2300 -0.0645 -0.1620
   33MOL    C4223146   6.265   0.346   5.281  0.0890 -0.5617  0.1097
   33MOL    C4323147   6.121   0.373   5.302  0.4989 -0.0999  0.1246
   33MOL    C4423148   6.026   0.252   5.306 -0.4014 -0.0355  0.1474
   33MOL    C4523149   5.889   0.294   5.356  0.6361  0.1685 -0.0120
   33MOL    O4623150   5.825   0.366   5.261  0.7188  0.0052 -0.4096
   33MOL    C4723151   5.692   0.374   5.270  1.0764  0.1885 -0.2385
   33MOL    O4823152   5.619   0.304   5.340  0.1779 -0.1311 -0.6111
   33MOL    C4923153   5.637   0.477   5.170 -0.5166 -0.1659 -0.4616
   33MOL    C5023154   5.736   0.487   5.049  0.2010  0.8204  0.3285
   33MOL    C5123155   5.494   0.452   5.123 -0.2822 -0.2007 -0.5750
   33MOL    H5223156   6.682   0.227   4.861 -4.6372 -0.2820 -0.4745
   33MOL    H5323157   6.715   0.133   5.009  0.4740 -0.6188 -0.0638
   33MOL    H5423158   6.707   0.306   5.020  1.1069 -0.1126 -1.9846
   33MOL    H5523159   6.479   0.121   4.962  3.3266  0.1118 -1.7287
   33MOL    H5623160   6.462   0.281   4.916 -2.6725  0.9277  0.8175
   33MOL    H5723161   6.471   0.193   5.209  0.4360  0.9702  0.4390
   33MOL    H5823162   6.495   0.356   5.180 -1.7705  1.3673  0.5415
   33MOL    H5923163   6.255   0.209   5.106  2.6824 -0.8031 -1.8567
   33MOL    H6023164   6.281   0.381   5.068  1.6426 -0.5900 -1.2326
   33MOL    H6123165   6.295   0.265   5.348  2.0765 -0.4465 -0.6035
   33MOL    H6223166   6.312   0.437   5.317  0.3435 -1.3869  1.9732
   33MOL    H6323167   6.107   0.420   5.399  0.6397 -0.5089  0.3421
   33MOL    H6423168   6.078   0.447   5.234 -0.1612 -0.7770 -0.2030
   33MOL    H6523169   6.060   0.164   5.361 -0.1431  0.2794  0.4949
   33MOL    H6623170   6.023   0.209   5.206  0.0886 -2.0059  0.9574
   33MOL    H6723171   5.903   0.365   5.437 -2.7705  1.2578 -0.3201
   33MOL    H6823172   5.823   0.216   5.394  0.2714  0.3887 -0.1928
   33MOL    H6923173   5.823   0.546   5.075 -0.1661  1.5615 -0.1071
   33MOL    H7023174   5.768   0.388   5.016  1.5466  1.0877  0.8047
   33MOL    H7123175   5.707   0.540   4.958  2.2611  0.3996 -0.6060
   33MOL    H7223176   5.464   0.553   5.094  2.4517  1.8413  3.2440
   33MOL    H7323177   5.434   0.436   5.212  0.7894  1.0693  0.4101
   33MOL    C7423178   4.660   0.621   4.286  0.3631 -0.2884  0.2409
   33MOL    C7523179   4.800   0.576   4.332 -0.2172 -0.1155  1.0923
   33MOL    C7623180   4.845   0.656   4.459 -0.2977  0.3332  0.7263
   33MOL    C7723181   4.994   0.617   4.490  0.4907 -0.3853 -0.1567
   33MOL    C7823182   5.061   0.691   4.607  0.0625  0.1668  0.0227
   33MOL    C7923183   5.203   0.616   4.632  0.4274 -0.4193 -0.5585
   33MOL    C8023184   5.295   0.684   4.721 -0.0304 -0.7806  0.2594
   33MOL    C8123185   5.426   0.604   4.740  0.7328 -0.1691 -0.3733
   33MOL    O8223186   5.407   0.517   4.853 -0.2170  0.4185  0.6594
   33MOL    C8323187   5.484   0.402   4.870  0.0650 -0.6782 -0.2533
   33MOL    O8423188   5.562   0.365   4.786 -0.1541  0.6136 -0.0879
   33MOL    C8523189   5.453   0.341   5.009 -0.5031  0.4401  0.0247
   33MOL    C8623190   5.537   0.211   5.028 -0.0829  0.5966 -0.1035
   33MOL    C8723191   5.294   0.316   5.009  0.3380 -1.3146 -0.0781
   33MOL    H8823192   4.624   0.549   4.213  0.2365  0.2585 -0.2423
   33MOL    H8923193   4.657   0.723   4.249  2.1294  0.2946  1.6213
   33MOL    H9023194   4.586   0.625   4.366  0.9670  0.7599  0.7598
   33MOL    H9123195   4.878   0.580   4.255 -0.8399 -0.4046  0.4472
   33MOL    H9223196   4.789   0.471   4.358 -2.2111 -1.1383 -3.4850
   33MOL    H9323197   4.830   0.755   4.417  0.4221 -0.0773 -0.5437
   33MOL    H9423198   4.767   0.651   4.534 -3.7307  0.6739 -2.6548
   33MOL    H9523199   5.049   0.643   4.399 -0.1696  0.4743 -0.3155
   33MOL    H9623200   5.011   0.509   4.495 -1.2904 -0.6531  0.5203
   33MOL    H9723201   5.070   0.797   4.583 -0.4462 -0.1729 -1.8116
   33MOL    H9823202   4.997   0.692   4.695 -2.0018 -4.3157 -1.2765
   33MOL    H9923203   5.185   0.522   4.685 -1.3351  1.0265  1.4979
   33MOL   H10023204   5.247   0.613   4.532 -0.0983  0.9430 -0.8437
   33MOL   H10123205   5.313   0.787   4.691  0.4382  0.1172  3.4231
   33MOL   H10223206   5.248   0.701   4.818  1.1237 -0.5137  0.7809
   33MOL   H10323207   5.500   0.680   4.767  0.9385 -0.6464  0.3968
   33MOL   H10423208   5.463   0.559   4.647  1.0623 -1.3627  0.3279
   33MOL   H10523209   5.517   0.161   5.122  1.0121  1.6715  0.7117
   33MOL   H10623210   5.645   0.223   5.030 -0.4930  4.5872  1.9265
   33MOL   H10723211   5.524   0.144   4.942  0.6140  0.2606  0.0445
   33MOL   H10823212   5.278   0.288   5.113  0.8145  0.7792  0.5757
   33MOL   H10923213   5.246   0.413   4.996 -2.2684 -2.7869 -2.0379
   33MOL   C11023214   5.242   6.998   5.555  0.9494 -0.2022  0.7830
   33MOL   C11123215   5.100   7.035   5.514 -0.0128  0.7357 -0.5327
   33MOL   C11223216   5.083   7.123   5.390  0.2768 -0.0491  0.4741
   33MOL   C11323217   5.151   7.259   5.400  0.4739  0.4347 -1.3564
   33MOL   C11423218   5.121   7.345   5.279  0.1162  0.7236 -0.1833
   33MOL   C11523219   5.188   7.483   5.285 -0.0484  0.3610  0.0166
   33MOL   C11623220   5.168   7.575   5.162  0.1399  0.3551 -0.3842
   33MOL   C11723221   5.235   7.712   5.184 -0.6460 -0.3973  0.3808
   33MOL   O11823222   5.189   0.034   5.099  0.2892 -0.4596 -0.3015
   33MOL   C11923223   5.250   0.060   4.981  0.0125 -0.1411  0.0464
   33MOL   O12023224   5.334   7.766   4.926 -0.1050 -0.4712 -0.3696
   33MOL   C12123225   5.221   0.200   4.921 -0.2519 -1.1408 -0.3712
   33MOL   C12223226   5.261   0.199   4.766  0.7366  0.2930  0.3283
   33MOL   C12323227   5.070   0.235   4.928 -0.0724  0.1556  0.3035
   33MOL   H12423228   5.246   6.920   5.631 -1.3121 -1.5425 -0.4495
   33MOL   H12523229   5.300   6.973   5.466  1.5512 -1.9945  1.6475
   33MOL   H12623230   5.288   7.087   5.598  2.0161  0.1258 -0.9503
   33MOL   H12723231   5.057   7.067   5.609 -0.7181 -2.2519  0.2097
   33MOL   H12823232   5.060   6.937   5.488  0.1099  0.6990 -0.5883
   33MOL   H12923233   4.975   7.140   5.385 -0.2406 -1.2747  4.7908
   33MOL   H13023234   5.114   7.065   5.304 -1.4510 -0.4259  0.0968
   33MOL   H13123235   5.114   7.305   5.491 -0.0293 -1.5776 -0.5061
   33MOL   H13223236   5.260   7.248   5.408  0.2465 -1.5033 -0.4784
   33MOL   H13323237   5.013   7.357   5.279  0.0940  0.8722  2.4858
   33MOL   H13423238   5.172   7.311   5.189  1.7471  0.4196  0.8142
   33MOL   H13523239   5.148   7.533   5.374 -2.1603 -2.2352  0.5775
   33MOL   H13623240   5.292   7.475   5.314 -0.4213  1.1189  1.6121
   33MOL   H13723241   5.064   7.577   5.130  0.3319 -1.9414 -1.2538
   33MOL   H13823242   5.200   7.525   5.071  1.5127 -1.9986  1.3477
   33MOL   H13923243   5.225   7.738   5.289  1.8858  0.5008  0.4426
   33MOL   H14023244   5.342   7.703   5.164 -0.8875 -1.9140 -0.3137
   33MOL   H14123245   5.219   0.282   4.710 -0.1030  0.4717  1.2091
   33MOL   H14223246   5.369   0.187   4.759  0.7226 -0.4610  1.2447
   33MOL   H14323247   5.226   0.106   4.720  0.0026  0.4847  0.4969
   33MOL   H14423248   5.052   0.335   4.889 -3.6313 -0.6831 -0.3569
   33MOL   H14523249   5.052   0.254   5.034  1.5688 -0.1038  0.6389
   33MOL   C14623250   5.509   7.265   4.204 -0.0664 -0.3860  0.3161
   33MOL   C14723251   5.408   7.326   4.298  0.1795 -0.5600  0.0583
   33MOL   C14823252   5.367   7.471   4.268 -0.3860 -0.6086  0.2655
   33MOL   C14923253   5.264   7.526   4.355  0.1454  0.2600 -0.0949
   33MOL   C15023254   5.245   7.488   4.504 -0.6432 -0.1777  0.3892
   33MOL   C15123255   5.143   7.572   4.589  0.2339  0.4345  0.4755
   33MOL   C15223256   5.135   7.515   4.735  0.2704 -0.2281  0.2031
   33MOL   C15323257   5.015   7.578   4.805 -0.3183  0.4969  0.6286
   33MOL   O15423258   5.025   7.720   4.808 -0.2382 -0.3597 -0.0356
   33MOL   C15523259   4.949   0.001   4.886  0.5307  0.3344 -0.6584
   33MOL   O15623260   4.877   7.732   4.973 -0.0801 -0.1702 -0.2447
   33MOL   C15723261   4.950   0.157   4.862  0.0965  0.6070 -0.1117
   33MOL   C15823262   4.830   0.201   4.941  0.3589 -0.4078 -0.8477
   33MOL   C15923263   4.935   0.191   4.708 -0.4352  0.4010 -0.8046
   33MOL   H16023264   5.468   7.258   4.104 -0.4163 -1.9374  0.5549
   33MOL   H16123265   5.540   7.168   4.243  0.2330  0.0339  1.1441
   33MOL   H16223266   5.597   7.329   4.193  0.3550 -1.2254 -1.3535
   33MOL   H16323267   5.319   7.263   4.297 -1.2423  1.4124 -1.1264
   33MOL   H16423268   5.442   7.326   4.402  2.0580 -1.3354 -0.5175
   33MOL   H16523269   5.343   7.475   4.161  1.5967 -0.1386 -0.1852
   33MOL   H16623270   5.452   7.538   4.280 -0.5224 -0.1290 -1.3049
   33MOL   H16723271   5.264   7.635   4.354  0.3855  0.2616  0.0725
   33MOL   H16823272   5.173   7.485   4.310  1.2556  0.0061 -2.1693
   33MOL   H16923273   5.339   7.514   4.554  0.4240 -0.1664 -1.5809
   33MOL   H17023274   5.248   7.379   4.510  0.0595 -0.2623 -1.3057
   33MOL   H17123275   5.047   7.563   4.538 -0.8959  0.9610  2.4720
   33MOL   H17223276   5.177   7.675   4.599  2.2907 -0.2621  0.7208
   33MOL   H17323277   5.126   7.406   4.735 -1.0073 -0.1376  1.3737
   33MOL   H17423278   5.228   7.545   4.784  1.9318 -3.3933 -0.8284
   33MOL   H17523279   4.928   7.552   4.743  0.1330  1.1131 -0.2802
   33MOL   H17623280   4.980   7.534   4.898  0.5168  0.5713  0.9795
   33MOL   H17723281   4.810   0.308   4.931 -1.5670 -0.5992  0.5750
   33MOL   H17823282   4.837   0.189   5.049 -1.1059  1.2468 -0.5357
   33MOL   H17923283   4.736   0.151   4.917 -0.5998 -0.6758  3.0289
   33MOL   H18023284   5.021   0.139   4.666 -0.0203 -0.1322  0.6558
   33MOL   H18123285   4.951   0.298   4.693 -1.5293  1.1725  2.8931
   33MOL   C18223286   5.055   0.561   5.229  0.2906  0.4034 -0.5548
   33MOL   C18323287   4.902   0.523   5.247  0.3930 -0.3433 -0.4209
   33MOL   C18423288   4.819   0.581   5.130  0.0672 -0.6726  0.1879
   33MOL   C18523289   4.668   0.540   5.135 -0.6743 -0.0738  0.2459
   33MOL   C18623290   4.579   0.617   5.040  0.5160  0.2203 -0.0539
   33MOL   C18723291   4.610   0.592   4.889  0.0208 -0.3344 -0.3571
   33MOL   C18823292   4.550   0.459   4.840  0.2536 -0.1117 -0.1105
   33MOL   C18923293   4.580   0.432   4.693  0.1871  0.3989  0.4528
   33MOL   O19023294   4.695   0.352   4.663 -0.1619  0.9277  0.1748
   33MOL   C19123295   4.685   0.219   4.670  0.1665 -0.1384  0.5615
   33MOL   O19223296   4.571   0.168   4.685 -0.1853 -0.0407 -0.4931
   33MOL   C19323297   4.811   0.147   4.623 -0.6532  0.0529 -0.1729
   33MOL   C19423298   4.776   7.776   4.630  0.6376  0.1324 -0.9336
   33MOL   C19523299   4.838   0.188   4.476 -1.0535 -0.1241  0.3470
   33MOL   H19623300   5.086   0.656   5.272  0.5710 -0.2508  0.6951
   33MOL   H19723301   5.116   0.483   5.274 -1.9269 -0.5586  0.9073
   33MOL   H19823302   5.085   0.557   5.124  0.7205 -1.6018 -0.3754
   33MOL   H19923303   4.863   0.565   5.339  0.2332  0.2770 -0.7654
   33MOL   H20023304   4.890   0.415   5.258  0.9265 -0.2225  1.5876
   33MOL   H20123305   4.818   0.689   5.142 -1.6703 -0.7798  1.2212
   33MOL   H20223306   4.871   0.553   5.038  1.4396 -0.9066  1.0272
   33MOL   H20323307   4.657   0.433   5.116 -1.4239 -0.0218  0.3962
   33MOL   H20423308   4.620   0.557   5.232 -0.0579 -0.4515  0.6246
   33MOL   H20523309   4.598   0.724   5.055 -1.0024  0.4107  0.5309
   33MOL   H20623310   4.473   0.610   5.062  0.2605 -0.4075 -1.4196
   33MOL   H20723311   4.717   0.587   4.872  0.2303 -1.5529  1.2011
   33MOL   H20823312   4.565   0.670   4.828  0.5490  1.9248  2.0844
   33MOL   H20923313   4.578   0.375   4.903  0.4747 -0.8820 -1.2133
   33MOL   H21023314   4.442   0.470   4.850  0.4780  2.3361  0.0658
   33MOL   H21123315   4.593   0.530   4.647  3.9456 -1.6247 -3.1681
   33MOL   H21223316   4.494   0.383   4.649 -0.0992  0.7080  0.6633
   33MOL   H21323317   4.693   7.747   4.565  0.4649 -3.8883  0.9437
   33MOL   H21423318   4.860   7.710   4.609  0.6689 -0.0566 -0.2227
   33MOL   H21523319   4.729   7.754   4.726 -0.4611 -3.0549 -2.1288
   33MOL   H21623320   4.739   0.205   4.434  0.1109  0.1037 -2.4042
   33MOL   H21723321   4.873   0.291   4.485 -2.0519  0.1916  0.7421
   33MOL   C21823322   4.087   7.045   4.500 -0.0013  0.6823 -0.1382
   33MOL   C21923323   4.199   7.081   4.405  0.2161  0.7912 -0.2947
   33MOL   C22023324   4.200   7.234   4.392 -0.5766 -0.2419 -0.5046
   33MOL   C22123325   4.334   7.285   4.321  0.3385 -0.0473  0.3091
   33MOL   C22223326   4.356   7.432   4.350 -0.2276 -0.7338 -0.0301
   33MOL   C22323327   4.462   7.488   4.258 -0.3138  0.7530 -0.2639
   33MOL   C22423328   4.539   7.600   4.319 -0.3921 -0.4121  0.1614
   33MOL   C22523329   4.653   7.654   4.232 -0.6619 -0.1579 -0.4258
   33MOL   O22623330   4.721   7.770   4.274  0.2934 -0.4298 -0.0821
   33MOL   C22723331   4.847   7.761   4.329  0.1680  0.9934  0.0935
   33MOL   O22823332   4.894   7.655   4.356  0.4039  0.4840  0.1260
   33MOL   C22923333   4.914   0.113   4.367  0.0520  0.0880  0.2183
   33MOL   C23023334   5.067   0.085   4.409 -0.5227  0.2968 -0.2060
   33MOL   C23123335   4.911   0.212   4.240  0.0677 -0.4135  0.1091
   33MOL   H23223336   3.988   7.050   4.456  0.0045 -0.1830 -0.2581
   33MOL   H23323337   4.098   7.102   4.592 -0.2818 -2.2852  1.7873
   33MOL   H23423338   4.107   6.948   4.545 -1.2152  0.2572 -0.5015
   33MOL   H23523339   4.195   7.021   4.314 -0.4324  2.0972 -1.1327
   33MOL   H23623340   4.291   7.058   4.458  2.0390  1.8364 -2.9003
   33MOL   H23723341   4.119   7.273   4.330 -0.3113  0.8990 -0.1589
   33MOL   H23823342   4.185   7.280   4.490  1.9767  0.4376 -0.4049
   33MOL   H23923343   4.419   7.221   4.344  0.1285 -0.6270 -0.5317
   33MOL   H24023344   4.331   7.283   4.212 -1.1325  3.8568  0.1856
   33MOL   H24123345   4.261   7.484   4.336  0.9197  1.2198 -0.7237
   33MOL   H24223346   4.383   7.443   4.455 -1.1134 -3.0421  0.4738
   33MOL   H24323347   4.529   7.403   4.250 -0.2585  0.7543  0.1451
   33MOL   H24423348   4.418   7.515   4.162  1.3231  0.0907 -1.2087
   33MOL   H24523349   4.576   7.568   4.416 -0.2683 -0.6620  0.0325
   33MOL   H24623350   4.460   7.674   4.331 -1.5500 -1.1359 -2.6585
   33MOL   H24723351   4.601   7.675   4.139  1.9453  0.4249 -1.7875
   33MOL   H24823352   4.718   7.572   4.203 -1.3564 -1.6189  1.9434
   33MOL   H24923353   5.055   0.010   4.487  0.0397  2.0565  1.6138
   33MOL   H25023354   5.122   0.168   4.454 -0.3410 -1.0232  2.1050
   33MOL   H25123355   5.132   0.044   4.331 -0.3459  1.0528 -0.4560
   33MOL   H25223356   4.806   0.223   4.212  0.2289 -1.1826 -0.8075
   33MOL   H25323357   4.943   0.310   4.277  1.5941 -0.1152 -1.8979
   33MOL   C25423358   5.512   0.735   3.560  0.1778  0.0849  0.7189
   33MOL   C25523359   5.437   0.665   3.672 -0.0388 -0.3844  0.0789
   33MOL   C25623360   5.289   0.700   3.677 -0.5008  0.1533  0.4214
   33MOL   C25723361   5.230   0.666   3.808 -0.0597  0.7102  0.6812
   33MOL   C25823362   5.077   0.663   3.793 -0.2286  0.7262  0.2808
   33MOL   C25923363   5.016   0.673   3.936 -0.0983 -0.1798  0.1428
   33MOL   C26023364   4.868   0.632   3.945 -0.6073  0.1623 -1.3166
   33MOL   C26123365   4.843   0.483   3.912 -0.6426 -0.4399  0.0394
   33MOL   O26223366   4.895   0.401   4.023 -0.1970 -0.2429  0.1304
   33MOL   C26323367   4.908   0.272   3.995  0.2464 -1.0046  0.0994
   33MOL   O26423368   4.863   0.214   3.897  0.1033 -0.0495 -0.4420
   33MOL   C26523369   4.984   0.198   4.110  0.3334 -0.1843  0.3702
   33MOL   C26623370   4.974   0.047   4.067 -0.6027  0.1356 -0.3105
   33MOL   C26723371   5.127   0.258   4.121  0.0415  0.9452 -0.0289
   33MOL   H26823372   5.618   0.721   3.579  0.5214  0.4833 -0.8213
   33MOL   H26923373   5.493   0.688   3.463  0.7702  0.1065  0.5876
   33MOL   H27023374   5.498   0.842   3.545  1.3872  0.1458 -0.0279
   33MOL   H27123375   5.463   0.559   3.676  2.2753  0.2480  3.3082
   33MOL   H27223376   5.473   0.701   3.768  1.7791 -3.1006  0.4826
   33MOL   H27323377   5.247   0.639   3.597 -1.5293  1.6016 -0.1577
   33MOL   H27423378   5.282   0.802   3.640 -0.0044 -0.1154 -0.4270
   33MOL   H27523379   5.264   0.740   3.881  0.1372  3.1574 -1.8398
   33MOL   H27623380   5.261   0.570   3.848 -2.5466 -0.6526 -0.5791
   33MOL   H27723381   5.041   0.743   3.728 -1.8447 -0.3333 -0.1660
   33MOL   H27823382   5.055   0.562   3.758  4.6572 -0.8689  1.3946
   33MOL   H27923383   5.016   0.770   3.984 -1.5701  0.1653 -0.5346
   33MOL   H28023384   5.066   0.617   4.015  2.9200  0.1030 -1.4610
   33MOL   H28123385   4.836   0.640   4.049  1.0798 -0.8010 -0.7087
   33MOL   H28223386   4.817   0.708   3.885  0.5484  1.5767 -0.5241
   33MOL   H28323387   4.736   0.466   3.898 -0.5659 -1.0262  0.1157
   33MOL   H28423388   4.884   0.457   3.815  1.6318  1.3471  0.4689
   33MOL   H28523389   5.019   0.035   3.969  1.0473  1.1448  0.3101
   33MOL   H28623390   5.026   7.754   4.130 -0.2995 -0.6009 -1.3928
   33MOL   H28723391   4.872   0.013   4.048 -0.1328 -1.6541  0.2478
   33MOL   H28823392   5.175   0.203   4.202 -0.0227 -0.8386 -1.1622
   33MOL   H28923393   5.109   0.359   4.155 -3.2066 -0.4084  2.5370
   33MOL   C29023394   6.140   7.656   3.601  0.5337 -0.1495  0.3802
   33MOL   C29123395   6.020   7.563   3.582  0.3625 -0.4914  0.1213
   33MOL   C29223396   5.885   7.639   3.543 -0.4679 -0.1825  0.6161
   33MOL   C29323397   5.762   7.549   3.520  0.2895  0.1950  0.2632
   33MOL   C29423398   5.619   7.619   3.525  0.1222 -0.5063 -0.3350
   33MOL   C29523399   5.583   7.650   3.680  0.1376  0.5837  0.6855
   33MOL   C29623400   5.459   7.724   3.705  0.1500  0.0548  0.1872
   33MOL   C29723401   5.442   7.749   3.857 -0.6859  0.0684  0.3827
   33MOL   O29823402   5.359   0.088   3.874 -0.3682 -0.9472  0.0166
   33MOL   C29923403   5.298   0.111   3.995  0.4270  0.2788 -0.5034
   33MOL   O30023404   5.296   0.030   4.087  0.3213 -0.0182  0.6293
   33MOL   C30123405   5.233   0.248   4.000 -1.0298 -0.5816  0.3540
   33MOL   C30223406   5.173   0.280   3.858  0.1049  0.2019 -0.0507
   33MOL   C30323407   5.347   0.358   4.032 -0.0731 -0.0388 -0.3088
   33MOL   H30423408   6.233   7.599   3.601  0.6551  0.0356 -0.5204
   33MOL   H30523409   6.138   7.719   3.690  0.3041 -2.1653  1.8341
   33MOL   H30623410   6.156   7.732   3.524  0.9141 -0.8621 -0.2539
   33MOL   H30723411   6.005   7.511   3.677  0.7018 -0.9094 -0.0541
   33MOL   H30823412   6.043   7.487   3.508  4.3130  0.8926 -0.1756
   33MOL   H30923413   5.898   7.694   3.450 -0.8261  0.1289  0.7510
   33MOL   H31023414   5.867   7.714   3.620  0.6629  1.9459 -1.1324
   33MOL   H31123415   5.783   7.485   3.434 -1.9742  0.3642 -0.4681
   33MOL   H31223416   5.759   7.469   3.593  2.6899 -1.0387 -0.9283
   33MOL   H31323417   5.622   7.718   3.480 -1.0797 -0.4200 -0.2397
   33MOL   H31423418   5.527   7.567   3.498 -1.3688  0.7061  2.2028
   33MOL   H31523419   5.665   7.700   3.731  0.0767  1.2297  0.1466
   33MOL   H31623420   5.570   7.559   3.740 -0.1289  1.0140  1.2793
   33MOL   H31723421   5.374   7.679   3.653 -0.4444  1.7533 -0.3694
   33MOL   H31823422   5.479   0.039   3.654  0.4138 -0.5585 -0.8563
   33MOL   H31923423   5.538   7.776   3.901 -0.8393 -1.0694  1.4521
   33MOL   H32023424   5.407   7.659   3.908 -0.4301  0.5239  1.3591
   33MOL   H32123425   5.249   0.311   3.787  0.3998 -1.1234 -0.3403
   33MOL   H32223426   5.096   0.357   3.862  1.1374  1.2091  0.5210
   33MOL   H32323427   5.124   0.188   3.826 -1.4152  0.3739  1.6810
   33MOL   H32423428   5.397   0.381   3.938  3.3233 -0.3748  1.3472
   33MOL   H32523429   5.290   0.447   4.057 -0.2020 -0.0747 -0.4725
   33MOL   C32623430   5.847   7.243   4.502  0.1345 -0.3398 -0.3206
   33MOL   C32723431   5.838   7.394   4.497  0.7509 -0.9304 -0.4558
   33MOL   C32823432   5.804   7.460   4.631  0.4668  0.7845 -0.3062
   33MOL   C32923433   5.765   7.606   4.613 -0.6206  0.5038 -0.9879
   33MOL   C33023434   5.626   7.623   4.550  0.3374  0.3578 -0.4546
   33MOL   C33123435   5.609   7.772   4.516 -0.2540  0.7136  0.2839
   33MOL   C33223436   5.464   0.022   4.486  0.3663 -0.5265  0.3279
   33MOL   C33323437   5.445   0.175   4.471 -0.7635  0.4505  0.3923
   33MOL   O33423438   5.478   0.202   4.335 -0.1501  0.1762 -0.0108
   33MOL   C33523439   5.405   0.297   4.274 -0.5963  0.4949 -0.2153
   33MOL   O33623440   5.314   0.365   4.325  0.3838 -0.3324 -0.3647
   33MOL   C33723441   5.465   0.335   4.136 -0.3731  0.7060 -0.5282
   33MOL   C33823442   5.571   0.235   4.081  0.4557 -0.8233  0.2961
   33MOL   C33923443   5.527   0.479   4.146  0.1015 -0.6664 -0.4470
   33MOL   H34023444   5.921   7.210   4.575  0.1082 -0.7325 -0.4694
   33MOL   H34123445   5.874   7.208   4.403  2.0081  0.5666 -0.1348
   33MOL   H34223446   5.756   7.194   4.539 -1.5569  1.4321 -2.0272
   33MOL   H34323447   5.767   7.431   4.424  4.0375  3.1063 -1.7978
   33MOL   H34423448   5.928   7.432   4.449 -1.3743  2.9377 -1.5721
   33MOL   H34523449   5.896   7.459   4.690 -1.4495  2.8867  2.8761
   33MOL   H34623450   5.716   7.412   4.673 -0.8347  0.9263 -2.8159
   33MOL   H34723451   5.843   7.652   4.552 -0.2826  0.9788 -0.1986
   33MOL   H34823452   5.767   7.653   4.711 -0.6467  0.4505 -0.9612
   33MOL   H34923453   5.609   7.561   4.462  2.6552 -0.3985 -0.4204
   33MOL   H35023454   5.552   7.591   4.622  0.4315 -0.5290 -0.7422
   33MOL   H35123455   5.637   0.050   4.604 -0.3575  2.1027 -0.5890
   33MOL   H35223456   5.677   0.019   4.436 -0.8866 -2.6949 -1.4700
   33MOL   H35323457   5.404   7.772   4.572  2.9232 -1.8913  1.6766
   33MOL   H35423458   5.440   7.747   4.395  1.5377  0.0393 -0.3217
   33MOL   H35523459   5.342   0.204   4.496 -1.3635 -1.2485 -0.0176
   33MOL   H35623460   5.511   0.226   4.541  0.0753 -0.1878  0.0597
   33MOL   H35723461   5.666   0.250   4.132  1.5078  0.0412 -1.8654
   33MOL   H35823462   5.543   0.130   4.081  2.1739 -1.3390 -2.8572
   33MOL   H35923463   5.583   0.250   3.974  1.1277 -1.1289  0.3259
   33MOL   H36023464   5.515   0.524   4.048  0.5378 -0.2738 -0.3239
   33MOL   H36123465   5.465   0.542   4.210  0.6169  0.5069 -1.0891
   33MOL   C36223466   6.169   0.191   3.168  0.2995 -0.2100 -0.0333
   33MOL   C36323467   6.106   0.150   3.300  0.1911 -0.6570 -0.1301
   33MOL   C36423468   6.025   0.261   3.360 -0.4853 -0.0451  0.8163
   33MOL   C36523469   5.939   0.217   3.476 -0.0025 -0.5546 -0.0552
   33MOL   C36623470   5.887   0.334   3.568 -0.5846  0.0501  0.1369
   33MOL   C36723471   5.758   0.294   3.647 -0.1923  0.4814  0.6204
   33MOL   C36823472   5.716   0.405   3.750  0.5574  0.2722  0.5657
   33MOL   C36923473   5.818   0.417   3.860  0.0684  0.1943 -0.2445
   33MOL   O37023474   5.747   0.488   3.964 -0.3681  0.2612 -0.1559
   33MOL   C37123475   5.778   0.460   4.093 -0.2904 -0.1929 -0.4452
   33MOL   O37223476   5.874   0.388   4.124 -0.3808 -0.1464 -0.1297
   33MOL   C37323477   5.677   0.510   4.202 -0.6127  0.4466  0.4344
   33MOL   C37423478   5.711   0.439   4.337  0.5640  0.0004  0.2273
   33MOL   C37523479   5.708   0.670   4.213  0.5682 -0.5430 -0.2270
   33MOL   H37623480   6.251   0.128   3.132 -0.2201  0.0684 -1.7473
   33MOL   H37723481   6.094   0.201   3.089  1.1600 -1.3281 -1.0237
   33MOL   H37823482   6.219   0.288   3.177 -0.6698  0.3083 -0.1490
   33MOL   H37923483   6.196   0.127   3.356 -2.2806 -0.3080  4.2350
   33MOL   H38023484   6.052   0.056   3.300  0.9148 -1.0941 -1.9805
   33MOL   H38123485   5.978   0.332   3.291 -0.3743  0.7047  1.5049
   33MOL   H38223486   6.102   0.328   3.398  0.8050 -1.3703  0.5606
   33MOL   H38323487   5.996   0.153   3.544 -0.2159 -0.5030  0.1743
   33MOL   H38423488   5.854   0.155   3.448 -0.3235 -1.1634  2.1547
   33MOL   H38523489   5.975   0.370   3.622 -1.1386  0.0828  1.0248
   33MOL   H38623490   5.865   0.420   3.506 -2.2526 -0.7246 -0.3824
   33MOL   H38723491   5.773   0.206   3.711  1.9805 -0.9397 -1.7332
   33MOL   H38823492   5.670   0.288   3.583 -0.6457  1.2494  1.1670
   33MOL   H38923493   5.616   0.376   3.782  1.2515 -2.3216  0.5304
   33MOL   H39023494   5.715   0.504   3.705 -0.0551 -1.2405 -2.8788
   33MOL   H39123495   5.842   0.316   3.894  0.2159  0.3430  0.1019
   33MOL   H39223496   5.913   0.463   3.834  0.6497 -1.0279 -0.3534
   33MOL   H39323497   5.724   0.332   4.323 -1.6171 -0.0638 -1.5579
   33MOL   H39423498   5.810   0.465   4.373  1.0910 -1.0049 -0.4671
   33MOL   H39523499   5.641   0.461   4.418  1.7121 -0.7372  1.4467
   33MOL   H39623500   5.808   0.673   4.255  0.1500 -1.1985  0.8506
   33MOL   H39723501   5.718   0.699   4.108  0.7454  1.0261  0.2134
   33MOL   C39823502   4.910   1.473   4.280  0.0495 -0.6558 -0.3572
   33MOL   C39923503   4.955   1.363   4.186  0.1631  0.5221  0.9118
   33MOL   C40023504   4.880   1.229   4.207 -0.4180 -0.4446  0.0096
   33MOL   C40123505   4.933   1.157   4.329 -0.5899 -0.0878  0.1540
   33MOL   C40223506   4.912   1.007   4.323  0.6013  0.0152  0.2223
   33MOL   C40323507   5.010   0.941   4.228  0.0942  0.1132 -0.9095
   33MOL   C40423508   5.151   0.926   4.287 -0.0786  0.1427  0.9647
   33MOL   C40523509   5.240   0.835   4.210 -0.1543 -0.9835  0.6801
   33MOL   O40623510   5.370   0.816   4.272 -0.2154 -0.0531  0.4892
   33MOL   C40723511   5.486   0.805   4.203  0.2088 -0.4701 -0.6081
   33MOL   O40823512   5.490   0.811   4.082  0.1021  0.3982 -0.2851
   33MOL   C40923513   5.615   0.772   4.288  0.2049  0.1594 -0.1028
   33MOL   C41023514   5.572   0.711   4.426  0.1533  0.4241  0.3728
   33MOL   C41123515   5.702   0.905   4.297 -0.8420  0.2813 -0.4204
   33MOL   H41223516   4.808   1.508   4.263 -0.1966 -1.7046 -1.0775
   33MOL   H41323517   4.977   1.559   4.288 -0.4511 -0.2584 -0.3769
   33MOL   H41423518   4.912   1.443   4.385  0.0112 -1.6215 -0.6258
   33MOL   H41523519   5.064   1.361   4.183  0.1057  0.1067 -1.2781
   33MOL   H41623520   4.926   1.401   4.089 -0.2043  0.4861  1.0052
   33MOL   H41723521   4.773   1.246   4.219 -0.1395  0.3736  1.4468
   33MOL   H41823522   4.902   1.164   4.122  1.5266  1.1615 -0.7739
   33MOL   H41923523   4.872   1.186   4.415 -2.0339  0.6813 -1.0974
   33MOL   H42023524   5.032   1.190   4.358 -1.7616  1.3861  2.6736
   33MOL   H42123525   4.915   0.961   4.422 -4.0043 -1.2263 -0.1007
   33MOL   H42223526   4.810   0.996   4.286  0.0416 -0.9751  1.9841
   33MOL   H42323527   5.019   0.993   4.132  1.6950  1.4509 -0.0752
   33MOL   H42423528   4.968   0.842   4.212 -1.3035  1.0526 -3.3830
   33MOL   H42523529   5.197   1.024   4.292 -1.2478  0.7901 -0.3405
   33MOL   H42623530   5.146   0.892   4.390  1.2305 -0.1475  0.9438
   33MOL   H42723531   5.192   0.737   4.203 -2.4481  0.1111  0.5621
   33MOL   H42823532   5.244   0.876   4.109 -0.1790  1.1808  1.5140
   33MOL   H42923533   5.498   0.637   4.398  2.3393 -2.5029  2.1302
   33MOL   H43023534   5.513   0.780   4.487  0.0116 -0.2475  0.9935
   33MOL   H43123535   5.653   0.663   4.481 -0.2009  0.9144  1.3392
   33MOL   H43223536   5.685   0.956   4.202 -3.5971  1.4019  0.6487
   33MOL   H43323537   5.809   0.881   4.300 -1.2212 -1.6764 -1.5760
   33MOL   C43423538   6.204   0.112   4.817 -0.3747 -0.1365  0.2852
   33MOL   C43523539   6.056   0.097   4.859 -0.5369 -0.9099  1.1770
   33MOL   C43623540   5.967   0.199   4.775 -0.4784 -0.6825  0.6000
   33MOL   C43723541   5.991   0.337   4.822 -0.6109 -0.2740  0.9788
   33MOL   C43823542   5.897   0.436   4.746 -0.1317  0.0340  0.0921
   33MOL   C43923543   5.946   0.585   4.763  0.3780  0.2495  0.4484
   33MOL   C44023544   5.862   0.674   4.669 -0.3584 -0.1847  0.5990
   33MOL   C44123545   5.896   0.819   4.667  0.0046  0.2207  0.0535
   33MOL   O44223546   5.846   0.887   4.553  0.5000  0.3419 -0.2780
   33MOL   C44323547   5.730   0.954   4.550 -0.2383  0.3067 -0.3849
   33MOL   O44423548   5.651   0.948   4.645 -0.3913  0.1916  0.6063
   33MOL   C44523549   5.698   1.020   4.408 -0.2092 -0.1001 -0.0103
   33MOL   C44623550   5.553   1.080   4.412 -0.1838  0.5915 -0.0409
   33MOL   C44723551   5.807   1.127   4.367  0.2862 -0.0183 -0.1812
   33MOL   H44823552   6.269   0.061   4.888 -0.2236  0.7385  0.7779
   33MOL   H44923553   6.244   0.213   4.818  0.4551 -0.4602  0.3209
   33MOL   H45023554   6.226   0.064   4.721  0.6883  0.3144  0.2899
   33MOL   H45123555   6.033   0.091   4.965 -2.4860 -0.5660  0.7928
   33MOL   H45223556   6.029   7.778   4.822 -2.8889  0.5006 -1.1039
   33MOL   H45323557   5.862   0.173   4.782 -0.5419 -0.7387 -0.5350
   33MOL   H45423558   5.994   0.180   4.671 -3.1062 -4.6261  0.5157
   33MOL   H45523559   6.095   0.366   4.813 -0.7584  0.6796  2.1780
   33MOL   H45623560   5.965   0.338   4.928 -1.2128  2.6528  0.8404
   33MOL   H45723561   5.891   0.414   4.639  0.0619  0.8774 -0.0903
   33MOL   H45823562   5.797   0.431   4.790 -0.2447  0.1277 -0.1547
   33MOL   H45923563   6.052   0.590   4.736  0.0433  1.3306 -0.7173
   33MOL   H46023564   5.941   0.613   4.868 -1.1465 -0.9189  0.7001
   33MOL   H46123565   5.867   0.628   4.570 -1.6561  2.2321 -0.6344
   33MOL   H46223566   5.756   0.672   4.696 -0.2214  1.6229  1.3025
   33MOL   H46323567   6.005   0.825   4.673 -0.0966  0.3134  2.0637
   33MOL   H46423568   5.874   0.857   4.767  1.4006  0.2838  0.3385
   33MOL   H46523569   5.544   1.167   4.477  2.2089 -0.1178  1.2737
   33MOL   H46623570   5.540   1.130   4.316  0.5614  0.3064 -0.2942
   33MOL   H46723571   5.477   1.003   4.430  0.0201  0.3294 -0.2862
   33MOL   H46823572   5.900   1.071   4.374  0.6422  0.7064  0.9344
   33MOL   H46923573   5.791   1.148   4.261  0.3677 -3.8676 -1.0380
   33MOL   C47023574   6.260   2.103   4.684  1.5344  0.4964  0.0334
   33MOL   C47123575   6.142   2.035   4.755 -0.6500  0.2338 -0.0495
   33MOL   C47223576   6.029   2.002   4.654 -0.2384  0.2078 -0.0989
   33MOL   C47323577   5.939   1.893   4.704  0.0733  0.2461 -0.1420
   33MOL   C47423578   5.875   1.816   4.582 -0.1210 -0.9157  0.7740
   33MOL   C47523579   5.766   1.720   4.610  0.6380  0.2642 -0.0974
   33MOL   C47623580   5.667   1.690   4.496 -0.8121  0.6903 -0.1514
   33MOL   C47723581   5.723   1.621   4.360 -0.2421  0.3498  0.1795
   33MOL   O47823582   5.772   1.497   4.415 -0.0521 -0.6789  0.0420
   33MOL   C47923583   5.741   1.377   4.375 -0.1114  0.1947  0.2879
   33MOL   O48023584   5.655   1.360   4.284  0.4535  0.1084  0.1517
   33MOL   C48123585   5.828   1.270   4.433 -1.1516 -0.3301  0.1692
   33MOL   C48223586   5.811   1.265   4.586  0.3563  0.9351 -0.1210
   33MOL   C48323587   5.985   1.310   4.420 -0.0436 -0.4018 -0.3261
   33MOL   H48423588   6.328   2.164   4.744 -0.8938 -0.4467  3.9584
   33MOL   H48523589   6.219   2.175   4.614  0.2517  0.7355  1.0026
   33MOL   H48623590   6.313   2.027   4.628  0.0672 -1.5729  1.3706
   33MOL   H48723591   6.189   1.949   4.803 -2.0476 -1.1083 -1.0419
   33MOL   H48823592   6.109   2.098   4.837 -2.1267  0.1753 -0.5913
   33MOL   H48923593   5.973   2.093   4.629  0.0064  0.9355  1.9037
   33MOL   H49023594   6.078   1.972   4.561 -1.4387 -1.1003 -0.3261
   33MOL   H49123595   5.987   1.820   4.768 -0.1992 -1.2832 -1.6332
   33MOL   H49223596   5.854   1.933   4.759  0.3162 -1.2177  1.3197
   33MOL   H49323597   5.841   1.891   4.510  0.2127 -2.2733 -0.8272
   33MOL   H49423598   5.955   1.757   4.537  1.1419  0.4291  1.2100
   33MOL   H49523599   5.809   1.624   4.638 -1.7943 -0.7697  0.2915
   33MOL   H49623600   5.709   1.751   4.698 -0.3756  0.0157 -0.6574
   33MOL   H49723601   5.583   1.641   4.544 -0.3199 -0.3111 -0.3025
   33MOL   H49823602   5.622   1.781   4.454 -1.8512  0.5414  0.6288
   33MOL   H49923603   5.809   1.675   4.319 -0.2920 -0.3107 -0.7951
   33MOL   H50023604   5.641   1.611   4.289 -0.0906 -2.8020  0.3679
   33MOL   H50123605   5.863   1.180   4.629 -0.0519  1.0276  0.5738
   33MOL   H50223606   5.703   1.253   4.602  0.4727  0.7045  0.5153
   33MOL   H50323607   5.836   1.359   4.635  0.8124  1.4095 -1.2474
   33MOL   H50423608   5.997   1.400   4.481  2.6431 -1.4058  0.6961
   33MOL   H50523609   6.036   1.241   4.487 -1.2434 -1.4838 -0.5024
   33MOL   C50623610   6.514   1.127   4.946  0.1381 -0.8166  0.3725
   33MOL   C50723611   6.510   1.052   4.811 -0.5704  0.6276 -0.0148
   33MOL   C50823612   6.370   1.058   4.749 -0.1597  0.3456 -0.2432
   33MOL   C50923613   6.360   0.965   4.639  0.4428 -0.1765 -0.2328
   33MOL   C51023614   6.221   0.963   4.563 -0.5725  0.2646 -0.4425
   33MOL   C51123615   6.197   0.857   4.459  0.6170  0.0031 -0.0955
   33MOL   C51223616   6.261   0.893   4.319 -0.0178 -0.0823  0.9019
   33MOL   C51323617   6.161   0.962   4.220  0.7947  0.3624  0.2187
   33MOL   O51423618   6.137   1.100   4.272  0.0609  0.4866 -0.0989
   33MOL   C51523619   6.063   1.188   4.199 -0.1271 -0.0201  0.6081
   33MOL   O51623620   6.017   1.174   4.086 -0.0138  0.0661  0.5207
   33MOL   C51723621   6.053   1.326   4.275 -0.2064 -0.1340  0.4256
   33MOL   C51823622   5.982   1.414   4.165  0.2966 -0.3859  0.1115
   33MOL   C51923623   6.208   1.366   4.291  0.0026 -0.7471 -1.1326
   33MOL   H52023624   6.474   1.067   5.028  1.9272 -1.3417  0.8880
   33MOL   H52123625   6.475   1.227   4.926  1.8038 -0.2608 -0.1834
   33MOL   H52223626   6.617   1.144   4.977 -0.2134  2.1712  0.0087
   33MOL   H52323627   6.517   0.945   4.831 -1.2060  0.5965  0.0318
   33MOL   H52423628   6.594   1.077   4.745 -0.7940 -1.7038 -1.2531
   33MOL   H52523629   6.296   1.030   4.825 -1.0305  1.6621 -0.5903
   33MOL   H52623630   6.344   1.158   4.715  1.6620  0.8308 -0.2555
   33MOL   H52723631   6.432   0.996   4.563 -0.2105 -0.0187 -0.7913
   33MOL   H52823632   6.380   0.864   4.674  1.0855  0.1739  0.4184
   33MOL   H52923633   6.142   0.979   4.636 -1.8002  0.2869 -1.7448
   33MOL   H53023634   6.222   1.055   4.505 -0.8778  0.6360  0.1434
   33MOL   H53123635   6.092   0.835   4.436  0.9092 -0.1985 -1.2805
   33MOL   H53223636   6.243   0.762   4.483  0.8627 -0.7606 -3.3846
   33MOL   H53323637   6.295   0.808   4.260  1.9251  1.2602 -0.0077
   33MOL   H53423638   6.353   0.951   4.324  0.1968 -0.2834 -0.3874
   33MOL   H53523639   6.063   0.916   4.205  1.5027 -1.3895  0.9460
   33MOL   H53623640   6.196   0.978   4.118  1.5232  1.2284  0.6004
   33MOL   H53723641   5.960   1.517   4.194 -0.7088 -1.1260  2.0662
   33MOL   H53823642   5.893   1.368   4.122 -0.5530  2.6198 -1.4590
   33MOL   H53923643   6.040   1.428   4.073  0.6449  3.1413  0.7865
   33MOL   H54023644   6.274   1.286   4.325 -0.4775  0.4417  2.8841
   33MOL   H54123645   6.242   1.374   4.188 -0.3584 -0.3337 -1.2196
   33MOL   C54223646   6.215   1.154   5.202  0.3793  0.2978  0.3992
   33MOL   C54323647   6.212   1.293   5.158 -0.6124 -0.2064  0.3998
   33MOL   C54423648   6.333   1.375   5.199 -0.1233  0.2341  0.5674
   33MOL   C54523649   6.334   1.516   5.146 -0.3221 -0.1025  0.7176
   33MOL   C54623650   6.351   1.520   4.994 -0.5808  0.2346  0.2172
   33MOL   C54723651   6.326   1.662   4.944 -0.3874 -0.7423  0.1828
   33MOL   C54823652   6.335   1.666   4.791  0.4197  0.2248 -0.1491
   33MOL   C54923653   6.207   1.618   4.723  0.5591  0.0150 -0.1921
   33MOL   O55023654   6.228   1.610   4.584 -0.0103  0.0277 -0.2140
   33MOL   C55123655   6.231   1.486   4.523 -0.8895 -1.5001  0.1958
   33MOL   O55223656   6.235   1.377   4.578  0.5075 -0.4109 -0.5193
   33MOL   C55323657   6.249   1.500   4.367 -0.0415  0.3333  0.5580
   33MOL   C55423658   6.169   1.617   4.313  0.7052 -0.1507  0.0487
   33MOL   C55523659   6.395   1.547   4.326  0.2282 -0.3103  0.2457
   33MOL   H55623660   6.120   1.100   5.203  1.7056 -2.1403 -0.2197
   33MOL   H55723661   6.264   1.150   5.299  1.4967  0.4401 -0.1519
   33MOL   H55823662   6.279   1.094   5.136 -0.4464  2.1540 -2.1729
   33MOL   H55923663   6.193   1.286   5.051 -1.5072 -2.6571  0.6870
   33MOL   H56023664   6.120   1.340   5.192 -1.4538 -1.4145 -0.1820
   33MOL   H56123665   6.428   1.328   5.173  0.5433  1.2285  1.1223
   33MOL   H56223666   6.328   1.386   5.308 -2.5186  0.3958  0.4683
   33MOL   H56323667   6.232   1.553   5.159 -0.1963  0.5961 -0.2466
   33MOL   H56423668   6.406   1.580   5.197 -0.1211  0.4196 -0.1971
   33MOL   H56523669   6.292   1.441   4.947 -0.4867  0.1229  0.2883
   33MOL   H56623670   6.453   1.491   4.969  0.3342  1.9515  1.7854
   33MOL   H56723671   6.222   1.683   4.969  0.1201  0.2408  1.5208
   33MOL   H56823672   6.398   1.734   4.983 -0.8594 -0.3114  0.2642
   33MOL   H56923673   6.352   1.767   4.754 -1.5576 -0.3853 -2.9314
   33MOL   H57023674   6.421   1.608   4.761 -0.2796  0.1632 -2.1061
   33MOL   H57123675   6.121   1.683   4.738  0.0503 -1.0262  1.5627
   33MOL   H57223676   6.171   1.527   4.771  0.0495  0.8638  1.0579
   33MOL   H57323677   6.177   1.619   4.205  0.2610  1.1370  0.0325
   33MOL   H57423678   6.194   1.717   4.351 -0.4462  0.3730 -0.5556
   33MOL   H57523679   6.064   1.618   4.342  0.1446 -1.9956 -1.8591
   33MOL   H57623680   6.407   1.642   4.379  0.2421 -1.3745  2.2122
   33MOL   H57723681   6.399   1.570   4.220 -1.0176  3.6975  0.9751
   33MOL   C57823682   5.919   1.281   3.521  0.7304  0.4753  0.3383
   33MOL   C57923683   6.054   1.225   3.482  0.8922  0.2716  0.2239
   33MOL   C58023684   6.176   1.283   3.558 -0.2230 -0.2221 -0.4438
   33MOL   C58123685   6.183   1.254   3.712 -0.3159  0.2345  0.2356
   33MOL   C58223686   6.323   1.290   3.767  0.0144  0.2900  0.0400
   33MOL   C58323687   6.346   1.272   3.916 -0.2957  0.4123  0.6599
   33MOL   C58423688   6.495   1.233   3.945  0.4616 -1.0470 -0.1134
   33MOL   C58523689   6.509   1.212   4.092 -0.1871  1.0982 -0.3347
   33MOL   O58623690   6.495   1.330   4.163  0.5523 -0.4906 -0.0075
   33MOL   C58723691   6.518   1.319   4.298 -0.5597  0.4120 -0.5122
   33MOL   O58823692   6.536   1.219   4.369  0.2011 -0.3982 -0.5203
   33MOL   C58923693   6.527   1.464   4.357  0.6655 -0.2315  0.0466
   33MOL   C59023694   6.549   1.452   4.513  0.1804  0.2188  0.5317
   33MOL   C59123695   6.643   1.546   4.287  0.1294 -0.6418  0.1680
   33MOL   H59223696   5.905   1.386   3.499  0.7150  0.4361  0.1586
   33MOL   H59323697   5.899   1.265   3.626 -0.7614  2.3275  0.3477
   33MOL   H59423698   5.836   1.222   3.482  1.4928  0.0322 -0.6584
   33MOL   H59523699   6.071   1.219   3.375 -0.8225 -1.6371  0.0303
   33MOL   H59623700   6.052   1.123   3.519 -0.1922  1.7950  4.8356
   33MOL   H59723701   6.179   1.392   3.548 -1.7040  0.0533  1.7419
   33MOL   H59823702   6.261   1.246   3.500  1.7140  0.2698  1.9985
   33MOL   H59923703   6.163   1.149   3.737 -2.2054  0.8636  1.4480
   33MOL   H60023704   6.108   1.304   3.773  2.3957  3.8157  0.7427
   33MOL   H60123705   6.340   1.391   3.730 -2.8943  1.0613  0.6354
   33MOL   H60223706   6.395   1.228   3.715  1.3011 -1.1371  3.4141
   33MOL   H60323707   6.281   1.195   3.958  0.6710  0.2293  1.8543
   33MOL   H60423708   6.312   1.362   3.967  0.7867  1.4499 -0.4195
   33MOL   H60523709   6.569   1.310   3.923  0.1499 -0.4379  0.9756
   33MOL   H60623710   6.525   1.147   3.885 -2.3461 -2.1202 -0.0575
   33MOL   H60723711   6.455   1.130   4.140  3.3808 -1.8844 -1.1713
   33MOL   H60823712   6.610   1.171   4.099 -1.0216 -0.6101  3.0803
   33MOL   H60923713   6.641   1.401   4.543  0.5054 -0.5769 -1.6416
   33MOL   H61023714   6.531   1.543   4.570 -0.2067  1.5607 -1.6681
   33MOL   H61123715   6.470   1.387   4.551 -1.4242 -0.0024 -2.9147
   33MOL   H61223716   6.628   1.652   4.305  0.7127 -0.5305  0.0116
   33MOL   H61323717   6.617   1.530   4.182  0.2760 -2.2967  0.3697
   33MOL   C61423718   0.022   1.414   4.447  0.4733  0.6835  0.2468
   33MOL   C61523719   7.678   1.328   4.449  0.0936  0.4322  0.5178
   33MOL   C61623720   7.550   1.375   4.523 -0.3897  0.0447  0.2110
   33MOL   C61723721   7.474   1.490   4.457 -0.1453  0.2166  0.3792
   33MOL   C61823722   7.345   1.530   4.525  0.5022 -0.2261  0.1513
   33MOL   C61923723   7.253   1.632   4.464 -1.0319  0.1046 -0.0438
   33MOL   C62023724   7.151   1.694   4.559  0.5604 -0.8003  0.3115
   33MOL   C62123725   7.040   1.588   4.591  0.2704 -0.5719 -1.6998
   33MOL   O62223726   6.976   1.532   4.475  0.2339 -0.1557 -0.3813
   33MOL   C62323727   6.850   1.573   4.433  0.0041  0.3266 -0.0278
   33MOL   O62423728   6.790   1.659   4.500 -0.2413 -0.5543 -0.6315
   33MOL   C62523729   6.797   1.513   4.296  1.1706 -0.2106  0.0233
   33MOL   C62623730   6.831   1.360   4.298  0.0664 -0.1593 -0.3334
   33MOL   C62723731   6.878   1.559   4.170  0.6826  0.6289 -0.1899
   33MOL   H62823732   0.071   1.412   4.544  0.8829 -0.7364  0.0253
   33MOL   H62923733   0.004   1.515   4.410 -0.2709 -0.0738 -1.5096
   33MOL   H63023734   0.093   1.374   4.374  0.0469 -1.3934  0.9421
   33MOL   H63123735   7.648   1.308   4.346  0.3789  2.2895  0.0496
   33MOL   H63223736   7.700   1.225   4.476  2.3376  0.4725 -0.9854
   33MOL   H63323737   7.582   1.404   4.624  0.3130  0.2755 -0.0734
   33MOL   H63423738   7.480   1.292   4.535  1.8824 -1.9293  0.2873
   33MOL   H63523739   7.448   1.467   4.354  1.2446 -1.6410  0.4166
   33MOL   H63623740   7.544   1.573   4.448 -0.0470 -0.3407 -5.6877
   33MOL   H63723741   7.295   1.433   4.532  2.4045 -1.2336 -0.0179
   33MOL   H63823742   7.388   1.559   4.621  4.5851 -1.7236 -1.1439
   33MOL   H63923743   7.314   1.712   4.422 -0.3248  0.7342  2.1128
   33MOL   H64023744   7.198   1.594   4.378  0.5306 -0.5264 -0.7866
   33MOL   H64123745   7.089   1.777   4.525  1.1615  0.3410  1.9258
   33MOL   H64223746   7.188   1.740   4.650 -1.0252 -0.9023  1.0315
   33MOL   H64323747   7.076   1.515   4.664 -0.5065 -0.5864 -1.3254
   33MOL   H64423748   6.960   1.642   4.642 -0.4816 -2.5182 -0.7282
   33MOL   H64523749   6.776   1.315   4.216 -0.8099  0.5679 -0.1536
   33MOL   H64623750   6.794   1.326   4.394 -1.5295  2.6208  0.1044
   33MOL   H64723751   6.938   1.341   4.291  0.7958  2.6181  2.3824
   33MOL   H64823752   6.827   1.507   4.089  0.5906 -1.3191  1.0969
   33MOL   H64923753   6.979   1.518   4.175  1.1399  1.8626  0.9905
   33MOL   C65023754   6.075   2.399   4.317 -0.5823  0.1943  1.1402
   33MOL   C65123755   6.061   2.314   4.191  0.3576  0.3642  0.1435
   33MOL   C65223756   6.187   2.219   4.178 -0.2861  0.0673  0.2055
   33MOL   C65323757   6.183   2.114   4.282  0.2898  0.0793 -1.2148
   33MOL   C65423758   6.295   2.008   4.284 -0.4529  0.1832  0.1552
   33MOL   C65523759   6.432   2.080   4.298  0.0525  0.3758  0.4958
   33MOL   C65623760   6.553   1.995   4.313 -0.3133 -0.5800  0.8030
   33MOL   C65723761   6.568   1.891   4.193 -0.1765  0.0591  0.6760
   33MOL   O65823762   6.698   1.841   4.200 -0.0049 -0.4281 -0.0063
   33MOL   C65923763   6.758   1.785   4.095 -0.8085 -0.1069 -0.3672
   33MOL   O66023764   6.714   1.786   3.982 -0.2423 -0.1369  0.7108
   33MOL   C66123765   6.891   1.708   4.122  0.2490 -0.1063 -0.0761
   33MOL   C66223766   6.954   1.688   3.983  0.3042 -0.5217 -0.2508
   33MOL   C66323767   6.993   1.796   4.216 -0.1692  0.1779  0.0031
   33MOL   H66423768   6.010   2.484   4.295 -0.6028 -0.3653 -1.0797
   33MOL   H66523769   6.169   2.452   4.334 -0.5855  0.9521 -1.0310
   33MOL   H66623770   6.039   2.354   4.409  0.1561 -1.1019  0.8089
   33MOL   H66723771   6.047   2.384   4.109  3.1786  0.7110 -0.0995
   33MOL   H66823772   5.975   2.247   4.193  0.6405  0.0021  0.7913
   33MOL   H66923773   6.278   2.280   4.183  0.8892 -1.6659  0.4456
   33MOL   H67023774   6.186   2.170   4.080  0.4590 -0.4771  0.4655
   33MOL   H67123775   6.084   2.070   4.272  0.4860 -0.3307 -1.3317
   33MOL   H67223776   6.184   2.158   4.382 -1.0585  0.6493 -1.4339
   33MOL   H67323777   6.302   1.934   4.204  4.4318  0.7208 -0.0796
   33MOL   H67423778   6.281   1.944   4.372  1.6457 -0.8027 -0.2071
   33MOL   H67523779   6.464   2.128   4.206 -0.4521  0.2378  0.2501
   33MOL   H67623780   6.434   2.152   4.379  2.0052  1.1928 -0.2507
   33MOL   H67723781   6.528   1.936   4.401 -0.6384 -2.3023 -0.4209
   33MOL   H67823782   6.639   2.060   4.333 -0.6693  0.1572 -0.0675
   33MOL   H67923783   6.556   1.946   4.100  4.0051  0.0769  0.0513
   33MOL   H68023784   6.491   1.814   4.186 -0.0199  0.0821 -1.9008
   33MOL   H68123785   6.958   1.782   3.928 -0.5918  0.0644  0.6666
   33MOL   H68223786   6.896   1.612   3.931  0.1229 -0.3267 -0.3347
   33MOL   H68323787   7.057   1.655   3.996  0.1434 -0.2911  1.7530
   33MOL   H68423788   6.942   1.808   4.312 -0.1060 -2.1240  0.3396
   33MOL   H68523789   7.081   1.738   4.244  0.7517  1.7452  0.4414
   33MOL   C68623790   7.306   1.309   3.503  0.0031 -0.5781 -0.5048
   33MOL   C68723791   7.378   1.404   3.415  0.6744 -0.0196  0.2919
   33MOL   C68823792   7.346   1.551   3.422  0.6957 -0.2445  0.0074
   33MOL   C68923793   7.378   1.624   3.557  0.0274  0.0231  0.0518
   33MOL   C69023794   7.357   1.773   3.555 -0.0234 -0.8939 -0.4375
   33MOL   C69123795   7.391   1.847   3.689  0.4715 -0.0656 -0.3103
   33MOL   C69223796   7.298   1.809   3.807  0.0488  0.1527  0.1904
   33MOL   C69323797   7.314   1.914   3.908 -0.5739 -0.4239 -0.1130
   33MOL   O69423798   7.230   1.879   4.018  0.7336 -0.1504  0.3266
   33MOL   C69523799   7.118   1.955   4.036 -0.0370 -0.4722  0.4687
   33MOL   O69623800   7.081   2.035   3.954 -0.1171 -0.5123 -0.1195
   33MOL   C69723801   7.047   1.940   4.170  0.5639 -0.2250 -0.1376
   33MOL   C69823802   7.137   1.985   4.289 -0.9190  0.5946  1.1769
   33MOL   C69923803   6.934   2.042   4.172  0.4395 -0.6750  0.3476
   33MOL   H70023804   7.335   1.341   3.603 -0.8565  2.1890 -1.1006
   33MOL   H70123805   7.334   1.204   3.492  0.8684 -0.3203 -0.7945
   33MOL   H70223806   7.198   1.324   3.505  0.0392  0.0204 -2.3250
   33MOL   H70323807   7.351   1.367   3.316  1.5238  0.2647 -0.0514
   33MOL   H70423808   7.487   1.394   3.416  0.6849 -1.4507 -3.8892
   33MOL   H70523809   7.241   1.571   3.400  0.4300  1.7606  2.7522
   33MOL   H70623810   7.403   1.607   3.347  1.0038  0.5217  0.7983
   33MOL   H70723811   7.482   1.599   3.578  0.0214  1.2646  1.6174
   33MOL   H70823812   7.324   1.576   3.639 -0.0631  0.9644  0.5494
   33MOL   H70923813   7.252   1.776   3.529 -0.7368 -0.7983  2.2614
   33MOL   H71023814   7.414   1.821   3.475 -2.4561  0.5250 -1.3758
   33MOL   H71123815   7.498   1.839   3.712  0.9192 -0.7403 -2.5451
   33MOL   H71223816   7.379   1.953   3.666  1.6035 -0.0434 -0.8634
   33MOL   H71323817   7.196   1.796   3.771 -0.5787  0.4662  1.8184
   33MOL   H71423818   7.328   1.716   3.855 -0.8016 -1.3458 -2.1383
   33MOL   H71523819   7.311   2.012   3.861  2.4872 -0.3363 -0.1913
   33MOL   H71623820   7.416   1.902   3.944 -0.2724 -0.2184 -0.9113
   33MOL   H71723821   7.085   1.980   4.385  0.6089  1.0816  2.0494
   33MOL   H71823822   7.226   1.927   4.309  0.8901  2.6780 -0.6327
   33MOL   H71923823   7.183   2.083   4.272  1.6198 -0.5179  1.5404
   33MOL   H72023824   6.955   2.148   4.189 -0.8937 -0.3466  0.0456
   33MOL   H72123825   6.853   2.026   4.244 -0.5407  2.8205  0.1138
   33MOL   H72223826   6.880   2.045   4.077 -0.5278 -0.9730  0.8767
   34MOL     C123827   0.350   0.089   7.699  0.1787 -0.0278  0.1136
   34MOL     C223828   0.481   0.131   7.628 -0.2007 -0.1545 -0.3524
   34MOL     C323829   0.508   0.078   7.487 -0.5823  0.2391 -0.2966
   34MOL     C423830   0.623   7.743   7.490  0.0120 -0.3250 -0.3209
   34MOL     C523831   0.766   0.012   7.484  0.4531  0.1760  0.8225
   34MOL     C623832   0.858   7.682   7.539 -0.0969  0.4017 -0.6449
   34MOL     C723833   1.011   7.720   7.530  0.0935  0.1748 -0.0516
   34MOL     C823834   1.100   7.593   7.557 -0.2908  0.2615  0.2296
   34MOL     O923835   1.122   7.569   7.696 -0.4406  0.0481  0.5203
   34MOL    C1023836   1.231   7.511   7.744  0.5579 -0.8429  0.5182
   34MOL    O1123837   1.326   7.470   7.676  0.3072 -0.3275  0.3236
   34MOL    C1223838   1.222   7.501   0.118  0.0778 -0.3209  0.3970
   34MOL    C1323839   1.155   7.359   0.136 -0.4515 -0.9222 -0.1707
   34MOL    C1423840   1.358   7.528   0.187  0.3288 -0.1474  0.5978
   34MOL    H1523841   0.263   0.122   7.642 -0.6348  1.6729  2.2547
   34MOL    H1623842   0.337   0.141   0.014  1.8712  0.8029 -0.0956
   34MOL    H1723843   0.357   7.761   7.710  0.4396  0.0788  1.0272
   34MOL    H1823844   0.573   0.136   7.687  0.0252  1.3458 -0.8037
   34MOL    H1923845   0.467   0.236   7.602 -0.3465 -0.0629  0.0949
   34MOL    H2023846   0.425   0.034   7.433  1.0072  0.6444 -3.1755
   34MOL    H2123847   0.543   0.160   7.425 -0.2964  0.4036  0.0738
   34MOL    H2223848   0.617   7.693   7.587  1.7214 -0.2707 -0.1706
   34MOL    H2323849   0.602   7.674   7.409  2.9873 -3.2108  1.2263
   34MOL    H2423850   0.770   0.099   7.550 -0.0307  1.2053 -0.4967
   34MOL    H2523851   0.790   0.039   7.382  1.4924  1.8046  1.4776
   34MOL    H2623852   0.840   7.594   7.477 -2.7013  1.1123 -0.9463
   34MOL    H2723853   0.826   7.666   7.642 -0.6042  0.0763 -0.8567
   34MOL    H2823854   1.035   0.017   7.604 -1.3724  0.4361  0.1638
   34MOL    H2923855   1.042   7.765   7.436 -0.3972 -0.4351 -0.5110
   34MOL    H3023856   1.196   7.604   7.506  0.7915  1.9148  2.5263
   34MOL    H3123857   1.054   7.501   7.520 -0.4391  1.8616 -3.7792
   34MOL    H3223858   1.098   7.338   0.226 -1.2521  3.8285  0.5696
   34MOL    H3323859   1.090   7.332   0.052 -1.8508 -1.2801  1.0107
   34MOL    H3423860   1.238   7.288   0.137  0.7125  0.2823 -3.4928
   34MOL    H3523861   1.436   7.480   0.129 -0.5741  0.0714 -0.8321
   34MOL    H3623862   1.358   7.450   0.263 -1.1391 -0.3831  0.3658
   34MOL    H3723863   1.145   7.576   0.138 -1.6894 -1.8156 -0.5953
   34MOL    C3823864   1.005   0.698   0.243 -0.1175 -0.1780  0.0589
   34MOL    C3923865   1.015   0.748   0.102  0.1423  0.1666 -0.1703
   34MOL    C4023866   1.118   0.678   0.008 -0.5376 -0.6354  0.2668
   34MOL    C4123867   1.257   0.638   0.062  0.0730 -0.4619 -0.0363
   34MOL    C4223868   1.251   0.497   0.131 -0.4780  0.0986  0.0490
   34MOL    C4323869   1.258   0.386   0.020  0.0712  0.1638 -0.1937
   34MOL    C4423870   1.267   0.249   0.089 -0.3939 -0.6998 -0.4744
   34MOL    C4523871   1.283   0.128   7.778 -0.4758 -0.5406  0.9105
   34MOL    O4623872   1.308   0.018   0.073  0.9810  0.0327 -0.6824
   34MOL    C4723873   1.419   7.777   0.155 -0.5512  0.3228 -0.2073
   34MOL    O4823874   1.511   0.072   0.164 -0.1644 -0.1202 -0.4179
   34MOL    C4923875   1.396   7.665   0.266 -0.3547 -0.5277 -0.1565
   34MOL    C5023876   1.525   7.634   0.350 -0.6282 -0.0952 -0.8252
   34MOL    C5123877   1.273   7.706   0.362  0.1449 -0.5679 -0.4014
   34MOL    H5223878   1.098   0.665   0.289  0.4598 -0.9790 -1.6633
   34MOL    H5323879   0.960   0.599   0.239  0.5146 -0.6197  2.5430
   34MOL    H5423880   0.941   0.752   0.312 -1.4568 -2.8357  0.9326
   34MOL    H5523881   1.043   0.853   0.094 -1.1240  0.3142 -3.9272
   34MOL    H5623882   0.922   0.734   0.047  0.2704 -0.6171 -0.2064
   34MOL    H5723883   1.071   0.585   7.754  0.8400 -1.4955  0.6629
   34MOL    H5823884   1.122   0.738   7.698 -1.4151 -0.1707  0.5321
   34MOL    H5923885   1.282   0.719   0.131 -1.7641  1.6807 -1.8504
   34MOL    H6023886   1.329   0.643   7.760  0.2265  1.0022  0.1788
   34MOL    H6123887   1.343   0.489   0.190 -0.6522 -0.1143  0.2919
   34MOL    H6223888   1.175   0.479   0.206  1.7028  0.9997  2.5921
   34MOL    H6323889   1.174   0.383   7.731 -1.7325  1.5541  1.8710
   34MOL    H6423890   1.342   0.398   7.731  1.7593 -2.5770  1.2962
   34MOL    H6523891   1.179   0.232   0.151 -0.8334  1.2410 -0.5077
   34MOL    H6623892   1.345   0.242   0.164 -0.0767 -0.9544 -0.8284
   34MOL    H6723893   1.384   0.144   7.739 -0.4978 -0.8750  0.7169
   34MOL    H6823894   1.205   0.123   7.702 -0.2500 -1.1709  0.7241
   34MOL    H6923895   1.557   7.720   0.409 -2.3757 -0.4326  0.6376
   34MOL    H7023896   1.515   7.552   0.421  1.8889  0.7052  0.5267
   34MOL    H7123897   1.603   7.598   0.282 -1.1340 -0.5192 -1.1834
   34MOL    H7223898   1.220   7.621   0.404 -2.3077  1.7569  1.3564
   34MOL    H7323899   1.193   7.730   0.292  0.5584 -0.5773 -0.8813
   34MOL    C7423900   1.718   0.704   1.213 -0.4339 -0.1605  0.1147
   34MOL    C7523901   1.750   0.623   1.091  0.3087 -0.0094  0.4411
   34MOL    C7623902   1.653   0.505   1.084  0.1741  0.2162  0.4496
   34MOL    C7723903   1.690   0.402   0.974  0.6113  0.3167 -0.2175
   34MOL    C7823904   1.584   0.292   0.971  0.6917 -0.1801 -0.0605
   34MOL    C7923905   1.629   0.185   0.876  0.0807 -0.5194  0.1619
   34MOL    C8023906   1.533   0.068   0.868 -0.2504  0.8207 -0.1359
   34MOL    C8123907   1.557   7.762   0.742  0.5256  0.0128  0.5368
   34MOL    O8223908   1.478   0.034   0.632 -0.1502 -0.1428  0.4059
   34MOL    C8323909   1.369   7.746   0.598 -0.4718  0.2722 -0.2453
   34MOL    O8423910   1.329   7.647   0.659 -0.3191  0.9092  0.5142
   34MOL    C8523911   1.285   0.032   0.485 -0.0844 -0.6956  1.1351
   34MOL    C8623912   1.349   0.163   0.431  0.0440  0.3077  0.8764
   34MOL    C8723913   1.137   0.060   0.535 -0.3290  0.2453  1.0519
   34MOL    H8823914   1.712   0.645   1.305  0.8799  0.3139  0.5195
   34MOL    H8923915   1.632   0.770   1.206  0.0650  1.1234  4.2640
   34MOL    H9023916   1.807   0.766   1.219 -0.7517  0.2920  0.1553
   34MOL    H9123917   1.848   0.575   1.099  1.8119  2.0764 -3.9721
   34MOL    H9223918   1.752   0.691   1.006  1.6431  0.6683  0.9961
   34MOL    H9323919   1.627   0.459   1.179 -1.2505 -0.3992 -0.2424
   34MOL    H9423920   1.563   0.553   1.046 -0.2476  0.4054  1.6716
   34MOL    H9523921   1.783   0.357   1.009  0.0394 -0.6093  0.1176
   34MOL    H9623922   1.698   0.439   0.871 -1.6250 -3.4283 -1.8396
   34MOL    H9723923   1.572   0.250   1.070  1.2743 -1.1498 -0.3929
   34MOL    H9823924   1.488   0.330   0.938  0.4365 -1.7454 -1.1350
   34MOL    H9923925   1.633   0.228   0.776 -3.0847  2.1744  1.1337
   34MOL   H10023926   1.728   0.147   0.903 -0.3497 -2.8646 -1.4512
   34MOL   H10123927   1.556   0.011   0.958  0.3591 -0.3686 -1.0307
   34MOL   H10223928   1.429   0.098   0.882 -1.0175 -1.5261 -0.5818
   34MOL   H10323929   1.542   7.656   0.765 -0.0786 -0.1186 -0.4337
   34MOL   H10423930   1.661   7.760   0.711  0.9018 -1.4454  1.8101
   34MOL   H10523931   1.379   0.237   0.505 -0.2811 -1.1765  2.5143
   34MOL   H10623932   1.285   0.217   0.361 -0.4580 -1.2722  0.0873
   34MOL   H10723933   1.446   0.142   0.387  0.4275  1.3041  1.2246
   34MOL   H10823934   1.077   0.063   0.445 -0.2397 -0.2112  0.9737
   34MOL   H10923935   1.112   7.745   0.585 -1.0266 -0.4129 -0.5242
   34MOL   C11023936   1.634   1.027   0.776  0.1001 -0.4720 -0.7657
   34MOL   C11123937   1.548   0.969   0.887 -0.4184 -0.5671 -0.1448
   34MOL   C11223938   1.422   0.893   0.837 -0.5394 -0.4730 -0.2789
   34MOL   C11323939   1.461   0.750   0.779 -0.1532 -0.1341  0.0384
   34MOL   C11423940   1.353   0.644   0.805 -0.1239 -0.4563  0.3053
   34MOL   C11523941   1.356   0.529   0.705  0.0736  0.1673  0.4214
   34MOL   C11623942   1.296   0.553   0.569 -0.1038  0.0393  0.6543
   34MOL   C11723943   1.143   0.543   0.570 -0.0062  0.1480 -0.6229
   34MOL   O11823944   1.099   0.417   0.624 -0.5944  0.1265 -0.3358
   34MOL   C11923945   1.092   0.309   0.553 -0.2425  0.1632 -0.0637
   34MOL   O12023946   1.082   0.314   0.430  0.0403 -0.0546  0.2728
   34MOL   C12123947   1.082   0.173   0.621  0.6725  0.5225  0.1011
   34MOL   C12223948   1.162   0.183   0.747  0.0797  0.0209 -0.5982
   34MOL   C12323949   0.927   0.148   0.666 -0.0384  0.1662  0.1533
   34MOL   H12423950   1.730   1.064   0.813 -0.6058  0.4843  0.1012
   34MOL   H12523951   1.659   0.944   0.709 -1.2724 -0.6671 -1.0552
   34MOL   H12623952   1.587   1.103   0.714 -1.3398 -0.1400  0.7008
   34MOL   H12723953   1.517   1.058   0.942 -2.0785 -0.5099 -1.1570
   34MOL   H12823954   1.605   0.910   0.959 -0.5426  1.5213  1.7257
   34MOL   H12923955   1.371   0.955   0.763  0.4705 -1.5215 -1.8922
   34MOL   H13023956   1.360   0.885   0.927 -1.6793 -0.5473 -1.0541
   34MOL   H13123957   1.469   0.773   0.673 -0.5545  0.0816  0.0521
   34MOL   H13223958   1.554   0.713   0.821  1.0908  2.2716 -0.5306
   34MOL   H13323959   1.255   0.686   0.825  0.2441  0.9897 -0.8545
   34MOL   H13423960   1.368   0.606   0.906  0.5368 -0.6783  0.1285
   34MOL   H13523961   1.462   0.506   0.693 -0.1424 -0.6786  0.0325
   34MOL   H13623962   1.306   0.441   0.746 -1.9991  1.0882 -0.0879
   34MOL   H13723963   1.322   0.477   0.495  1.4630 -1.0913  2.3514
   34MOL   H13823964   1.335   0.650   0.537 -2.4285  0.3358 -1.4666
   34MOL   H13923965   1.088   0.612   0.635 -2.0845 -2.1591  0.1788
   34MOL   H14023966   1.102   0.557   0.470  0.3530 -3.2640 -1.3062
   34MOL   H14123967   1.157   0.093   0.808  1.5690  1.1073  1.2008
   34MOL   H14223968   1.267   0.205   0.728 -0.0395  0.7997 -0.3475
   34MOL   H14323969   1.128   0.255   0.821  0.2571 -2.2431  1.7743
   34MOL   H14423970   0.906   0.207   0.754  1.0438  0.9622 -0.1056
   34MOL   H14523971   0.927   0.042   0.694 -1.3084 -0.1579 -0.9947
   34MOL   C14623972   0.665   0.609   7.386 -0.1408 -0.2607 -0.2992
   34MOL   C14723973   0.701   0.476   7.452  0.2375  0.9602  0.0221
   34MOL   C14823974   0.731   0.506   7.603 -0.5155  1.1321  0.1636
   34MOL   C14923975   0.798   0.396   7.685  0.9639 -0.1532  0.0620
   34MOL   C15023976   0.782   0.419   0.055  0.2755 -0.4180 -0.1045
   34MOL   C15123977   0.846   0.307   0.142  0.5759 -0.3343  0.1247
   34MOL   C15223978   0.787   0.169   0.129  0.5421 -0.1843 -0.2540
   34MOL   C15323979   0.854   0.077   0.227 -0.5951  0.2061 -0.3466
   34MOL   O15423980   0.857   0.136   0.358  0.4743 -0.2401 -0.3897
   34MOL   C15523981   0.787   0.085   0.459  0.2584 -0.1979 -0.6089
   34MOL   O15623982   0.725   7.759   0.465 -0.6700  0.2291 -0.1557
   34MOL   C15723983   0.792   0.175   0.591  0.0708  1.3169  0.1365
   34MOL   C15823984   0.680   0.120   0.682 -0.0319 -0.1355  0.1473
   34MOL   C15923985   0.772   0.327   0.555  0.3086  0.4588  0.2023
   34MOL   H16023986   0.608   0.596   7.294  0.3284  0.2627 -0.6736
   34MOL   H16123987   0.765   0.649   7.366 -0.1494 -0.5888 -1.0307
   34MOL   H16223988   0.622   0.681   7.455 -1.2397 -1.0766 -0.1361
   34MOL   H16323989   0.617   0.407   7.439  0.5153  0.7834 -0.8872
   34MOL   H16423990   0.786   0.432   7.399  0.9156  2.2753  0.0027
   34MOL   H16523991   0.629   0.504   7.640 -0.5764  1.6363  0.0203
   34MOL   H16623992   0.776   0.604   7.617  0.8184  0.6481 -0.6138
   34MOL   H16723993   0.757   0.299   7.657 -0.9170  1.0297 -1.3636
   34MOL   H16823994   0.905   0.387   7.665  1.0483  1.1368 -0.1055
   34MOL   H16923995   0.680   0.429   0.092  1.0268  0.3285  1.8017
   34MOL   H17023996   0.827   0.517   0.073 -1.9036  0.4567  0.7864
   34MOL   H17123997   0.835   0.328   0.249 -2.2467 -1.4367  0.1094
   34MOL   H17223998   0.951   0.298   0.115  1.1732  2.8247  1.1427
   34MOL   H17323999   0.680   0.180   0.144  0.5996  0.6874 -0.4459
   34MOL   H17424000   0.789   0.127   0.028  0.8288  0.4246 -0.5069
   34MOL   H17524001   0.823   7.752   0.226 -0.4298  0.1556 -0.3085
   34MOL   H17624002   0.956   0.069   0.189  0.9982 -0.9479  3.9103
   34MOL   H17724003   0.669   0.173   0.776 -1.9488 -1.3253  0.6286
   34MOL   H17824004   0.689   0.014   0.706 -1.6341 -0.1853  0.5594
   34MOL   H17924005   0.582   0.141   0.639  0.5456  0.3512 -0.9435
   34MOL   H18024006   0.839   0.343   0.471  1.9821 -1.6068  1.1153
   34MOL   H18124007   0.830   0.391   0.621  0.9099 -2.6794  2.8319
   34MOL   C18224008   0.530   7.481   0.581  0.1448  1.1208  0.3572
   34MOL   C18324009   0.413   7.502   0.678  0.1257  0.7409 -0.2803
   34MOL   C18424010   0.420   7.644   0.736 -0.4118 -0.0080  0.3301
   34MOL   C18524011   0.293   7.684   0.814  0.3568 -0.3585 -0.6110
   34MOL   C18624012   0.302   0.046   0.885 -0.0533 -0.3611 -0.0306
   34MOL   C18724013   0.300   0.168   0.784 -0.1906  0.0175 -0.0354
   34MOL   C18824014   0.334   0.306   0.846  0.5737 -0.3322  0.0006
   34MOL   C18924015   0.333   0.424   0.758  0.2981 -0.2340  0.2218
   34MOL   O19024016   0.421   0.408   0.650 -0.6058  0.6027 -0.1549
   34MOL   C19124017   0.556   0.419   0.660  0.1571  0.2761 -0.1584
   34MOL   O19224018   0.620   0.442   0.766 -0.0684 -0.0034  0.5094
   34MOL   C19324019   0.638   0.400   0.526  0.7408  0.2422 -0.0806
   34MOL   C19424020   0.551   0.315   0.427  0.4815 -0.2406 -0.3154
   34MOL   C19524021   0.679   0.538   0.465 -0.0691 -0.3077 -0.3286
   34MOL   H19624022   0.631   7.493   0.620  0.6762 -0.0656 -0.6247
   34MOL   H19724023   0.526   7.379   0.543  1.3825  1.0265  0.4489
   34MOL   H19824024   0.541   7.550   0.498 -0.7030  0.5669 -0.2230
   34MOL   H19924025   0.416   7.432   0.762  0.0747 -0.3755 -1.2008
   34MOL   H20024026   0.315   7.496   0.631 -0.1968 -0.0813  0.4813
   34MOL   H20124027   0.504   7.651   0.804  0.2189  0.9252 -0.5314
   34MOL   H20224028   0.447   7.715   0.657 -1.3725  1.2239  1.0857
   34MOL   H20324029   0.200   7.687   0.758  0.4161 -1.2132 -0.7512
   34MOL   H20424030   0.281   7.609   0.891  0.2688 -0.9894 -1.2371
   34MOL   H20524031   0.396   0.057   0.939 -0.4891 -2.4417  1.2069
   34MOL   H20624032   0.220   0.063   0.955  0.3748  1.2458  0.0931
   34MOL   H20724033   0.207   0.172   0.728 -0.3880  0.9395  0.3480
   34MOL   H20824034   0.374   0.155   0.705  0.6460 -0.0382  0.7541
   34MOL   H20924035   0.272   0.338   0.930  1.7841  0.9326  0.4408
   34MOL   H21024036   0.438   0.300   0.877  0.4357  3.1183  1.4207
   34MOL   H21124037   0.358   0.512   0.816  1.2749  0.5804 -1.3859
   34MOL   H21224038   0.233   0.438   0.719 -0.0757  1.7450  1.8176
   34MOL   H21324039   0.455   0.358   0.399  0.3764 -1.4043 -1.8099
   34MOL   H21424040   0.599   0.305   0.329  0.5559  1.3406 -0.4515
   34MOL   H21524041   0.534   0.214   0.464  1.2736  0.0179  0.7677
   34MOL   H21624042   0.776   0.565   0.505  0.0826  2.1330 -2.2586
   34MOL   H21724043   0.695   0.508   0.361  0.9750 -1.5803  0.1914
   34MOL   C21824044   1.294   0.797   1.258  0.3370 -0.5648 -0.4581
   34MOL   C21924045   1.174   0.771   1.163 -0.2166 -0.4198  0.0797
   34MOL   C22024046   1.137   0.621   1.138  0.4634 -0.0950  0.1032
   34MOL   C22124047   0.993   0.602   1.083 -0.1885 -0.2769  0.5699
   34MOL   C22224048   1.000   0.627   0.930 -0.9681  0.1421  0.1396
   34MOL   C22324049   0.859   0.617   0.859  0.1135 -0.6455 -0.9470
   34MOL   C22424050   0.774   0.741   0.883  0.0982  0.7901 -1.0782
   34MOL   C22524051   0.648   0.752   0.805  0.3884  0.2527  0.7159
   34MOL   O22624052   0.672   0.736   0.663 -0.1395  0.3304 -0.1915
   34MOL   C22724053   0.556   0.730   0.590  0.3162  0.8543 -1.0545
   34MOL   O22824054   0.445   0.774   0.618 -0.5319  0.2182  0.5472
   34MOL   C22924055   0.590   0.668   0.453 -1.5217 -0.0911 -0.4670
   34MOL   C23024056   0.451   0.628   0.380  0.0270 -0.4525 -0.7007
   34MOL   C23124057   0.673   0.773   0.366 -0.2966  0.4482  0.2173
   34MOL   H23224058   1.274   0.759   1.358 -1.1552 -0.2449 -0.6244
   34MOL   H23324059   1.328   0.900   1.251 -0.6731 -0.0941  1.1138
   34MOL   H23424060   1.386   0.751   1.222 -0.6572 -1.0419 -2.4819
   34MOL   H23524061   1.206   0.811   1.066  1.6751  0.8714  1.2230
   34MOL   H23624062   1.081   0.813   1.201 -0.9090 -1.5396 -0.3616
   34MOL   H23724063   1.225   0.570   1.099 -0.3982 -0.9140 -0.7907
   34MOL   H23824064   1.129   0.577   1.238  1.3228 -0.3478  0.0616
   34MOL   H23924065   0.953   0.502   1.100 -1.0321  0.0212  0.3544
   34MOL   H24024066   0.923   0.678   1.116 -1.0961  0.3539 -2.6135
   34MOL   H24124067   1.046   0.724   0.909  0.3648 -0.8067 -1.4078
   34MOL   H24224068   1.060   0.543   0.897 -1.2164 -0.8142  2.0398
   34MOL   H24324069   0.874   0.596   0.753  0.1547  1.6079 -1.4098
   34MOL   H24424070   0.792   0.541   0.899 -1.5748  0.5159 -1.5296
   34MOL   H24524071   0.833   0.826   0.850  2.3264 -0.7343 -1.1418
   34MOL   H24624072   0.750   0.750   0.989  2.4722  0.0522 -0.4378
   34MOL   H24724073   0.603   0.851   0.817 -3.3152 -1.3165  0.3905
   34MOL   H24824074   0.565   0.688   0.836  0.8405 -0.1762  1.0485
   34MOL   H24924075   0.396   0.714   0.342 -0.9247 -1.5797 -1.9200
   34MOL   H25024076   0.387   0.561   0.438  2.7049 -2.8065 -0.3562
   34MOL   H25124077   0.477   0.565   0.295 -0.3009  0.0253 -1.1560
   34MOL   H25224078   0.754   0.807   0.430 -0.2824 -1.8219  1.4343
   34MOL   H25324079   0.722   0.712   0.289 -1.7686  0.6836 -0.9263
   34MOL   C25424080   0.959   1.164   1.262  0.2659  0.6076  0.3918
   34MOL   C25524081   0.903   1.097   1.143  0.3391  0.5615 -0.4852
   34MOL   C25624082   0.798   1.182   1.078 -0.8199  0.3683  0.1039
   34MOL   C25724083   0.736   1.108   0.961  0.3021  0.5802  0.0120
   34MOL   C25824084   0.646   1.195   0.874 -0.5019  0.3156 -0.0502
   34MOL   C25924085   0.588   1.127   0.752  0.5400 -0.3429 -0.1874
   34MOL   C26024086   0.528   1.222   0.649 -0.2967  0.2811 -0.0785
   34MOL   C26124087   0.467   1.140   0.536 -0.3830  0.0054 -0.4913
   34MOL   O26224088   0.554   1.054   0.472 -0.3366 -0.3926  0.2458
   34MOL   C26324089   0.515   0.977   0.368 -0.2536 -0.1983  0.2853
   34MOL   O26424090   0.398   0.972   0.337 -0.0040  0.4106 -0.6129
   34MOL   C26524091   0.624   0.897   0.292  0.4924  0.2348 -0.4013
   34MOL   C26624092   0.570   0.844   0.156 -0.2316  0.0895  0.7427
   34MOL   C26724093   0.742   0.993   0.272  0.0339 -0.2336  0.1064
   34MOL   H26824094   0.879   1.184   1.334 -0.1445  5.0468 -1.1325
   34MOL   H26924095   1.033   1.096   1.302  0.4571  1.2450  1.1273
   34MOL   H27024096   1.007   1.253   1.222 -0.4137  0.7421 -0.1478
   34MOL   H27124097   0.976   1.055   1.074  1.7906 -0.9980  1.9366
   34MOL   H27224098   0.858   1.009   1.189  2.4686 -0.5912 -0.5271
   34MOL   H27324099   0.835   1.277   1.041  1.8993  0.2631  2.3368
   34MOL   H27424100   0.714   1.205   1.144 -0.8399 -2.0882  0.9799
   34MOL   H27524101   0.686   1.017   0.995  0.5024  1.3357  2.4405
   34MOL   H27624102   0.814   1.061   0.901 -0.5751  3.2197 -3.2987
   34MOL   H27724103   0.578   1.235   0.949  1.6868  1.5875  1.3001
   34MOL   H27824104   0.705   1.277   0.834  1.8560 -1.5967 -0.6883
   34MOL   H27924105   0.518   1.059   0.799  2.9397 -0.9961  2.5791
   34MOL   H28024106   0.656   1.059   0.700 -2.4004 -2.8910 -0.8392
   34MOL   H28124107   0.447   1.286   0.686 -0.4383 -0.3099  0.6550
   34MOL   H28224108   0.610   1.285   0.615 -0.9579  1.4405  0.4259
   34MOL   H28324109   0.389   1.077   0.579 -0.4402 -0.0815 -0.7205
   34MOL   H28424110   0.408   1.196   0.463 -0.5984  0.6725  0.1874
   34MOL   H28524111   0.512   0.910   0.091 -0.8300 -0.4415  0.7278
   34MOL   H28624112   0.647   0.810   0.087 -1.4088 -2.2764  0.5498
   34MOL   H28724113   0.514   0.751   0.158 -0.1935  0.0272 -0.4725
   34MOL   H28824114   0.826   0.933   0.237  1.2518  2.0347 -0.9551
   34MOL   H28924115   0.772   1.021   0.373  0.4442  0.8460 -0.3176
   34MOL   C29024116   0.474   0.826   6.947 -0.1404 -0.2804 -0.1379
   34MOL   C29124117   0.601   0.908   6.962  0.0857 -0.0891  0.2283
   34MOL   C29224118   0.628   0.919   7.114 -0.4934  0.2220 -1.2995
   34MOL   C29324119   0.754   1.006   7.127 -0.1498  0.0532  0.4444
   34MOL   C29424120   0.776   1.081   7.263 -0.0047  0.3556 -0.3989
   34MOL   C29524121   0.765   0.980   7.383 -0.1411  0.2226  0.0431
   34MOL   C29624122   0.792   1.054   7.515 -0.4008  0.0558 -1.0909
   34MOL   C29724123   0.755   0.964   7.635 -0.5308  0.4295 -0.3251
   34MOL   O29824124   0.784   1.022   7.762 -0.3397  0.0666 -0.5830
   34MOL   C29924125   0.699   1.104   0.044  0.5396  0.1307 -0.2338
   34MOL   O30024126   0.602   1.160   7.767 -0.1683  0.3158  0.4974
   34MOL   C30124127   0.742   1.133   0.192  0.2093  0.3056  0.3028
   34MOL   C30224128   0.645   1.234   0.251  0.4197  0.2742  0.0122
   34MOL   C30324129   0.890   1.191   0.201 -0.2084 -0.0152 -0.2729
   34MOL   H30424130   0.490   0.722   6.976 -2.0511 -0.9053 -1.1890
   34MOL   H30524131   0.437   0.836   6.845  0.0629  1.1183 -0.0831
   34MOL   H30624132   0.395   0.866   7.010  0.9536  0.6070  0.6983
   34MOL   H30724133   0.571   1.000   6.912 -0.7230 -0.3381  0.2523
   34MOL   H30824134   0.684   0.864   6.906  0.2242  0.3447  0.0941
   34MOL   H30924135   0.624   0.821   7.161  0.4776  0.1990 -1.2601
   34MOL   H31024136   0.541   0.965   7.160  1.0223 -1.1628  3.1754
   34MOL   H31124137   0.840   0.940   7.116 -1.8840 -2.1885 -0.1393
   34MOL   H31224138   0.755   1.083   7.050  1.1194  0.6001  0.9978
   34MOL   H31324139   0.877   1.123   7.265 -0.0417  0.5536 -2.3252
   34MOL   H31424140   0.704   1.161   7.275 -3.5103 -2.7736  0.2840
   34MOL   H31524141   0.836   0.897   7.374  0.4191  0.6517  0.5176
   34MOL   H31624142   0.663   0.942   7.390 -0.1050  0.1708  0.2913
   34MOL   H31724143   0.726   1.140   7.529  1.4310  1.6352 -1.9262
   34MOL   H31824144   0.895   1.090   7.525 -1.5140  3.7850 -2.0254
   34MOL   H31924145   0.794   0.864   7.620 -1.9482 -0.3516  1.0945
   34MOL   H32024146   0.647   0.953   7.637 -0.3824 -1.4604 -1.2866
   34MOL   H32124147   0.539   1.211   0.239  0.7182 -0.8748 -0.4773
   34MOL   H32224148   0.645   1.319   0.182  2.1032  0.2550 -0.0240
   34MOL   H32324149   0.663   1.267   0.353  1.1169 -0.2000  0.0430
   34MOL   H32424150   0.939   1.173   0.297 -0.8410  0.5464  0.1572
   34MOL   H32524151   0.948   1.109   0.157  0.6278  0.0753  0.6388
   34MOL   C32624152   1.329   1.207   1.145  0.3426  0.4628  0.2100
   34MOL   C32724153   1.300   1.223   0.997  0.0812  0.0923 -0.0971
   34MOL   C32824154   1.180   1.307   0.963  0.8525  0.2528 -0.2895
   34MOL   C32924155   1.156   1.319   0.809  0.0652  0.1570 -0.2527
   34MOL   C33024156   1.021   1.387   0.777  0.1418  0.7746  0.2900
   34MOL   C33124157   0.990   1.426   0.633  0.2369 -0.2397  0.0478
   34MOL   C33224158   0.847   1.467   0.602 -0.0476 -0.8590  0.1765
   34MOL   C33324159   0.832   1.506   0.458  0.1831  0.3949 -0.1797
   34MOL   O33424160   0.882   1.416   0.363  0.2757  0.7432  0.1470
   34MOL   C33524161   0.879   1.440   0.224  0.2844 -0.0076  0.8779
   34MOL   O33624162   0.818   1.533   0.172  0.2493 -0.1677  0.0299
   34MOL   C33724163   0.946   1.328   0.146  0.3668 -0.4087 -0.5186
   34MOL   C33824164   1.095   1.332   0.184  0.3840 -0.2930  0.3957
   34MOL   C33924165   0.918   1.345   7.775  0.2145 -0.1105  0.0843
   34MOL   H34024166   1.361   1.304   1.182  0.7611 -0.3949  2.1209
   34MOL   H34124167   1.410   1.135   1.150  2.7898  3.2105  1.5648
   34MOL   H34224168   1.240   1.175   1.200  0.2760  0.9017  0.3595
   34MOL   H34324169   1.281   1.119   0.970  1.4018 -0.4322  0.9406
   34MOL   H34424170   1.385   1.271   0.949  3.0242 -1.4618  3.3083
   34MOL   H34524171   1.190   1.406   1.007 -0.9074  0.7314 -0.9171
   34MOL   H34624172   1.091   1.273   1.016  1.3579  3.5413  2.8545
   34MOL   H34724173   1.161   1.216   0.774  1.1924  0.0916  0.0790
   34MOL   H34824174   1.239   1.370   0.759  1.6068  0.7696  2.8400
   34MOL   H34924175   0.935   1.325   0.803  1.4242 -1.0229  0.3804
   34MOL   H35024176   1.008   1.477   0.837  0.8884 -0.2717  2.0834
   34MOL   H35124177   1.060   1.505   0.603 -0.8016  0.3948 -0.7448
   34MOL   H35224178   1.024   1.350   0.563 -1.2222 -1.0055  0.1594
   34MOL   H35324179   0.824   1.555   0.663  0.6325 -1.5134  1.3885
   34MOL   H35424180   0.790   1.377   0.625  2.3530 -2.0682  1.5655
   34MOL   H35524181   0.725   1.515   0.438 -0.4670 -2.5920  1.6234
   34MOL   H35624182   0.882   1.602   0.447  1.9410 -0.4065  0.5876
   34MOL   H35724183   1.149   1.243   0.153  0.6089  0.1210 -0.4105
   34MOL   H35824184   1.147   1.423   0.154  0.1593 -0.1456  0.4432
   34MOL   H35924185   1.116   1.331   0.291 -1.2061  1.5172  0.7660
   34MOL   H36024186   0.924   1.247   7.726 -0.7595  0.0697 -0.4248
   34MOL   H36124187   0.813   1.373   7.763  0.7532  1.6005 -0.7189
   34MOL   C36224188   1.134   0.360   7.397 -0.1631  0.3985 -0.1738
   34MOL   C36324189   1.216   0.489   7.417 -0.5692 -0.0476  0.5870
   34MOL   C36424190   1.130   0.618   7.389 -0.5049 -0.5095 -0.6625
   34MOL   C36524191   1.206   0.749   7.417 -0.3538  0.2322  0.0466
   34MOL   C36624192   1.110   0.863   7.417 -0.8709 -0.1639 -0.1605
   34MOL   C36724193   1.175   1.001   7.451 -0.1388 -0.2535 -0.4147
   34MOL   C36824194   1.207   1.025   7.603  0.1334  0.3277  0.3778
   34MOL   C36924195   1.259   1.172   7.622  0.7833  0.4151  0.0425
   34MOL   O37024196   1.143   1.250   7.631 -0.0580  0.3802  0.0340
   34MOL   C37124197   1.148   1.380   7.662  0.1956  0.1300 -1.3178
   34MOL   O37224198   1.256   1.440   7.695 -0.1253  0.2227  0.0341
   34MOL   C37324199   1.003   1.435   7.679 -0.3420 -0.0623  0.1757
   34MOL   C37424200   1.003   1.582   7.719  0.0222 -0.0018  0.1512
   34MOL   C37524201   0.930   1.426   7.535  0.3769 -0.1310  0.5380
   34MOL   H37624202   1.193   0.268   7.404 -0.7010  0.0105 -0.6907
   34MOL   H37724203   1.045   0.346   7.458  0.7361  1.9905  1.5544
   34MOL   H37824204   1.092   0.368   7.297  1.4512 -1.9641 -1.0784
   34MOL   H37924205   1.304   0.490   7.353 -1.1226 -0.6506 -0.2053
   34MOL   H38024206   1.258   0.499   7.517  1.1508  1.0889 -0.2324
   34MOL   H38124207   1.032   0.604   7.435  0.7786  0.6151  2.4945
   34MOL   H38224208   1.105   0.609   7.283  1.3981 -2.7409 -0.9631
   34MOL   H38324209   1.292   0.775   7.356 -0.2653  2.8176  1.1979
   34MOL   H38424210   1.244   0.746   7.519  0.2939  0.6533 -0.1802
   34MOL   H38524211   1.062   0.862   7.319  2.5049  1.9318 -1.9085
   34MOL   H38624212   1.026   0.840   7.483 -0.4940 -2.1834 -0.3446
   34MOL   H38724213   1.109   1.080   7.415  1.7312  1.7697  0.5357
   34MOL   H38824214   1.264   1.010   7.390  0.6976 -0.7218  0.7194
   34MOL   H38924215   1.285   0.955   7.632  0.1713  0.0485 -0.3897
   34MOL   H39024216   1.115   1.007   7.659  0.9439  1.2289  2.0512
   34MOL   H39124217   1.324   1.185   7.709  0.8471 -1.6170  0.3119
   34MOL   H39224218   1.306   1.211   7.531 -0.7606  0.4506 -0.7617
   34MOL   H39324219   1.058   1.588   0.033  1.2328 -0.1843 -0.5365
   34MOL   H39424220   1.069   1.650   7.666  1.0530  0.7966  2.3810
   34MOL   H39524221   0.906   1.627   7.740  1.3864  1.5973  3.2654
   34MOL   H39624222   0.929   1.323   7.501 -2.6979 -0.4656  1.4799
   34MOL   H39724223   0.822   1.429   7.549  0.1269 -1.0661 -1.0729
   34MOL   C39824224   0.690   2.300   6.758 -0.0605 -0.8801  0.1723
   34MOL   C39924225   0.760   2.236   6.875  0.3830 -0.7063 -0.1807
   34MOL   C40024226   0.674   2.134   6.956  0.3504 -0.2077  0.4210
   34MOL   C40124227   0.753   2.062   7.070 -1.0817 -1.0602 -0.3365
   34MOL   C40224228   0.662   1.999   7.179  0.2946 -0.3150 -0.5868
   34MOL   C40324229   0.743   1.938   7.292 -0.5657 -0.1884 -0.5202
   34MOL   C40424230   0.659   1.879   7.400  0.5312 -0.0351  0.0129
   34MOL   C40524231   0.730   1.803   7.510 -0.6294  0.2762  0.1611
   34MOL   O40624232   0.783   1.679   7.473  0.0716  0.2165 -0.4123
   34MOL   C40724233   0.912   1.662   7.431 -0.4545 -0.1366  0.0714
   34MOL   O40824234   0.998   1.751   7.426 -0.6622 -0.3728  0.1180
   34MOL   C40924235   0.947   1.518   7.407 -0.1434  0.0826  0.4121
   34MOL   C41024236   1.099   1.503   7.370 -0.5285 -0.4679 -0.2823
   34MOL   C41124237   0.853   1.451   7.301 -0.9262 -0.4783 -0.5806
   34MOL   H41224238   0.750   2.359   6.688 -0.3001  0.0457  0.7333
   34MOL   H41324239   0.610   2.367   6.790  0.2248  0.4098 -1.7372
   34MOL   H41424240   0.635   2.227   6.698 -2.2629  1.4348 -0.7219
   34MOL   H41524241   0.791   2.320   6.937 -1.5236  0.7153 -1.1071
   34MOL   H41624242   0.846   2.181   6.837  0.6769 -1.5293  1.6411
   34MOL   H41724243   0.582   2.172   7.001 -0.0657  1.3915 -1.6711
   34MOL   H41824244   0.642   2.060   6.883  0.2214 -1.7933  2.0568
   34MOL   H41924245   0.808   2.144   7.116 -1.2943 -0.8591 -0.4344
   34MOL   H42024246   0.831   1.997   7.029  0.5597 -0.9202  2.4643
   34MOL   H42124247   0.596   2.074   7.221  1.0291 -0.0682  0.1291
   34MOL   H42224248   0.605   1.923   7.126  0.4927  0.2470 -1.6260
   34MOL   H42324249   0.805   2.013   7.342  1.0603 -1.3480 -0.7352
   34MOL   H42424250   0.826   1.873   7.264 -0.4590 -0.4607  0.3890
   34MOL   H42524251   0.599   1.959   7.442  0.0036 -0.6713  0.4954
   34MOL   H42624252   0.600   1.804   7.347  0.8613 -0.0295 -0.3636
   34MOL   H42724253   0.804   1.865   7.560  0.5827 -1.3823  0.4367
   34MOL   H42824254   0.666   1.788   7.598 -0.3435 -3.1644 -0.1672
   34MOL   H42924255   1.127   1.543   7.272 -1.0398 -0.6766 -0.5134
   34MOL   H43024256   1.138   1.402   7.374 -3.9736 -1.8655 -0.6346
   34MOL   H43124257   1.162   1.560   7.439  0.7025 -1.0732 -0.8889
   34MOL   H43224258   0.752   1.468   7.339 -0.3743  0.9071  0.3425
   34MOL   H43324259   0.849   1.343   7.313  0.0620 -0.2773  2.1043
   34MOL   C43424260   1.328   0.345   6.891 -0.7925  0.5115  0.6035
   34MOL   C43524261   1.360   0.496   6.884  0.3780 -0.1584 -0.2066
   34MOL   C43624262   1.274   0.584   6.981 -0.0324  0.2311 -0.6215
   34MOL   C43724263   1.263   0.735   6.949  0.3690 -0.5420  0.5858
   34MOL   C43824264   1.183   0.834   7.035 -0.2958  0.8095  0.1574
   34MOL   C43924265   1.164   0.974   6.986 -0.2909  0.0004  0.3693
   34MOL   C44024266   1.127   1.080   7.098  0.1744 -0.1750  0.3475
   34MOL   C44124267   1.111   1.222   7.043  0.2223  0.1766  0.4287
   34MOL   O44224268   1.005   1.298   7.107 -0.3145 -0.3247  0.2780
   34MOL   C44324269   0.984   1.426   7.084 -0.5598 -0.4909  0.4282
   34MOL   O44424270   1.057   1.501   7.019 -0.0158  0.4347 -0.3548
   34MOL   C44524271   0.858   1.486   7.149  0.1306 -0.0770 -0.2786
   34MOL   C44624272   0.867   1.639   7.129 -0.4837 -0.2659 -0.0885
   34MOL   C44724273   0.728   1.426   7.079  0.7499  0.6854  0.4386
   34MOL   H44824274   1.409   0.289   6.843 -0.9315 -1.2869  2.3925
   34MOL   H44924275   1.234   0.321   6.842 -1.4864 -1.8271  2.9554
   34MOL   H45024276   1.325   0.311   6.995 -1.2508  0.2953  0.5218
   34MOL   H45124277   1.357   0.528   6.780  1.4000 -0.4806 -0.3455
   34MOL   H45224278   1.467   0.500   6.907  0.1102  0.3037  0.9818
   34MOL   H45324279   1.319   0.571   7.080  2.1696  0.6518 -1.5447
   34MOL   H45424280   1.172   0.546   6.988  0.2022 -0.3084  0.0098
   34MOL   H45524281   1.214   0.742   6.852  0.4217 -1.1243  0.5129
   34MOL   H45624282   1.361   0.776   6.929 -0.6669  1.2636 -0.9208
   34MOL   H45724283   1.080   0.797   7.041 -0.3293  0.8462 -0.1662
   34MOL   H45824284   1.219   0.841   7.137 -1.0118  1.0331  0.3958
   34MOL   H45924285   1.100   0.978   6.898  2.2643  2.8301 -1.4846
   34MOL   H46024286   1.258   1.011   6.945 -0.8655 -0.9106 -1.8291
   34MOL   H46124287   1.037   1.047   7.150 -0.1036 -0.4378 -0.2958
   34MOL   H46224288   1.215   1.087   7.162  0.5992 -1.4759 -0.0800
   34MOL   H46324289   1.089   1.214   6.937  1.9574  1.2001 -0.0355
   34MOL   H46424290   1.200   1.286   7.051 -0.0996  0.4347  2.2798
   34MOL   H46524291   0.779   1.683   7.176  0.3870 -0.3463  1.6770
   34MOL   H46624292   0.958   1.681   7.171 -0.4388  1.1144 -1.5259
   34MOL   H46724293   0.885   1.670   7.026 -1.5247  0.9475  0.0806
   34MOL   H46824294   0.735   1.321   7.107  0.6786  0.8395  1.0532
   34MOL   H46924295   0.648   1.457   7.146  0.1092 -1.1225  0.5190
   34MOL   C47024296   0.574   0.661   6.204 -0.4963  0.1260 -0.0351
   34MOL   C47124297   0.550   0.812   6.176  0.0214 -0.7095 -0.0446
   34MOL   C47224298   0.530   0.897   6.301  0.3872  0.1650  0.3156
   34MOL   C47324299   0.660   0.929   6.384  0.0223  0.1785 -0.6018
   34MOL   C47424300   0.623   0.945   6.533  0.6262 -0.1756  0.6311
   34MOL   C47524301   0.743   0.993   6.621 -0.1096  0.7221 -0.2161
   34MOL   C47624302   0.768   1.139   6.590  0.4644 -0.2030  0.0952
   34MOL   C47724303   0.860   1.203   6.697 -0.0123 -0.2406 -0.1479
   34MOL   O47824304   0.779   1.259   6.799  0.3557 -0.0864  0.4083
   34MOL   C47924305   0.779   1.389   6.828 -0.1831 -0.2260 -0.3031
   34MOL   O48024306   0.867   1.466   6.781  0.8675 -0.3284  0.6218
   34MOL   C48124307   0.674   1.437   6.931  0.0728 -0.2750 -0.2691
   34MOL   C48224308   0.555   1.338   6.929  0.3283  0.0761  0.0581
   34MOL   C48324309   0.633   1.587   6.901 -0.2607  0.3546 -0.5185
   34MOL   H48424310   0.595   0.593   6.121 -1.5197 -0.4939  0.1908
   34MOL   H48524311   0.496   0.614   6.264 -2.1479 -0.3113 -2.4348
   34MOL   H48624312   0.664   0.648   6.264 -0.0201 -2.6780 -1.2808
   34MOL   H48724313   0.648   0.838   6.135 -0.2489 -1.6519 -1.3451
   34MOL   H48824314   0.477   0.839   6.099  2.8312  1.3914 -2.0401
   34MOL   H48924315   0.485   0.995   6.281  2.8087  1.2401 -0.0899
   34MOL   H49024316   0.452   0.847   6.358 -0.5473 -1.2419 -2.1133
   34MOL   H49124317   0.723   0.842   6.369  1.2698  1.0804 -0.6368
   34MOL   H49224318   0.717   1.008   6.336 -0.2805  2.3935  2.4716
   34MOL   H49324319   0.547   1.023   6.534  1.8221  0.9921  0.6304
   34MOL   H49424320   0.577   0.850   6.560  0.3164 -0.1576  0.1707
   34MOL   H49524321   0.712   0.994   6.726 -0.4670  0.3187 -0.3144
   34MOL   H49624322   0.834   0.933   6.610  1.2669  2.7819 -0.2027
   34MOL   H49724323   0.810   1.134   6.490 -1.2218 -1.0893 -0.5845
   34MOL   H49824324   0.671   1.189   6.584 -0.9224 -2.9813 -1.8014
   34MOL   H49924325   0.922   1.273   6.641 -0.7420 -0.5120 -1.3156
   34MOL   H50024326   0.934   1.128   6.725  1.3128  0.7886 -0.8054
   34MOL   H50124327   0.587   1.239   6.960 -0.4780  0.0315  0.7643
   34MOL   H50224328   0.490   1.340   6.841  0.9391 -1.3059 -0.4458
   34MOL   H50324329   0.495   1.375   7.011  0.0763  0.4155 -0.2776
   34MOL   H50424330   0.601   1.629   6.996 -0.8584 -2.3673  0.5125
   34MOL   H50524331   0.722   1.648   6.883 -1.0135  1.9897  1.1920
   34MOL   C50624332   7.602   1.373   7.531  0.4387 -0.2715 -0.5336
   34MOL   C50724333   7.704   1.493   7.532 -0.0428  0.0324 -0.4054
   34MOL   C50824334   7.653   1.620   7.465 -0.2891  0.1143 -0.4225
   34MOL   C50924335   7.750   1.741   7.463  0.0458 -0.3723  0.1500
   34MOL   C51024336   0.103   1.719   7.380 -0.3571 -0.2939 -0.2883
   34MOL   C51124337   0.088   1.698   7.224  0.5491  0.3650 -0.8490
   34MOL   C51224338   0.227   1.668   7.159 -0.3380 -0.2665 -0.5693
   34MOL   C51324339   0.215   1.625   7.011 -0.2773 -0.6201  0.2983
   34MOL   O51424340   0.339   1.648   6.951  0.4106  0.4598 -0.1087
   34MOL   C51524341   0.380   1.585   6.839 -0.1234  0.3953 -0.1420
   34MOL   O51624342   0.300   1.518   6.772 -0.4430  0.8725  0.3904
   34MOL   C51724343   0.524   1.627   6.796  0.5454  0.1662 -0.0702
   34MOL   C51824344   0.533   1.789   6.793  0.1757  0.3491 -0.1261
   34MOL   C51924345   0.572   1.572   6.664 -0.5884  0.2883 -0.4285
   34MOL   H52024346   7.652   1.276   7.537 -0.9090 -1.0177 -1.2082
   34MOL   H52124347   7.540   1.369   7.442  1.0424  0.1928 -0.9818
   34MOL   H52224348   7.527   1.385   7.609  0.2529 -0.4305 -0.6885
   34MOL   H52324349   0.011   1.458   7.476  0.6088  0.0354  0.5956
   34MOL   H52424350   7.736   1.507   7.635 -2.0246  0.0294  0.2281
   34MOL   H52524351   7.623   1.588   7.365  1.0199  0.6671 -1.0036
   34MOL   H52624352   7.565   1.645   7.524 -1.0555 -1.1296 -1.0157
   34MOL   H52724353   7.696   1.831   7.433 -2.3319 -1.4913  0.9465
   34MOL   H52824354   7.777   1.774   7.563 -0.2812  0.4003 -0.0195
   34MOL   H52924355   0.157   1.814   7.378 -1.8334  0.5596 -0.5086
   34MOL   H53024356   0.161   1.641   7.428 -1.5196 -1.3611 -0.6087
   34MOL   H53124357   0.040   1.784   7.178 -1.1876 -0.0978  0.0425
   34MOL   H53224358   0.021   1.612   7.214  0.7855  0.1440 -0.5614
   34MOL   H53324359   0.277   1.588   7.214  0.4309  0.0294 -0.8346
   34MOL   H53424360   0.289   1.757   7.168 -0.4381 -0.0317 -2.1248
   34MOL   H53524361   0.138   1.688   6.967 -0.3550 -0.6287  0.4198
   34MOL   H53624362   0.180   1.523   7.005 -1.6314 -0.4200  3.4538
   34MOL   H53724363   0.507   1.837   6.886 -1.8247 -0.7319 -0.1055
   34MOL   H53824364   0.455   1.826   6.726 -0.0629  1.5871  0.8208
   34MOL   H53924365   0.634   1.829   6.779  0.6833 -1.1009 -0.7599
   34MOL   H54024366   0.680   1.576   6.669 -0.3722 -1.3226 -2.8757
   34MOL   H54124367   0.550   1.465   6.668  0.1903  0.0467 -2.2011
   34MOL   C54224368   1.421   1.785   7.117 -0.1077  0.6073  0.0653
   34MOL   C54324369   1.283   1.792   7.059 -0.9613  0.0862 -0.2074
   34MOL   C54424370   1.282   1.810   6.909  0.1112 -0.4297  0.5799
   34MOL   C54524371   1.138   1.812   6.863 -0.3772 -0.1459 -0.3937
   34MOL   C54624372   1.108   1.895   6.739 -0.5524  0.2645 -0.0077
   34MOL   C54724373   0.964   1.870   6.693  0.1444  0.6836  0.3580
   34MOL   C54824374   0.955   1.898   6.541  0.6493  0.5261 -0.1324
   34MOL   C54924375   0.807   1.907   6.484 -0.5669 -0.1796 -0.0813
   34MOL   O55024376   0.738   1.792   6.525  0.1020  0.1229  0.2235
   34MOL   C55124377   0.613   1.780   6.501  0.1381 -0.0206  0.8493
   34MOL   O55224378   0.541   1.871   6.479  0.1699 -0.6398 -0.0058
   34MOL   C55324379   0.549   1.636   6.519 -0.2222 -0.5770  0.1293
   34MOL   C55424380   0.392   1.638   6.493  0.0461  0.1392  0.1105
   34MOL   C55524381   0.625   1.537   6.419  0.3230 -0.1427 -0.4914
   34MOL   H55624382   1.464   1.884   7.128 -0.9536  1.1330 -1.2943
   34MOL   H55724383   1.502   1.741   7.058  2.2016  0.4452  3.1975
   34MOL   H55824384   1.418   1.734   7.213  0.5052  0.4233 -0.0106
   34MOL   H55924385   1.239   1.697   7.090  1.2948 -0.0590  2.7809
   34MOL   H56024386   1.234   1.865   7.122 -0.7655 -1.5746  1.9282
   34MOL   H56124387   1.350   1.743   6.856 -0.4981 -0.4236 -0.2249
   34MOL   H56224388   1.328   1.907   6.888 -0.4330 -0.4062 -0.5692
   34MOL   H56324389   1.111   1.712   6.829  0.9649 -1.6143  2.5784
   34MOL   H56424390   1.073   1.849   6.942  1.9320  1.3657  0.8558
   34MOL   H56524391   1.182   1.884   6.660  2.3321 -0.0418  2.6405
   34MOL   H56624392   1.131   1.998   6.764  1.3568 -0.7415  2.5621
   34MOL   H56724393   0.938   1.764   6.694  2.1307  0.1279 -1.9135
   34MOL   H56824394   0.886   1.920   6.751  0.9843  1.4144  0.8751
   34MOL   H56924395   0.999   1.994   6.513  0.5321  0.2856 -1.1815
   34MOL   H57024396   1.005   1.820   6.483  1.0418 -0.4821  1.5291
   34MOL   H57124397   0.800   1.911   6.375 -2.5213 -1.1244 -0.0068
   34MOL   H57224398   0.762   1.998   6.526  1.6839  0.7967  0.3063
   34MOL   H57324399   0.361   1.686   6.401 -1.3278  0.6472  0.8200
   34MOL   H57424400   0.341   1.691   6.574  1.0929  1.2101  0.0868
   34MOL   H57524401   0.352   1.537   6.485 -1.9959  0.9798 -0.5244
   34MOL   H57624402   0.583   1.441   6.448 -1.2646  0.7996  0.4066
   34MOL   H57724403   0.728   1.522   6.453  0.1466 -1.3134 -0.4548
   34MOL   C57824404   0.586   2.217   5.447  0.4156  0.0660 -0.2870
   34MOL   C57924405   0.614   2.140   5.574  0.7155  0.8580 -0.5374
   34MOL   C58024406   0.498   2.141   5.676  0.1317 -0.2942 -0.6205
   34MOL   C58124407   0.534   2.056   5.802 -0.0527  0.4929 -0.4652
   34MOL   C58224408   0.626   2.122   5.904 -0.0839 -0.1385 -0.3450
   34MOL   C58324409   0.657   2.031   6.020  0.4117  0.0572  0.0374
   34MOL   C58424410   0.758   1.915   5.989 -0.1268 -0.2797  0.5226
   34MOL   C58524411   0.810   1.849   6.116  0.4507 -0.2517 -0.3837
   34MOL   O58624412   0.708   1.758   6.155 -0.1518 -0.7186  0.2775
   34MOL   C58724413   0.744   1.649   6.216  0.4868  0.1857  0.4663
   34MOL   O58824414   0.858   1.616   6.241 -0.0360 -0.6181 -0.0669
   34MOL   C58924415   0.635   1.550   6.262 -0.1174 -0.7176 -0.2030
   34MOL   C59024416   0.499   1.594   6.197  0.1702  0.1784 -0.2769
   34MOL   C59124417   0.686   1.410   6.210 -0.5594 -0.0968  0.3470
   34MOL   H59224418   0.488   2.196   5.403  0.1524  0.3234  0.1690
   34MOL   H59324419   0.657   2.204   5.366  1.7620  0.9997  0.7202
   34MOL   H59424420   0.587   2.323   5.472 -0.5022  0.3299 -1.3020
   34MOL   H59524421   0.705   2.185   5.614  1.7618 -0.4148 -1.4264
   34MOL   H59624422   0.645   2.038   5.548  0.9979 -0.1514  3.4439
   34MOL   H59724423   0.411   2.091   5.633 -0.1572 -0.9572  0.6897
   34MOL   H59824424   0.470   2.240   5.713 -2.1686 -0.6473 -1.3120
   34MOL   H59924425   0.577   1.962   5.768 -1.4315  0.4873 -2.2890
   34MOL   H60024426   0.436   2.031   5.844 -0.7058 -0.1172 -2.3144
   34MOL   H60124427   0.563   2.200   5.948  0.1249  0.7260 -1.5336
   34MOL   H60224428   0.712   2.166   5.853 -0.7152 -0.1329 -1.4205
   34MOL   H60324429   0.572   1.975   6.059  0.1034 -0.6003 -1.5675
   34MOL   H60424430   0.699   2.099   6.094  0.7652  1.0495 -1.0620
   34MOL   H60524431   0.850   1.959   5.950  1.3381 -3.5928  0.0215
   34MOL   H60624432   0.719   1.853   5.908 -1.3845 -0.5343  1.3090
   34MOL   H60724433   0.904   1.798   6.093  1.5003  2.0968 -1.5150
   34MOL   H60824434   0.818   1.920   6.198 -2.0107  2.8826 -2.7461
   34MOL   H60924435   0.514   1.590   6.089 -1.1570 -0.4742 -0.4459
   34MOL   H61024436   0.421   1.526   6.231  0.1907 -0.0113 -0.6023
   34MOL   H61124437   0.476   1.698   6.219  1.4430  0.5322 -0.5539
   34MOL   H61224438   0.628   1.339   6.270  0.3717  1.9039  3.7648
   34MOL   H61324439   0.787   1.403   6.252 -0.7268 -0.0073  0.7612
   34MOL   C61424440   0.177   1.014   6.895 -0.1181 -0.0148  0.3688
   34MOL   C61524441   0.248   1.123   6.814  1.3151 -0.1944  0.6995
   34MOL   C61624442   0.220   1.098   6.665  0.9859  0.4520 -0.0971
   34MOL   C61724443   0.266   1.202   6.562  0.4520  0.4114 -0.6427
   34MOL   C61824444   0.239   1.175   6.418 -0.4096  0.8002 -0.1253
   34MOL   C61924445   0.312   1.272   6.320  0.0694  0.4945 -0.7483
   34MOL   C62024446   0.268   1.273   6.176 -0.1922  0.0538  0.2493
   34MOL   C62124447   0.340   1.178   6.078  0.0225  0.0616 -0.1295
   34MOL   O62224448   0.484   1.210   6.076 -0.4580  1.0016  0.2105
   34MOL   C62324449   0.540   1.315   6.015  0.4756  0.2694  0.4589
   34MOL   O62424450   0.474   1.390   5.944  0.2516  0.3870 -0.2975
   34MOL   C62524451   0.682   1.354   6.054 -0.4634  0.0507  0.2130
   34MOL   C62624452   0.735   1.464   5.957  0.1076 -0.0643 -0.3642
   34MOL   C62724453   0.766   1.229   6.062  0.1404  0.0942  0.0723
   34MOL   H62824454   0.211   0.922   6.848 -2.2062 -1.1496  1.0440
   34MOL   H62924455   0.069   1.019   6.894 -0.0641  1.2669 -0.1508
   34MOL   H63024456   0.206   1.007   7.000 -0.2402 -0.3512  0.3791
   34MOL   H63124457   0.225   1.227   6.838  0.8054 -0.4505  1.3360
   34MOL   H63224458   0.357   1.117   6.820  1.6228  3.3459 -0.0164
   34MOL   H63324459   0.116   1.070   6.649  0.8914  0.7125  0.0508
   34MOL   H63424460   0.270   1.008   6.629 -1.2758  0.0369 -2.3679
   34MOL   H63524461   0.373   1.206   6.580  0.3719 -0.1126 -0.0089
   34MOL   H63624462   0.229   1.301   6.590  0.3593  0.8065 -2.1361
   34MOL   H63724463   0.280   1.081   6.380 -2.3789  0.7067 -2.1740
   34MOL   H63824464   0.134   1.160   6.393  0.2395 -3.4561 -0.5599
   34MOL   H63924465   0.291   1.372   6.357  1.1086  0.1007  0.9325
   34MOL   H64024466   0.421   1.267   6.321 -0.0163 -1.8411 -1.2304
   34MOL   H64124467   0.277   1.374   6.135 -0.1516  0.6228  1.6533
   34MOL   H64224468   0.162   1.248   6.167  0.0875 -0.5953 -1.5746
   34MOL   H64324469   0.324   1.079   6.122 -1.2471  0.0789 -0.5514
   34MOL   H64424470   0.308   1.182   5.974 -0.4978  1.1360  0.0677
   34MOL   H64524471   0.741   1.417   5.859 -1.5566 -0.9296 -0.0723
   34MOL   H64624472   0.836   1.497   5.981  0.2715 -1.5529  1.0675
   34MOL   H64724473   0.679   1.558   5.956  2.3916  1.3243 -1.1754
   34MOL   H64824474   0.719   1.151   6.122 -1.5475  0.2462 -1.0349
   34MOL   H64924475   0.855   1.241   6.123 -0.3689 -1.1494  1.0832
   34MOL   C65024476   1.290   0.907   5.089 -0.1620  0.1542  0.5460
   34MOL   C65124477   1.148   0.889   5.048  0.3692 -0.3622  0.0438
   34MOL   C65224478   1.048   0.881   5.165 -0.4365 -0.3188 -0.2897
   34MOL   C65324479   1.008   1.000   5.243 -0.0186 -1.2109  0.0659
   34MOL   C65424480   1.109   1.043   5.349 -0.3364  0.3667  0.4944
   34MOL   C65524481   1.053   1.142   5.449 -0.0544 -0.9272  0.1917
   34MOL   C65624482   1.146   1.156   5.568 -0.2091  0.5952  0.3099
   34MOL   C65724483   1.093   1.245   5.685 -0.2424 -0.0012 -0.0724
   34MOL   O65824484   0.990   1.177   5.757  0.4314  0.3349 -0.5964
   34MOL   C65924485   0.947   1.228   5.872  0.2748 -0.1511  0.0803
   34MOL   O66024486   1.011   1.325   5.922  0.5992  0.1639 -0.2582
   34MOL   C66124487   0.830   1.155   5.931 -0.2568 -0.2935 -0.1018
   34MOL   C66224488   0.727   1.132   5.820  0.8868  0.3554  0.4923
   34MOL   C66324489   0.868   1.012   5.988 -0.4484  0.8491  0.3255
   34MOL   H66424490   1.363   0.920   5.009  0.3652 -0.6287  0.8999
   34MOL   H66524491   1.332   0.829   5.152 -0.9324  0.6879  1.7613
   34MOL   H66624492   1.307   1.001   5.143  0.6869 -0.5811  1.5608
   34MOL   H66724493   1.145   0.787   5.011  0.3945 -0.6435  0.8205
   34MOL   H66824494   1.119   0.958   4.969 -1.4990  0.5530  1.5069
   34MOL   H66924495   1.073   0.801   5.235 -0.8814  2.4256  3.1705
   34MOL   H67024496   0.956   0.861   5.111 -0.1976  0.8587 -1.1608
   34MOL   H67124497   0.912   0.978   5.290 -0.3187  0.5310  0.3149
   34MOL   H67224498   0.988   1.087   5.179  0.7882  1.9912  3.9801
   34MOL   H67324499   1.193   1.093   5.300 -0.7166  2.1294  1.5955
   34MOL   H67424500   1.146   0.954   5.399  1.6542  0.7194 -0.2877
   34MOL   H67524501   1.029   1.233   5.393 -0.3868 -2.0255 -1.5097
   34MOL   H67624502   0.959   1.093   5.474 -0.2868  0.0916  1.3735
   34MOL   H67724503   1.239   1.201   5.532 -1.1069  0.0983 -2.7631
   34MOL   H67824504   1.182   1.060   5.605  0.8275  0.3222 -1.3304
   34MOL   H67924505   1.053   1.340   5.651  0.1400  0.7226  1.4583
   34MOL   H68024506   1.176   1.267   5.752 -1.4839  1.2493  1.0958
   34MOL   H68124507   0.768   1.066   5.744  1.7683  0.7692  0.5971
   34MOL   H68224508   0.692   1.222   5.770 -2.7552 -0.1745  1.9396
   34MOL   H68324509   0.640   1.087   5.867  0.7754 -0.8398 -0.8437
   34MOL   H68424510   0.784   0.968   6.041  1.2037 -0.2656  2.0640
   34MOL   H68524511   0.874   0.939   5.907  1.6696 -0.9398  2.0414
   34MOL   C68624512   1.125   0.382   5.115 -0.3080 -0.4343 -0.1621
   34MOL   C68724513   1.189   0.493   5.196 -0.0750 -0.5597 -0.1772
   34MOL   C68824514   1.278   0.431   5.306 -0.8042 -0.6702  0.2764
   34MOL   C68924515   1.331   0.537   5.396 -0.4944  0.3982  0.0792
   34MOL   C69024516   1.231   0.605   5.491  0.9568 -0.2184 -0.1706
   34MOL   C69124517   1.278   0.711   5.593  0.2323 -0.3366 -0.1246
   34MOL   C69224518   1.161   0.763   5.670  0.8261 -0.0411  0.0141
   34MOL   C69324519   1.215   0.839   5.796  0.0299  0.1972 -0.4326
   34MOL   O69424520   1.110   0.866   5.887 -0.3143 -0.0775  0.3710
   34MOL   C69524521   1.118   0.970   5.975 -0.6314  0.2980 -0.5099
   34MOL   O69624522   1.218   1.042   5.987 -0.0189 -0.6091 -0.3818
   34MOL   C69724523   0.998   0.985   6.071 -0.5797  0.3717 -0.3923
   34MOL   C69824524   0.970   0.841   6.128 -0.1568  0.1233 -0.3612
   34MOL   C69924525   1.031   1.074   6.193  0.4325 -0.4236 -0.1169
   34MOL   H70024526   1.044   0.419   5.052  0.0150 -0.7997 -0.8048
   34MOL   H70124527   1.080   0.314   5.187 -1.1062 -0.5799 -0.7849
   34MOL   H70224528   1.189   0.314   5.059 -0.6915 -1.3062  0.4461
   34MOL   H70324529   1.103   0.553   5.224 -0.1976 -0.3634 -0.9653
   34MOL   H70424530   1.252   0.561   5.138  1.0532 -0.6633  0.8954
   34MOL   H70524531   1.355   0.368   5.264 -0.1716 -0.2199  0.7504
   34MOL   H70624532   1.218   0.358   5.361 -2.3387 -1.1271 -1.9237
   34MOL   H70724533   1.385   0.603   5.327 -1.8889 -1.3746 -2.8309
   34MOL   H70824534   1.411   0.507   5.464 -1.7955 -2.9695  0.1650
   34MOL   H70924535   1.202   0.518   5.550 -1.0708 -0.3702 -1.3536
   34MOL   H71024536   1.149   0.638   5.427  0.8800 -2.6900 -1.4323
   34MOL   H71124537   1.339   0.661   5.668  1.2419 -1.4891 -1.6938
   34MOL   H71224538   1.328   0.796   5.546  1.3728 -1.2279 -0.5571
   34MOL   H71324539   1.092   0.825   5.613 -1.2065  0.5530  3.0030
   34MOL   H71424540   1.103   0.675   5.697 -0.7554  0.8412 -0.4499
   34MOL   H71524541   1.264   0.930   5.760 -4.4799  2.8217 -0.2233
   34MOL   H71624542   1.303   0.790   5.837  0.1325  1.3188  0.6867
   34MOL   H71724543   0.886   0.831   6.196  1.0788  0.1666  1.2085
   34MOL   H71824544   0.948   0.765   6.054 -0.6786 -1.4525  1.3692
   34MOL   H71924545   1.058   0.805   6.182 -0.6010  0.8959  0.9092
   34MOL   H72024546   1.100   1.021   6.260  0.4887 -0.5562 -0.2793
   34MOL   H72124547   0.942   1.088   6.255  0.8420  0.8583  0.1863
   34MOL   H72224548   1.076   1.169   6.165 -0.5246  0.1585  0.2695
   35MOL     C124549   7.277   6.441   2.089 -0.4407  0.3159 -0.0135
   35MOL     C224550   7.296   6.407   1.940 -0.3651 -0.6552 -0.1674
   35MOL     C324551   7.312   6.533   1.847 -0.6074 -0.2672 -0.2387
   35MOL     C424552   7.189   6.623   1.826 -0.8745  0.1467 -0.7177
   35MOL     C524553   7.204   6.706   1.697  0.3280  0.3639  0.0535
   35MOL     C624554   7.078   6.791   1.647  0.6263  0.7159 -0.1869
   35MOL     C724555   7.118   6.881   1.538 -0.0984  0.3570 -0.3509
   35MOL     C824556   7.188   7.009   1.589  0.1084  0.0388 -0.8044
   35MOL     O924557   7.221   7.088   1.475  0.2578 -0.2319 -0.1492
   35MOL    C1024558   7.274   7.212   1.494  0.0051  0.4068  0.8423
   35MOL    O1124559   7.274   7.280   1.595  0.0231  0.1480 -0.1389
   35MOL    C1224560   7.309   7.272   1.355  0.5130 -0.5593  0.0799
   35MOL    C1324561   7.199   7.372   1.309 -0.3102 -0.0417 -0.3863
   35MOL    C1424562   7.453   7.327   1.345 -0.5692 -0.0100 -0.4807
   35MOL    H1524563   7.174   6.464   2.115 -0.5787 -1.5316  1.1110
   35MOL    H1624564   7.362   6.509   2.104  0.2231 -0.5045 -0.0246
   35MOL    H1724565   7.317   6.352   2.136  2.3391  1.8587  0.6722
   35MOL    H1824566   7.209   6.352   1.903 -0.8940 -0.4989  0.8336
   35MOL    H1924567   7.381   6.343   1.917 -0.7268 -1.7450  1.4502
   35MOL    H2024568   7.390   6.591   1.895 -0.3034 -0.8109 -0.0770
   35MOL    H2124569   7.340   6.509   1.744  1.0804 -0.4866  0.2588
   35MOL    H2224570   7.102   6.557   1.819 -0.5508 -0.2350 -1.1859
   35MOL    H2324571   7.174   6.690   1.910  0.1424  0.4406 -0.7674
   35MOL    H2424572   7.243   6.658   1.607  0.7428 -0.6766  0.7727
   35MOL    H2524573   7.286   6.776   1.711  1.1145 -0.3289 -1.0348
   35MOL    H2624574   7.026   6.838   1.730  0.3150  1.3909 -0.7505
   35MOL    H2724575   7.005   6.722   1.606  1.4524  0.0099 -0.4730
   35MOL    H2824576   7.022   6.914   1.496 -0.0101  1.9655  0.6549
   35MOL    H2924577   7.179   6.834   1.462 -2.1182 -0.8362 -1.2765
   35MOL    H3024578   7.283   6.989   1.638  0.7539  0.4113 -1.8786
   35MOL    H3124579   7.128   7.057   1.665  2.3569  1.2665  0.2351
   35MOL    H3224580   7.213   7.399   1.204 -0.5884  0.4987 -0.2862
   35MOL    H3324581   7.098   7.332   1.319 -1.3336  2.3288 -0.6846
   35MOL    H3424582   7.209   7.465   1.366  1.0387  0.6984 -1.8038
   35MOL    H3524583   7.494   7.339   1.446 -3.2773  4.8331  0.1762
   35MOL    H3624584   7.452   7.423   1.293 -1.1670 -0.5983 -1.5847
   35MOL    H3724585   7.296   7.189   1.285 -1.6630 -0.5887  0.4887
   35MOL    C3824586   0.458   6.876   0.446 -0.5527 -0.2374 -0.0657
   35MOL    C3924587   0.323   6.915   0.496 -0.1156 -0.1349  0.3035
   35MOL    C4024588   0.319   6.942   0.644  0.0644 -0.1620 -0.2752
   35MOL    C4124589   0.183   6.986   0.702 -0.0280 -0.1419 -0.5237
   35MOL    C4224590   0.183   7.006   0.854 -0.2246 -0.5548  0.0942
   35MOL    C4324591   0.043   7.004   0.912  0.6076 -0.0013 -1.1387
   35MOL    C4424592   7.731   7.121   0.860 -0.7681  0.5050 -0.1532
   35MOL    C4524593   7.592   7.114   0.921  0.2029 -0.0932 -1.1216
   35MOL    O4624594   7.603   7.145   1.060 -0.4228 -0.1253 -0.4874
   35MOL    C4724595   7.522   7.236   1.117 -0.6303  0.6752  0.2447
   35MOL    O4824596   7.447   7.315   1.063 -0.3452  0.3720 -0.4093
   35MOL    C4924597   7.556   7.239   1.265 -0.1995 -0.6442  0.1494
   35MOL    C5024598   7.541   7.094   1.321 -0.2961  0.0912 -0.7013
   35MOL    C5124599   7.703   7.283   1.298  0.8150 -0.2468 -0.0999
   35MOL    H5224600   0.493   6.779   0.483  1.4165  0.3401 -0.3618
   35MOL    H5324601   0.529   6.955   0.467  1.5377 -2.3075  0.8480
   35MOL    H5424602   0.467   6.875   0.338 -0.4890  2.6766 -0.1218
   35MOL    H5524603   0.258   6.831   0.471  2.8700 -2.2144 -0.7956
   35MOL    H5624604   0.300   7.009   0.446  1.0970  0.7494  1.3598
   35MOL    H5724605   0.343   6.848   0.693  1.0017 -0.2397 -0.8707
   35MOL    H5824606   0.402   7.006   0.672 -0.3656 -0.2961  1.3474
   35MOL    H5924607   0.112   6.914   0.662  0.4150 -1.2974  0.7211
   35MOL    H6024608   0.152   7.081   0.659 -1.8738 -0.5722 -0.1858
   35MOL    H6124609   0.237   6.923   0.900 -2.0490 -1.3666  0.8257
   35MOL    H6224610   0.234   7.098   0.882  0.4871 -1.7340  2.8985
   35MOL    H6324611   7.771   6.910   0.892  0.2774 -0.0219 -0.2564
   35MOL    H6424612   0.052   7.005   1.021 -1.0598 -0.7986 -0.9813
   35MOL    H6524613   7.714   7.106   0.753 -2.8453  0.2869  0.1842
   35MOL    H6624614   7.776   7.215   0.892  1.8926 -0.3564 -1.2054
   35MOL    H6724615   7.560   7.010   0.922  0.1811 -0.0862  0.4151
   35MOL    H6824616   7.513   7.161   0.864 -0.2065 -1.0574 -1.3653
   35MOL    H6924617   7.446   7.058   1.282 -1.3618  0.8387  1.1288
   35MOL    H7024618   7.622   7.028   1.288  0.7117 -0.2858  2.3953
   35MOL    H7124619   7.525   7.088   1.429  1.8872  0.3638 -0.3439
   35MOL    H7224620   7.777   7.230   1.238  2.2004 -0.9048  2.1284
   35MOL    H7324621   7.737   7.224   1.384  1.8210  3.4356  2.1242
   35MOL    C7424622   7.578   7.426   0.067  0.5040  0.2996  0.1050
   35MOL    C7524623   7.668   7.455   0.187  0.3459 -0.0448 -0.2137
   35MOL    C7624624   7.610   7.413   0.327 -0.3668 -0.4539 -0.8120
   35MOL    C7724625   7.698   7.444   0.446 -0.1214 -0.4959 -0.8495
   35MOL    C7824626   7.624   7.457   0.582  0.5329 -0.0319  1.0236
   35MOL    C7924627   7.713   7.500   0.698 -0.0360 -0.0030  0.2611
   35MOL    C8024628   7.659   7.495   0.842  0.2410 -0.5771  0.3206
   35MOL    C8124629   7.754   7.544   0.950  0.0449  0.0565 -0.6559
   35MOL    O8224630   7.755   7.468   1.070  0.1167  0.6216 -0.3398
   35MOL    C8324631   7.701   7.512   1.182 -0.5322 -0.4338  0.5115
   35MOL    O8424632   7.609   7.592   1.187 -1.0447 -0.3722  0.4691
   35MOL    C8524633   7.755   7.438   1.308  0.6423 -0.3279  0.3090
   35MOL    C8624634   7.701   7.502   1.442  0.0950  0.0982 -0.4534
   35MOL    C8724635   0.129   7.440   1.310  0.2596 -0.1224  0.8809
   35MOL    H8824636   7.490   7.490   0.062 -0.1387 -0.6035 -0.3985
   35MOL    H8924637   7.531   7.328   0.078 -2.5086  1.4955 -1.6264
   35MOL    H9024638   7.627   7.428   7.749 -0.9849 -1.1880 -0.6936
   35MOL    H9124639   7.694   7.560   0.194  3.2147 -0.6990 -0.4044
   35MOL    H9224640   7.756   7.391   0.179  0.5456  0.0613  1.0609
   35MOL    H9324641   7.512   7.455   0.351 -1.5472 -3.4830 -0.1002
   35MOL    H9424642   7.591   7.306   0.323 -1.8187 -0.2429 -0.0063
   35MOL    H9524643   7.718   7.549   0.428 -0.7630 -0.6131 -2.2676
   35MOL    H9624644   0.016   7.398   0.434 -0.6697 -1.7081 -0.7363
   35MOL    H9724645   7.540   7.526   0.582 -0.0275 -0.6987  0.1790
   35MOL    H9824646   7.573   7.366   0.615 -0.1058 -0.2934 -0.6014
   35MOL    H9924647   0.032   7.456   0.683  0.9417  2.3123 -0.3762
   35MOL   H10024648   7.747   7.602   0.679 -1.1843  0.5756  1.2882
   35MOL   H10124649   7.568   7.555   0.835 -0.7739 -2.2826 -1.5850
   35MOL   H10224650   7.621   7.397   0.868 -1.0686 -0.1630  0.0269
   35MOL   H10324651   7.748   7.652   0.962 -1.5327 -0.2251  1.3925
   35MOL   H10424652   0.064   7.518   0.893 -1.2967  1.2091 -3.3619
   35MOL   H10524653   7.596   7.531   1.440 -0.2139 -0.8317  1.0941
   35MOL   H10624654   7.754   7.591   1.476  0.7805 -0.1359 -0.9004
   35MOL   H10724655   7.719   7.417   1.508 -0.3123 -0.4341 -1.0276
   35MOL   H10824656   0.152   7.379   1.398  1.6881  1.4503  1.6102
   35MOL   H10924657   0.159   7.367   1.235  2.9392  1.2405  0.6010
   35MOL   C11024658   0.621   7.105   1.914 -0.4498 -0.0472 -0.8992
   35MOL   C11124659   0.588   7.108   1.768 -0.4260  0.4858  0.9005
   35MOL   C11224660   0.497   7.232   1.729 -1.1765  0.2853  0.1315
   35MOL   C11324661   0.349   7.220   1.763 -0.0987 -0.5374 -0.0996
   35MOL   C11424662   0.280   7.345   1.703  0.5748 -0.1636  0.3560
   35MOL   C11524663   0.264   7.459   1.808  0.1125 -0.0760 -0.3004
   35MOL   C11624664   0.182   7.583   1.769 -0.3022 -0.2438  1.1748
   35MOL   C11724665   0.244   7.669   1.657 -0.5302  0.0894 -0.3622
   35MOL   O11824666   0.228   7.599   1.537  1.1694  0.5119  0.0567
   35MOL   C11924667   0.237   7.657   1.420  0.0149  0.2022  0.6021
   35MOL   O12024668   0.256   7.775   1.401 -0.2996  0.2942 -0.2359
   35MOL   C12124669   0.235   7.555   1.302  0.2063  1.3378  0.2243
   35MOL   C12224670   0.217   7.632   1.168 -0.0692 -0.2560  0.1027
   35MOL   C12324671   0.372   7.463   1.308 -0.1062 -0.9711  1.0540
   35MOL   H12424672   0.689   7.023   1.937  1.8933  1.9633 -0.4650
   35MOL   H12524673   0.677   7.194   1.942 -2.1853  0.1884  1.9590
   35MOL   H12624674   0.534   7.094   1.978 -0.5746 -0.5178 -1.1507
   35MOL   H12724675   0.517   7.026   1.758 -0.4319  0.5884  0.0810
   35MOL   H12824676   0.676   7.100   1.704 -0.0250 -0.4649  1.5426
   35MOL   H12924677   0.517   7.251   1.623 -0.3413  1.2569  0.4488
   35MOL   H13024678   0.538   7.317   1.784  1.0609  0.0307 -1.0913
   35MOL   H13124679   0.306   7.131   1.717 -2.6041  1.0894 -0.9869
   35MOL   H13224680   0.334   7.222   1.871 -0.7820  0.0009 -0.1990
   35MOL   H13324681   0.176   7.317   1.683  0.2455  0.7344  0.8039
   35MOL   H13424682   0.342   7.377   1.620 -0.4047 -0.5186 -0.5178
   35MOL   H13524683   0.215   7.416   1.895 -1.4479  0.9110 -0.6788
   35MOL   H13624684   0.354   7.504   1.850 -0.3893  0.1531  0.5483
   35MOL   H13724685   0.168   7.653   1.852  0.1961  1.3698 -0.0667
   35MOL   H13824686   0.084   7.545   1.740  0.1801 -0.2877 -0.4880
   35MOL   H13924687   0.201   7.768   1.640 -0.7153 -0.0770 -0.8580
   35MOL   H14024688   0.352   7.678   1.673 -0.3446 -3.9344  1.2861
   35MOL   H14124689   0.225   7.554   1.092 -2.1847 -1.4090  1.0139
   35MOL   H14224690   0.126   7.690   1.155 -0.2623 -1.0131 -2.2037
   35MOL   H14324691   0.290   7.712   1.160  0.8188 -1.0003  0.5547
   35MOL   H14424692   0.356   7.376   1.244  1.7018 -1.0173  0.6513
   35MOL   H14524693   0.372   7.412   1.404  1.4315 -1.3734  0.8513
   35MOL   C14624694   1.418   0.222   1.311 -1.1311  0.4721  0.0765
   35MOL   C14724695   1.264   0.223   1.288 -0.1033  1.2611  0.1183
   35MOL   C14824696   1.220   0.241   1.142 -0.1213  0.1215  0.0258
   35MOL   C14924697   1.064   0.231   1.116 -0.2283  0.1744 -0.2465
   35MOL   C15024698   1.011   0.091   1.123  0.5608  0.3042 -0.4464
   35MOL   C15124699   0.869   0.084   1.081 -0.6262 -0.0633  0.0373
   35MOL   C15224700   0.829   7.722   1.041 -0.7775 -0.0659  0.1896
   35MOL   C15324701   0.682   7.699   1.013  0.4258 -0.3280 -0.0793
   35MOL   O15424702   0.627   7.662   1.138  0.7464  0.1797 -0.4028
   35MOL   C15524703   0.547   7.556   1.152  0.9558 -0.1788 -0.0350
   35MOL   O15624704   0.494   7.493   1.059  0.8064  0.3585  0.0063
   35MOL   C15724705   0.520   7.514   1.297  0.3677 -0.2869 -0.2148
   35MOL   C15824706   0.542   7.629   1.395  0.0803 -0.0639 -0.3780
   35MOL   C15924707   0.624   7.404   1.333 -1.2564  1.0660 -0.2172
   35MOL   H16024708   1.444   0.327   1.319 -4.0269  1.1935  0.4515
   35MOL   H16124709   1.484   0.169   1.243 -2.9228 -2.6702  0.6877
   35MOL   H16224710   1.425   0.182   1.412 -0.4217  0.5289  0.0499
   35MOL   H16324711   1.218   0.128   1.314  2.0744  0.3371  0.7564
   35MOL   H16424712   1.224   0.299   1.355  1.2199 -0.6405  3.1897
   35MOL   H16524713   1.280   0.178   1.077  0.6649  0.4762  0.4031
   35MOL   H16624714   1.246   0.343   1.115 -0.3993  0.6042  1.5069
   35MOL   H16724715   1.019   0.295   1.192  0.8362  2.7529 -1.7339
   35MOL   H16824716   1.062   0.287   1.023  3.1177  1.2756  0.2930
   35MOL   H16924717   1.017   0.059   1.227 -1.2892 -0.0761 -0.4408
   35MOL   H17024718   1.066   0.023   1.057  1.1160 -0.1430  0.4748
   35MOL   H17124719   0.837   0.158   1.008  0.1538 -1.3716 -1.6730
   35MOL   H17224720   0.816   0.111   1.172  2.2068  2.7662  0.9124
   35MOL   H17324721   0.874   7.694   0.945  1.6433 -0.6757  1.4626
   35MOL   H17424722   0.858   7.643   1.110  0.7012  1.0786  0.9231
   35MOL   H17524723   0.654   0.017   0.973  1.9155  0.3400  0.4843
   35MOL   H17624724   0.667   7.620   0.939  3.1495  0.1824 -1.2350
   35MOL   H17724725   0.519   7.599   1.497 -0.2497 -1.7812 -0.9400
   35MOL   H17824726   0.497   7.725   1.369  1.5803  0.8714  0.3928
   35MOL   H17924727   0.650   7.648   1.391  0.5225 -2.3016  0.3282
   35MOL   H18024728   0.595   7.363   1.430 -1.6457 -0.8581 -1.1310
   35MOL   H18124729   0.721   7.453   1.343 -0.9417  0.2160  1.1037
   35MOL   C18224730   0.810   6.957   0.111  0.1435  0.7071  0.0903
   35MOL   C18324731   0.834   6.971   0.272 -0.1415 -0.3070 -0.2754
   35MOL   C18424732   0.801   7.116   0.327  0.2144  0.0552 -0.0594
   35MOL   C18524733   0.830   7.123   0.476  0.0853 -1.0123  0.5704
   35MOL   C18624734   0.838   7.273   0.512 -0.4999 -0.5214  0.3614
   35MOL   C18724735   0.899   7.310   0.651 -0.8650  0.0216 -0.0369
   35MOL   C18824736   0.818   7.271   0.775 -0.2738  0.0841 -0.1952
   35MOL   C18924737   0.884   7.281   0.914 -0.5054 -0.0154  0.1816
   35MOL   O19024738   0.775   7.271   1.006 -0.5214  0.1839 -0.2535
   35MOL   C19124739   0.782   7.319   1.135  0.1765 -0.1094  0.3743
   35MOL   O19224740   0.878   7.388   1.173 -0.2078  1.0436  0.3279
   35MOL   C19324741   0.672   7.281   1.241 -0.4904 -0.4968 -0.3331
   35MOL   C19424742   0.555   7.206   1.179 -1.0178  0.4667  0.5017
   35MOL   C19524743   0.733   7.190   1.352 -0.2976 -0.1884 -0.6948
   35MOL   H19624744   0.871   7.030   0.058 -0.6923  0.4083 -1.3135
   35MOL   H19724745   0.839   6.861   0.068  2.6752  1.2967  0.4157
   35MOL   H19824746   0.703   6.977   0.103  0.0933  0.6185  0.5313
   35MOL   H19924747   0.935   6.931   0.281  0.4210  1.1778  0.2113
   35MOL   H20024748   0.773   6.898   0.326 -1.0480  1.1385  0.7218
   35MOL   H20124749   0.868   7.179   0.269 -1.4364  0.6531 -1.3425
   35MOL   H20224750   0.701   7.155   0.311  0.1529  0.6687  1.7238
   35MOL   H20324751   0.747   7.082   0.534 -1.1304 -1.2755 -1.3377
   35MOL   H20424752   0.921   7.070   0.503  3.0015  3.2624 -0.3568
   35MOL   H20524753   0.746   7.330   0.507 -0.6075 -0.6937  0.3841
   35MOL   H20624754   0.899   7.330   0.442 -1.1685  0.4261  0.5484
   35MOL   H20724755   0.919   7.417   0.661 -0.1937  0.0438 -1.5955
   35MOL   H20824756   0.992   7.254   0.657  0.2174  1.8591  0.9571
   35MOL   H20924757   0.730   7.336   0.774 -0.2385  0.2302  2.0731
   35MOL   H21024758   0.768   7.175   0.765 -2.7790  1.2280  0.8082
   35MOL   H21124759   0.940   7.374   0.927  1.6977 -1.7039  3.4514
   35MOL   H21224760   0.962   7.206   0.931 -0.1024  0.4541  0.4274
   35MOL   H21324761   0.581   7.115   1.125 -0.5452  1.2528 -0.6197
   35MOL   H21424762   0.475   7.181   1.248 -1.6687  0.3746 -0.2715
   35MOL   H21524763   0.514   7.265   1.097  0.4285  0.9259  0.0815
   35MOL   H21624764   0.802   7.256   1.406 -0.0201 -0.3903 -0.8065
   35MOL   H21724765   0.653   7.156   1.418 -2.1866  1.7539 -1.8868
   35MOL   C21824766   1.880   6.890   0.949  0.3597  0.2622 -0.1147
   35MOL   C21924767   1.807   7.025   0.960  0.1378 -0.1424  0.2042
   35MOL   C22024768   1.709   7.015   1.079 -0.0368  0.8302  0.4119
   35MOL   C22124769   1.597   7.121   1.093 -0.0237 -0.3751  0.1789
   35MOL   C22224770   1.497   7.090   1.206  0.2533  0.1319  0.2325
   35MOL   C22324771   1.378   7.189   1.196  0.2849 -0.0862 -0.5528
   35MOL   C22424772   1.260   7.147   1.272 -0.6004  0.0088 -0.0332
   35MOL   C22524773   1.125   7.210   1.226  1.0519  0.1627  0.6023
   35MOL   O22624774   1.015   7.164   1.304  0.3536  0.1880 -0.4032
   35MOL   C22724775   0.939   7.067   1.257 -0.1719 -0.1951 -0.0895
   35MOL   O22824776   0.971   6.999   1.164 -0.6866  0.4140  0.6987
   35MOL   C22924777   0.810   7.055   1.340  0.0495 -0.0565  0.1756
   35MOL   C23024778   0.728   6.945   1.273 -0.2864 -0.4143  0.3481
   35MOL   C23124779   0.831   7.021   1.494  0.0457 -0.3267 -0.1402
   35MOL   H23224780   1.921   6.861   1.045  3.3608  1.8942 -0.8301
   35MOL   H23324781   1.963   6.898   0.879 -0.7534  1.3152 -1.3477
   35MOL   H23424782   1.819   6.806   0.916  0.4573 -0.2786  1.0822
   35MOL   H23524783   1.754   7.053   0.869  0.4625  0.5201  0.2207
   35MOL   H23624784   1.873   7.109   0.984 -0.7909  0.4115  0.8450
   35MOL   H23724785   1.659   6.919   1.061  1.3969 -0.1679  1.6229
   35MOL   H23824786   1.755   7.003   1.177  0.4361 -0.6197  0.0291
   35MOL   H23924787   1.620   7.228   1.095 -1.4048 -0.0579  0.1876
   35MOL   H24024788   1.535   7.103   1.005  0.7380 -3.1857  0.1761
   35MOL   H24124789   1.458   6.989   1.197 -3.1814  1.4767 -0.7267
   35MOL   H24224790   1.547   7.083   1.303 -2.1566  1.1876  1.6062
   35MOL   H24324791   1.412   7.291   1.213  0.5116  0.4729 -3.9368
   35MOL   H24424792   1.348   7.213   1.094 -0.1475 -3.2141 -1.2200
   35MOL   H24524793   1.279   7.160   1.379  2.2823 -3.6338 -0.0207
   35MOL   H24624794   1.247   7.039   1.264  1.6258 -0.4356  1.8283
   35MOL   H24724795   1.116   7.203   1.118 -0.1462  1.8743  0.5542
   35MOL   H24824796   1.126   7.318   1.243 -0.5114  0.1376  0.9798
   35MOL   H24924797   0.735   6.962   1.166  1.3204 -4.4445 -0.2769
   35MOL   H25024798   0.621   6.956   1.295 -0.4927 -1.0239 -0.3313
   35MOL   H25124799   0.772   6.847   1.291  0.9465  0.2198  0.8030
   35MOL   H25224800   0.836   7.113   1.553  1.0586  0.1830 -0.9950
   35MOL   H25324801   0.738   6.971   1.520 -2.0459  2.5175 -1.7932
   35MOL   C25424802   1.243   7.441   2.520  0.2334  0.0668  0.6610
   35MOL   C25524803   1.257   7.327   2.417 -0.2691  0.2260  0.1904
   35MOL   C25624804   1.221   7.374   2.283  1.0337  0.7433 -0.0772
   35MOL   C25724805   1.231   7.274   2.167  0.6133 -0.0285 -0.0240
   35MOL   C25824806   1.142   7.314   2.048 -0.1874  0.0920  0.0615
   35MOL   C25924807   1.174   7.228   1.927  0.2131  0.0764 -0.2135
   35MOL   C26024808   1.128   7.289   1.797 -0.2924  0.3309 -0.4684
   35MOL   C26124809   1.170   7.210   1.671 -0.2534 -0.0821 -0.6381
   35MOL   O26224810   1.061   7.117   1.635 -0.5756  0.3090 -0.5677
   35MOL   C26324811   1.072   7.012   1.559 -0.1120 -0.3933 -0.5421
   35MOL   O26424812   1.173   6.979   1.504  0.0742 -0.0862 -0.7146
   35MOL   C26524813   0.943   6.928   1.558 -0.2076  0.4451  0.3323
   35MOL   C26624814   0.957   6.799   1.476 -0.3889 -0.3408 -0.5510
   35MOL   C26724815   0.892   6.890   1.699  0.1051  0.2151 -0.8561
   35MOL   H26824816   1.144   7.486   2.522 -0.7211 -1.9965  1.5613
   35MOL   H26924817   1.283   7.393   2.609  0.1599 -0.3610  0.4652
   35MOL   H27024818   1.314   7.519   2.493  0.3657 -1.3796 -3.5023
   35MOL   H27124819   1.362   7.298   2.415 -0.6953 -1.3311 -3.1072
   35MOL   H27224820   1.201   7.233   2.424  0.3605 -0.3157 -1.7011
   35MOL   H27324821   1.278   7.463   2.257  1.3249  0.3253 -0.9020
   35MOL   H27424822   1.115   7.395   2.292  0.2800 -2.1649 -1.7127
   35MOL   H27524823   1.196   7.175   2.196  2.1899 -0.5553  0.1660
   35MOL   H27624824   1.336   7.271   2.138 -0.2062 -0.3592 -3.1203
   35MOL   H27724825   1.039   7.314   2.082  0.8514 -0.1444  3.3140
   35MOL   H27824826   1.171   7.416   2.023  0.0931  0.3057  1.2566
   35MOL   H27924827   1.129   7.129   1.940 -0.3664  0.5272  1.3318
   35MOL   H28024828   1.281   7.213   1.917  0.4632  1.6928 -0.0746
   35MOL   H28124829   1.019   7.300   1.803 -0.0196  2.1702  1.5405
   35MOL   H28224830   1.166   7.391   1.792  0.6789 -0.0111 -0.1246
   35MOL   H28324831   1.193   7.273   1.585  0.6161  2.3201  1.3365
   35MOL   H28424832   1.256   7.147   1.694  0.4488  1.3261  0.6578
   35MOL   H28524833   0.980   6.838   1.376 -1.8448  1.8379 -0.0808
   35MOL   H28624834   1.044   6.743   1.510 -0.6803  0.0263  0.8131
   35MOL   H28724835   0.869   6.735   1.474  1.1465 -2.5069 -0.2131
   35MOL   H28824836   0.790   6.852   1.697  0.6908 -1.5454  0.9552
   35MOL   H28924837   0.888   6.985   1.753  0.1164 -0.4209  0.2711
   35MOL   C29024838   0.214   7.024   1.312  0.2208 -0.5208 -0.1186
   35MOL   C29124839   0.243   6.981   1.450 -0.4207  0.3786 -0.1435
   35MOL   C29224840   0.264   6.830   1.474 -0.1786 -0.0752 -0.3499
   35MOL   C29324841   0.416   6.793   1.459 -0.1218  0.4093 -0.2696
   35MOL   C29424842   0.446   6.654   1.526 -0.2344 -0.0487 -0.3721
   35MOL   C29524843   0.595   6.626   1.548  0.4426 -0.2676 -0.0021
   35MOL   C29624844   0.610   6.499   1.637 -0.3272  0.1380 -0.2226
   35MOL   C29724845   0.757   6.483   1.681 -0.1374 -0.6243 -0.3705
   35MOL   O29824846   0.796   6.605   1.744 -0.6635 -0.7284  0.3815
   35MOL   C29924847   0.922   6.638   1.748  0.4016 -0.2504  0.1234
   35MOL   O30024848   1.019   6.571   1.713 -0.2970 -0.5414 -0.1137
   35MOL   C30124849   0.955   6.780   1.801  0.4832 -0.7319 -0.0813
   35MOL   C30224850   1.108   6.800   1.822 -0.2240  0.7422  0.6454
   35MOL   C30324851   0.871   6.813   1.933  0.2367  0.6995 -0.4459
   35MOL   H30424852   0.189   7.130   1.322  0.8117 -0.1971 -1.8592
   35MOL   H30524853   0.125   6.976   1.269 -1.0133  1.9610 -0.4336
   35MOL   H30624854   0.307   7.019   1.255  2.3143 -0.0229  3.1594
   35MOL   H30724855   0.153   7.003   1.508 -0.4969  1.0278 -0.4944
   35MOL   H30824856   0.318   7.045   1.497  0.9182  0.3615 -2.1549
   35MOL   H30924857   0.208   6.768   1.405 -3.3759  0.8102  1.3596
   35MOL   H31024858   0.243   6.802   1.577  1.7352  3.0369  0.9568
   35MOL   H31124859   0.440   6.793   1.353  0.6526 -0.2574 -0.0943
   35MOL   H31224860   0.477   6.864   1.514  1.2870 -0.3579 -0.8122
   35MOL   H31324861   0.399   6.652   1.624  1.0975 -0.9979  0.2604
   35MOL   H31424862   0.397   6.569   1.477 -1.0842 -1.3996  2.7327
   35MOL   H31524863   0.642   6.712   1.597  1.5006  0.4150 -2.1669
   35MOL   H31624864   0.649   6.620   1.454  0.6014 -0.4524  0.1019
   35MOL   H31724865   0.579   6.414   1.576  0.2687 -0.0106 -0.3281
   35MOL   H31824866   0.550   6.500   1.728  0.7103 -0.7098  0.4905
   35MOL   H31924867   0.826   6.467   1.598 -0.9794  0.6889 -1.3211
   35MOL   H32024868   0.768   6.393   1.741 -1.4161 -0.3398  0.3123
   35MOL   H32124869   1.130   6.895   1.870  0.9459  1.5643 -1.4671
   35MOL   H32224870   1.159   6.819   1.728 -0.0445  0.1501  0.6188
   35MOL   H32324871   1.159   6.719   1.874 -0.1693  0.0468 -0.4734
   35MOL   H32424872   0.895   6.919   1.936  0.9528  0.5638 -1.0295
   35MOL   H32524873   0.768   6.802   1.897  0.2379  0.5285 -0.3991
   35MOL   C32624874   0.297   6.846   1.938 -0.7543 -0.3750  0.8048
   35MOL   C32724875   0.424   6.792   1.999 -0.4044  0.3640 -0.0558
   35MOL   C32824876   0.390   6.674   2.097 -0.0355  0.0491 -0.5392
   35MOL   C32924877   0.354   6.544   2.024 -0.1590  0.4610  0.7447
   35MOL   C33024878   0.384   6.414   2.102  0.8931  0.1673 -0.2359
   35MOL   C33124879   0.532   6.371   2.127  0.7212  0.3245 -0.2054
   35MOL   C33224880   0.621   6.368   2.012  0.6919  0.2043 -0.1929
   35MOL   C33324881   0.770   6.403   2.034 -0.5276 -0.1589 -0.0911
   35MOL   O33424882   0.781   6.545   2.040 -0.4777  0.5277 -0.2173
   35MOL   C33524883   0.896   6.597   2.069 -0.4647  0.2019 -0.8385
   35MOL   O33624884   0.997   6.530   2.099 -1.0166 -0.0603 -0.4024
   35MOL   C33724885   0.895   6.753   2.072  0.5046  0.0274 -0.1338
   35MOL   C33824886   1.029   6.807   2.136  0.6816 -0.2289  0.4718
   35MOL   C33924887   0.766   6.800   2.159  0.3820  1.1129  0.3714
   35MOL   H34024888   0.212   6.857   2.005 -0.1663  0.0108  1.4964
   35MOL   H34124889   0.273   6.788   1.849  0.4698 -0.2822  0.3992
   35MOL   H34224890   0.324   6.948   1.908  1.0306  0.2088  4.1919
   35MOL   H34324891   0.481   6.874   2.044  0.6333  0.7081 -1.9715
   35MOL   H34424892   0.488   6.741   1.927  0.3535  0.3578  0.6097
   35MOL   H34524893   0.310   6.707   2.164  1.6450  1.2378  0.9182
   35MOL   H34624894   0.475   6.635   2.153  1.5305  1.7054 -1.7024
   35MOL   H34724895   0.406   6.531   1.929  0.7580  0.9177  1.1739
   35MOL   H34824896   0.249   6.556   1.998  0.6064  2.0632 -1.8072
   35MOL   H34924897   0.339   6.431   2.200  1.7193 -1.8789  0.5348
   35MOL   H35024898   0.323   6.338   2.053  0.3902 -0.0719  0.7329
   35MOL   H35124899   0.579   6.444   2.193 -2.4676  0.9328  1.4890
   35MOL   H35224900   0.540   6.285   2.193 -3.3632  0.6689  0.8360
   35MOL   H35324901   0.573   6.434   1.939  0.4538 -1.7756 -1.8787
   35MOL   H35424902   0.611   6.270   1.965 -0.6170  0.6813 -0.9348
   35MOL   H35524903   0.796   6.359   2.130  0.5919 -0.8758 -0.7121
   35MOL   H35624904   0.838   6.368   1.956 -1.0601 -0.4380 -0.4372
   35MOL   H35724905   1.101   6.746   2.082  2.3686  2.1460 -0.0383
   35MOL   H35824906   1.047   6.912   2.116 -2.7239 -0.1074 -2.3470
   35MOL   H35924907   1.050   6.778   2.239 -2.1319  1.0219  1.4365
   35MOL   H36024908   0.753   6.899   2.116 -1.5499  0.0978 -1.4774
   35MOL   H36124909   0.678   6.748   2.122 -0.3850  1.5034  1.5930
   35MOL   C36224910   1.281   7.399   3.274  0.1264 -0.0741  0.9307
   35MOL   C36324911   1.293   7.354   3.128 -0.2204 -0.6016 -0.2165
   35MOL   C36424912   1.191   7.252   3.089  0.3018  0.4108  0.3228
   35MOL   C36524913   1.194   7.232   2.940  0.1328 -0.1533 -0.6473
   35MOL   C36624914   1.102   7.115   2.902  0.5551 -0.0464 -0.7965
   35MOL   C36724915   1.110   7.083   2.756  0.8318  0.2484 -0.3620
   35MOL   C36824916   1.009   6.990   2.688  0.0259 -0.3483 -0.8539
   35MOL   C36924917   1.019   6.976   2.544 -0.2642 -0.7158 -0.0696
   35MOL   O37024918   0.921   6.879   2.490  0.4873  0.1880 -0.6729
   35MOL   C37124919   0.859   6.909   2.368  0.5208 -0.3229  0.2782
   35MOL   O37224920   0.891   7.008   2.295 -0.1761 -0.4214 -0.0777
   35MOL   C37324921   0.752   6.807   2.319  0.6643  0.2850  0.5187
   35MOL   C37424922   0.775   6.672   2.385 -0.1987  0.1805 -0.6086
   35MOL   C37524923   0.601   6.858   2.351  0.4092 -0.2702 -0.1187
   35MOL   H37624924   1.353   7.477   3.299  1.5106  0.1286 -3.3058
   35MOL   H37724925   1.180   7.434   3.297 -0.3885  0.1161 -1.5516
   35MOL   H37824926   1.294   7.309   3.334 -2.2380  0.5067  2.4051
   35MOL   H37924927   1.386   7.297   3.123 -1.0628 -1.9055 -1.3567
   35MOL   H38024928   1.301   7.435   3.055 -3.5420  0.1722  0.2106
   35MOL   H38124929   1.088   7.282   3.111  0.1965  1.2104 -1.1953
   35MOL   H38224930   1.213   7.174   3.161  1.3813  1.1968  0.8630
   35MOL   H38324931   1.296   7.199   2.919  0.7984  2.2582 -1.4166
   35MOL   H38424932   1.161   7.326   2.895 -0.2141  0.7171  1.3595
   35MOL   H38524933   1.134   7.024   2.953  0.6967  1.2692  1.5103
   35MOL   H38624934   0.998   7.133   2.930  0.7310 -1.0009  0.5632
   35MOL   H38724935   1.209   7.046   2.730  1.2705  1.8257 -0.9733
   35MOL   H38824936   1.109   7.179   2.703  1.4702  1.1312  1.2010
   35MOL   H38924937   0.909   7.025   2.715  0.4831  0.3500 -0.0079
   35MOL   H39024938   1.031   6.892   2.731  1.2348  1.2438  2.3565
   35MOL   H39124939   1.004   7.072   2.494 -0.9532 -0.4794  0.5725
   35MOL   H39224940   1.121   6.951   2.516  0.2015  0.1260  0.8284
   35MOL   H39324941   0.750   6.678   2.491  0.1492 -0.6077 -0.4772
   35MOL   H39424942   0.709   6.597   2.341 -1.4178 -0.1238  1.6809
   35MOL   H39524943   0.879   6.637   2.384 -0.4109 -0.4574 -1.7916
   35MOL   H39624944   0.572   6.917   2.265 -0.5572 -1.2196 -0.4591
   35MOL   H39724945   0.539   6.769   2.342 -1.5209  0.8772  1.5463
   35MOL   C39824946   0.073   6.269   3.095  0.3434  0.6775  0.2282
   35MOL   C39924947   0.164   6.282   2.972 -0.2366 -0.0799 -0.0154
   35MOL   C40024948   0.090   6.330   2.849 -0.2349 -0.2925  0.1111
   35MOL   C40124949   0.101   6.482   2.835  0.8845 -0.5721  0.4458
   35MOL   C40224950   0.045   6.525   2.701  0.5059 -0.1204 -0.1284
   35MOL   C40324951   0.050   6.680   2.674 -0.5955  0.1832 -0.6071
   35MOL   C40424952   0.192   6.730   2.653  0.2969 -0.0996 -0.2831
   35MOL   C40524953   0.201   6.883   2.621  0.2113  0.3072 -0.1580
   35MOL   O40624954   0.341   6.921   2.602  0.1356 -0.0061  0.5758
   35MOL   C40724955   0.394   6.918   2.482  0.0401  0.1834  0.6744
   35MOL   O40824956   0.329   6.894   2.377  0.2926  0.1331 -0.2733
   35MOL   C40924957   0.550   6.940   2.474  0.4893 -0.0597 -0.3205
   35MOL   C41024958   0.608   6.885   2.611 -0.0828 -0.2267 -0.2943
   35MOL   C41124959   0.599   7.098   2.468  0.2204  0.4956 -0.2897
   35MOL   H41224960   0.029   6.170   3.085  2.0998 -0.1983  0.8872
   35MOL   H41324961   7.766   6.335   3.102  0.2831  0.7170 -0.7208
   35MOL   H41424962   0.120   6.279   3.192 -1.3067  0.2467  1.0863
   35MOL   H41524963   0.208   6.185   2.949 -0.1619  0.4828 -2.3503
   35MOL   H41624964   0.248   6.349   2.986  0.7525 -1.5619  1.3225
   35MOL   H41724965   0.137   6.271   2.770 -1.8059  0.2843 -1.2632
   35MOL   H41824966   7.768   6.297   2.867 -0.0676 -1.1953 -0.5530
   35MOL   H41924967   0.206   6.512   2.832  0.9147 -0.6313  0.8248
   35MOL   H42024968   0.049   6.526   2.920  0.2501 -1.8300  0.7269
   35MOL   H42124969   0.111   6.475   2.629 -0.1648  0.2680 -1.0297
   35MOL   H42224970   7.719   6.496   2.694 -0.5889  3.3129  1.3332
   35MOL   H42324971   0.002   6.727   2.760 -0.8499 -3.4354  1.3310
   35MOL   H42424972   7.778   6.700   2.580  1.2511  3.8800 -0.9175
   35MOL   H42524973   0.253   6.714   2.741  1.3923  0.9732 -0.8261
   35MOL   H42624974   0.233   6.668   2.573  0.1062  1.4906 -1.6414
   35MOL   H42724975   0.143   6.880   2.528  1.4466  0.6858 -0.9520
   35MOL   H42824976   0.158   6.941   2.702  0.5992 -1.3438  1.2656
   35MOL   H42924977   0.716   6.901   2.612  0.2351 -2.2660  0.7506
   35MOL   H43024978   0.591   6.778   2.622  1.9049 -0.4450  0.9378
   35MOL   H43124979   0.569   6.934   2.700 -2.1844 -2.0535 -0.1623
   35MOL   H43224980   0.699   7.102   2.426  0.6029  0.4010  0.5935
   35MOL   H43324981   0.617   7.131   2.571 -2.6200 -0.9160  0.7190
   35MOL   C43424982   7.713   7.110   1.719 -0.2251  0.2659  0.5422
   35MOL   C43524983   7.590   7.143   1.804  0.2994 -0.0968  0.3905
   35MOL   C43624984   7.600   7.268   1.892 -0.5214  0.1006 -0.1351
   35MOL   C43724985   7.707   7.263   1.994  0.0497  0.0474  0.3379
   35MOL   C43824986   7.715   7.385   2.081 -0.0568  0.7133 -0.0210
   35MOL   C43924987   0.056   7.386   2.181 -0.4733  0.5208 -0.5761
   35MOL   C44024988   0.057   7.262   2.281  0.6041  0.3450  0.4828
   35MOL   C44124989   0.150   7.272   2.401  0.5276  0.1452  0.1216
   35MOL   O44224990   0.292   7.280   2.366  0.8160  0.0326  0.0416
   35MOL   C44324991   0.384   7.242   2.455  0.4807 -0.3183 -0.1622
   35MOL   O44424992   0.361   7.224   2.577  0.0800 -0.0917  0.3713
   35MOL   C44524993   0.516   7.211   2.383  0.2446  0.1078  0.1341
   35MOL   C44624994   0.504   7.176   2.235  0.2560 -0.6657 -0.4723
   35MOL   C44724995   0.576   7.362   2.390  1.0477  0.6735 -0.3300
   35MOL   H44824996   0.027   7.088   1.770  1.3519  0.8720 -1.9878
   35MOL   H44924997   7.740   7.183   1.642  1.0315 -1.5369 -0.7600
   35MOL   H45024998   7.689   7.022   1.660 -0.3953  1.2920 -0.9484
   35MOL   H45124999   7.552   7.059   1.862 -1.8707 -0.3524 -1.3219
   35MOL   H45225000   7.507   7.150   1.733  0.5124 -0.0813  0.1443
   35MOL   H45325001   7.512   7.259   1.955  0.3453 -1.6720  0.8686
   35MOL   H45425002   7.608   7.354   1.825  0.5318  1.2026  1.3913
   35MOL   H45525003   0.022   7.255   1.942 -0.0964  1.1223 -0.0939
   35MOL   H45625004   7.690   7.173   2.054 -0.9267 -0.8296 -1.2181
   35MOL   H45725005   7.721   7.477   2.024  2.1313  1.5969  1.5897
   35MOL   H45825006   7.625   7.398   2.141 -1.4166  0.1512 -1.9003
   35MOL   H45925007   0.050   7.484   2.229 -0.5754  0.5048 -0.5562
   35MOL   H46025008   0.150   7.395   2.127 -0.9408 -0.1026 -1.4877
   35MOL   H46125009   7.738   7.257   2.327 -0.3210  0.6293 -1.4367
   35MOL   H46225010   0.071   7.176   2.215  0.2169  0.3130  0.4462
   35MOL   H46325011   0.136   7.182   2.460 -1.3960 -1.4163 -2.5999
   35MOL   H46425012   0.106   7.352   2.460  1.3894 -0.0740  1.0599
   35MOL   H46525013   0.605   7.165   2.196  1.5637 -3.1875  3.3237
   35MOL   H46625014   0.451   7.084   2.211 -0.9887  0.0045 -0.3464
   35MOL   H46725015   0.457   7.260   2.184 -0.1134 -0.6482 -0.1030
   35MOL   H46825016   0.513   7.433   2.336 -0.8585 -0.1129  0.8126
   35MOL   H46925017   0.556   7.399   2.490  2.7155  1.8778 -0.4034
   35MOL   C47025018   0.415   6.697   2.992 -0.1057  1.4432  0.1961
   35MOL   C47125019   0.453   6.845   2.994 -0.2033  0.0528 -0.5495
   35MOL   C47225020   0.611   6.878   3.020 -0.1119  0.6941  0.4933
   35MOL   C47325021   0.642   7.021   3.053  0.0944 -0.5544 -0.4687
   35MOL   C47425022   0.662   7.107   2.929 -0.8193 -0.4223  0.1725
   35MOL   C47525023   0.686   7.257   2.955  0.3414 -0.0209 -0.8594
   35MOL   C47625024   0.680   7.334   2.826  0.2062 -0.4252 -0.8342
   35MOL   C47725025   0.785   7.304   2.721  0.3278 -0.0271 -0.7321
   35MOL   O47825026   0.748   7.364   2.612  0.1406 -0.2595 -0.6574
   35MOL   C47925027   0.815   7.358   2.498 -0.7496  0.4319  0.3393
   35MOL   O48025028   0.929   7.313   2.489 -0.0736  0.3574 -0.2925
   35MOL   C48125029   0.730   7.408   2.379  0.7317 -0.4100  0.9676
   35MOL   C48225030   0.793   7.347   2.250  0.4101 -0.2882 -0.2543
   35MOL   C48325031   0.742   7.570   2.355  1.0808  0.3120 -0.3748
   35MOL   H48425032   0.315   6.672   3.029  0.1046 -1.7041 -1.2140
   35MOL   H48525033   0.483   6.627   3.039 -1.0496  0.8025  0.6259
   35MOL   H48625034   0.420   6.667   2.887  0.8673  0.6869  0.4564
   35MOL   H48725035   0.408   6.890   2.905 -0.5636 -0.4823 -0.6419
   35MOL   H48825036   0.400   6.873   3.085  0.6889 -0.8066  0.2534
   35MOL   H48925037   0.665   6.816   3.091  2.7919  2.1231 -0.4157
   35MOL   H49025038   0.664   6.856   2.927  1.3488  1.8470  1.0450
   35MOL   H49125039   0.566   7.070   3.114  0.3454 -0.1039 -0.5217
   35MOL   H49225040   0.740   7.025   3.100 -0.6727  1.4839  1.0249
   35MOL   H49325041   0.741   7.061   2.871 -0.9154  0.9699 -1.0826
   35MOL   H49425042   0.573   7.099   2.867 -0.3118 -0.0401 -0.6186
   35MOL   H49525043   0.610   7.300   3.020  1.0049 -0.8013  0.4378
   35MOL   H49625044   0.775   7.287   3.009  0.4072  2.0028 -2.0298
   35MOL   H49725045   0.581   7.327   2.779  0.4318 -0.4899 -1.3043
   35MOL   H49825046   0.684   7.443   2.840 -2.3354 -0.3448 -0.4286
   35MOL   H49925047   0.795   7.197   2.701 -1.2159 -0.0496 -1.4620
   35MOL   H50025048   0.879   7.341   2.761 -1.8070  4.6811  0.2342
   35MOL   H50125049   0.896   7.380   2.232  1.1635 -2.4693 -0.1322
   35MOL   H50225050   0.734   7.376   2.163 -1.6944 -3.1861  0.1557
   35MOL   H50325051   0.794   7.239   2.242  1.4763 -0.3194  0.1671
   35MOL   H50425052   0.845   7.576   2.319  0.9870  0.2593 -0.6522
   35MOL   H50525053   0.678   7.606   2.274  1.3209  1.0393 -0.2464
   35MOL   C50625054   0.332   0.446   3.061  0.5287 -0.2255 -0.0596
   35MOL   C50725055   0.327   0.413   2.910 -0.9113 -0.0588 -0.4395
   35MOL   C50825056   0.299   0.266   2.875 -0.4929  0.3710 -0.3244
   35MOL   C50925057   0.272   0.240   2.727  1.0997 -0.3550  0.0656
   35MOL   C51025058   0.246   0.087   2.703 -0.3153  0.6601  0.8423
   35MOL   C51125059   0.276   0.058   2.550 -0.1143 -0.2853  0.4565
   35MOL   C51225060   0.255   7.693   2.510 -0.6543 -0.1520 -0.2575
   35MOL   C51325061   0.374   7.603   2.547  0.5201  0.0854 -0.1061
   35MOL   O51425062   0.490   7.646   2.483  0.8454  0.1672 -0.1002
   35MOL   C51525063   0.607   7.653   2.550 -0.0989 -0.2599 -0.0547
   35MOL   O51625064   0.610   7.648   2.668  0.1241 -0.0868 -0.2764
   35MOL   C51725065   0.735   7.676   2.465 -1.3008  0.7840 -0.9446
   35MOL   C51825066   0.857   7.665   2.562 -0.0560  0.4553 -0.5813
   35MOL   C51925067   0.719   0.033   2.388  0.2353  0.5832  0.3476
   35MOL   H52025068   0.350   0.551   3.082 -0.4974  0.1872 -1.2187
   35MOL   H52125069   0.403   0.387   3.120  0.3199 -2.2777 -1.7905
   35MOL   H52225070   0.228   0.442   3.092  0.6263 -1.2556  0.1654
   35MOL   H52325071   0.422   0.433   2.861 -0.6926 -0.8336 -0.3363
   35MOL   H52425072   0.249   0.476   2.868 -0.7437  0.5849  0.2097
   35MOL   H52525073   0.380   0.199   2.904 -0.4627  0.7719  0.5357
   35MOL   H52625074   0.211   0.237   2.931  0.3705 -2.1922 -0.2264
   35MOL   H52725075   0.185   0.296   2.693 -0.2522 -0.2684  3.3803
   35MOL   H52825076   0.361   0.263   2.669 -0.1716  0.6756 -1.5106
   35MOL   H52925077   0.318   0.029   2.761  0.5599  1.0372  0.1360
   35MOL   H53025078   0.146   0.056   2.734 -0.8004  1.9347  0.6114
   35MOL   H53125079   0.381   0.083   2.530  0.5938 -2.1225  1.7100
   35MOL   H53225080   0.206   0.112   2.487  1.6736 -1.1843 -2.3882
   35MOL   H53325081   0.261   7.672   2.403 -0.1157 -0.0998 -0.2381
   35MOL   H53425082   0.164   7.646   2.547 -0.4377 -0.4761 -0.1443
   35MOL   H53525083   0.357   7.502   2.510  1.4266 -0.2128  0.2451
   35MOL   H53625084   0.390   7.599   2.655 -1.4944 -0.9117  0.1757
   35MOL   H53725085   0.863   7.748   2.633  1.5650 -1.2857  1.3901
   35MOL   H53825086   0.944   7.678   2.497  0.7916 -0.9585  0.2433
   35MOL   H53925087   0.858   7.579   2.629 -0.0014  1.9926  1.4401
   35MOL   H54025088   0.784   0.025   2.301 -0.2071 -1.4635  0.1996
   35MOL   H54125089   0.624   0.033   2.333  0.6315 -0.9686 -0.3710
   35MOL   C54225090   0.749   7.539   1.856  0.0348  1.0095  0.1361
   35MOL   C54325091   0.870   7.588   1.932 -0.9238 -0.0835  0.3319
   35MOL   C54425092   0.885   7.741   1.938 -0.4193 -0.0615  0.0220
   35MOL   C54525093   1.018   0.002   2.012  0.2598 -0.0315 -0.3632
   35MOL   C54625094   1.011   0.136   2.086  0.1946  0.3120  0.0135
   35MOL   C54725095   1.135   0.198   2.146 -0.6205  0.3676  1.0407
   35MOL   C54825096   1.185   0.129   2.269  0.4965 -0.5129  0.0572
   35MOL   C54925097   1.123   0.175   2.396 -0.2513 -0.3665  0.5474
   35MOL   O55025098   0.981   0.154   2.393 -0.0652 -0.0897  0.3885
   35MOL   C55125099   0.901   0.188   2.493  0.3130  0.1311  0.4119
   35MOL   O55225100   0.933   0.232   2.603 -0.4070  0.1039 -0.3257
   35MOL   C55325101   0.751   0.173   2.457 -0.5420  0.2456 -0.2935
   35MOL   C55425102   0.669   0.201   2.589 -0.4955 -0.5596 -0.1691
   35MOL   C55525103   0.719   0.287   2.350 -0.2690  0.0503 -0.2849
   35MOL   H55625104   0.737   7.431   1.852 -0.6796  1.0612  0.6949
   35MOL   H55725105   0.753   7.571   1.752  0.4957 -2.2523 -0.8904
   35MOL   H55825106   0.652   7.576   1.891  0.5753 -1.3645  4.6067
   35MOL   H55925107   0.858   7.551   2.034 -0.3392  0.9491  0.7861
   35MOL   H56025108   0.958   7.538   1.892 -0.6594  0.9908 -0.4495
   35MOL   H56125109   0.799   0.005   1.988  0.4648  0.7096  0.8890
   35MOL   H56225110   0.883   0.002   1.837 -0.9989 -0.1867 -0.0192
   35MOL   H56325111   1.038   7.711   2.092 -0.4528 -1.2723 -1.2703
   35MOL   H56425112   1.107   7.777   1.950  0.9954 -1.2236  0.7746
   35MOL   H56525113   0.929   0.131   2.158  0.6944  0.3655  0.5907
   35MOL   H56625114   0.976   0.212   2.016  2.6959  0.7111 -0.8346
   35MOL   H56725115   1.222   0.190   2.081 -0.5515  1.7989  0.9433
   35MOL   H56825116   1.121   0.304   2.167 -1.9158  0.4751 -0.2663
   35MOL   H56925117   1.161   0.023   2.268  2.1394 -0.9026 -0.0635
   35MOL   H57025118   1.293   0.136   2.280  0.6070 -2.6271  0.5358
   35MOL   H57125119   1.156   0.277   2.412  1.5077 -0.7308 -0.5983
   35MOL   H57225120   1.162   0.122   2.483  2.7069  1.2107  0.2500
   35MOL   H57325121   0.563   0.213   2.568 -0.5992  2.5559  1.8632
   35MOL   H57425122   0.705   0.290   2.638 -0.9174 -1.4527  1.8056
   35MOL   H57525123   0.680   0.124   2.666  1.5061  1.5402  1.7108
   35MOL   H57625124   0.618   0.274   2.310 -0.3288  1.3367 -0.5552
   35MOL   H57725125   0.779   0.261   2.263 -0.3773  1.6559 -0.8499
   35MOL   C57825126   0.460   0.228   1.242  0.1088  0.5900 -0.2933
   35MOL   C57925127   0.428   0.346   1.326  0.1036 -0.3956  0.3473
   35MOL   C58025128   0.429   0.301   1.473  0.5597  0.1926 -0.1812
   35MOL   C58125129   0.433   0.418   1.576  0.2162 -0.4882  0.5627
   35MOL   C58225130   0.445   0.376   1.723  0.5563  0.2841 -0.3484
   35MOL   C58325131   0.500   0.488   1.803  0.0872  0.1281 -0.3125
   35MOL   C58425132   0.522   0.454   1.956  0.2749 -0.1552 -0.3940
   35MOL   C58525133   0.644   0.525   2.021 -0.3443  0.3461  0.4333
   35MOL   O58625134   0.648   0.484   2.150 -0.1753 -0.3137 -0.0187
   35MOL   C58725135   0.755   0.507   2.225  0.7019 -0.8712 -0.1225
   35MOL   O58825136   0.850   0.581   2.196  0.9312 -0.0788 -0.0666
   35MOL   C58925137   0.735   0.450   2.371  1.2239 -0.3977  0.5465
   35MOL   C59025138   0.863   0.490   2.447  0.6504 -0.0345  0.3997
   35MOL   C59125139   0.607   0.500   2.444 -0.6390  0.0522  0.1871
   35MOL   H59225140   0.461   0.267   1.140 -0.6872 -1.3971 -1.0739
   35MOL   H59325141   0.375   0.160   1.251  2.9463 -3.4682 -2.6587
   35MOL   H59425142   0.551   0.174   1.268  0.5385  1.4401  0.0007
   35MOL   H59525143   0.328   0.385   1.305 -0.1609 -0.4823  1.4093
   35MOL   H59625144   0.496   0.425   1.295 -0.1831 -0.9085 -1.6600
   35MOL   H59725145   0.515   0.238   1.497  1.2589  1.1099 -0.2893
   35MOL   H59825146   0.341   0.240   1.491  1.3087 -1.2700 -1.3337
   35MOL   H59925147   0.352   0.491   1.578  1.3220  0.7619  0.3423
   35MOL   H60025148   0.516   0.485   1.552 -0.3900 -0.1294 -0.5495
   35MOL   H60125149   0.522   0.298   1.730 -1.7137 -1.8091  2.7016
   35MOL   H60225150   0.357   0.320   1.756  0.7790 -0.1183 -0.4291
   35MOL   H60325151   0.441   0.579   1.793  0.0920  0.1546 -0.1131
   35MOL   H60425152   0.599   0.510   1.762  0.1891 -0.1362 -0.2133
   35MOL   H60525153   0.534   0.347   1.971 -1.0185 -0.2803 -0.1763
   35MOL   H60625154   0.443   0.498   2.017  1.3781  0.0745  0.8945
   35MOL   H60725155   0.735   0.509   1.963 -0.1505 -1.4297  1.1830
   35MOL   H60825156   0.628   0.632   2.027 -0.2360  0.3635  0.4278
   35MOL   H60925157   0.879   0.598   2.448 -0.2926  0.1244 -0.5680
   35MOL   H61025158   0.865   0.461   2.552 -0.8779 -0.6147  0.2831
   35MOL   H61125159   0.953   0.446   2.406  0.0060 -0.8930 -0.1110
   35MOL   H61225160   0.594   0.436   2.531  0.9494  1.4395  1.4609
   35MOL   H61325161   0.520   0.461   2.392  0.3186 -2.3930  0.3622
   35MOL   C61425162   0.948   7.589   3.066 -0.5245 -0.7288  0.2867
   35MOL   C61525163   0.895   7.729   3.046 -0.0435 -0.1027  0.4156
   35MOL   C61625164   0.764   7.729   2.966  0.0717 -0.2508 -0.2544
   35MOL   C61725165   0.682   0.079   2.980  0.0506 -0.5255  0.0135
   35MOL   C61825166   0.770   0.204   2.945  0.2397  0.0391  0.1139
   35MOL   C61925167   0.695   0.337   2.926 -0.9945  0.2910  0.3685
   35MOL   C62025168   0.784   0.455   2.893 -0.0229  0.4474 -0.0609
   35MOL   C62125169   0.693   0.577   2.864 -0.4284  0.0733 -0.3560
   35MOL   O62225170   0.622   0.570   2.736 -0.1039  0.1804  0.6725
   35MOL   C62325171   0.666   0.652   2.638 -0.3710 -0.4828 -0.3262
   35MOL   O62425172   0.761   0.728   2.641  0.1316 -0.2228 -0.1073
   35MOL   C62525173   0.588   0.642   2.503  0.5193  0.1233  0.0529
   35MOL   C62625174   0.635   0.744   2.397  0.3328 -0.0318 -0.1634
   35MOL   C62725175   0.433   0.654   2.538  0.1211 -0.6744 -0.4665
   35MOL   H62825176   0.955   7.531   2.973  1.5679 -0.5787  0.3116
   35MOL   H62925177   0.889   7.518   3.123 -1.4646 -0.2520 -0.0899
   35MOL   H63025178   1.048   7.594   3.110  0.0624  0.2814 -1.1267
   35MOL   H63125179   0.900   0.001   3.142 -0.8965  2.5186 -0.9163
   35MOL   H63225180   0.967   0.011   2.992 -1.0469  1.3260  0.6820
   35MOL   H63325181   0.705   7.639   2.987 -2.0106  0.4593 -2.7228
   35MOL   H63425182   0.777   7.722   2.859  1.1419  1.7721 -0.2722
   35MOL   H63525183   0.643   0.095   3.080 -0.3033 -1.1370 -0.0239
   35MOL   H63625184   0.601   0.079   2.906  0.3665  1.8401 -0.3579
   35MOL   H63725185   0.858   0.209   3.009  1.0642 -1.2848 -0.8788
   35MOL   H63825186   0.813   0.180   2.848 -3.9885  0.0050 -1.8662
   35MOL   H63925187   0.621   0.321   2.848  0.1036  0.6654 -0.7571
   35MOL   H64025188   0.634   0.366   3.012 -0.2773  1.0756  0.6197
   35MOL   H64125189   0.847   0.435   2.806  0.3073  1.1244  0.0201
   35MOL   H64225190   0.849   0.485   2.975  1.7905 -0.7771 -1.0006
   35MOL   H64325191   0.614   0.582   2.940  1.8515  1.0072  2.0074
   35MOL   H64425192   0.754   0.666   2.880  2.0349 -1.3445 -1.6528
   35MOL   H64525193   0.590   0.713   2.303  1.6656  0.6056 -1.0160
   35MOL   H64625194   0.743   0.737   2.383  0.4256  0.0992  0.4769
   35MOL   H64725195   0.616   0.848   2.423  0.8662 -0.1567  0.7681
   35MOL   H64825196   0.411   0.581   2.615 -1.2277  1.6355  1.3940
   35MOL   H64925197   0.371   0.612   2.458 -1.2154  2.0487 -0.9284
   35MOL   C65025198   0.710   1.411   3.347 -0.3454 -0.3762 -0.1380
   35MOL   C65125199   0.617   1.302   3.404  0.2272 -0.0494 -0.4407
   35MOL   C65225200   0.555   1.219   3.299 -0.3066  0.0768 -0.5192
   35MOL   C65325201   0.478   1.090   3.344  0.1320  0.0867 -0.2617
   35MOL   C65425202   0.411   1.020   3.228 -0.1731  0.7477  0.0038
   35MOL   C65525203   0.502   0.916   3.155  0.2675 -0.6910  0.0299
   35MOL   C65625204   0.439   0.867   3.024  0.5873  0.1348  0.3217
   35MOL   C65725205   0.527   0.885   2.897  0.7722 -0.8424  0.1055
   35MOL   O65825206   0.443   0.831   2.796  0.5007 -0.1785 -0.0475
   35MOL   C65925207   0.445   0.876   2.674 -0.3804  0.3451  0.2445
   35MOL   O66025208   0.512   0.971   2.643 -0.0281  0.1190  0.1432
   35MOL   C66125209   0.358   0.788   2.578 -0.5743  0.4185  0.3972
   35MOL   C66225210   0.230   0.743   2.646 -0.0126 -0.3400 -0.2699
   35MOL   C66325211   0.330   0.865   2.432  0.2321  0.1570  0.2005
   35MOL   H66425212   0.749   1.475   3.426  3.0065 -0.1240 -1.8931
   35MOL   H66525213   0.657   1.473   3.275 -0.9593 -1.6853 -0.8368
   35MOL   H66625214   0.812   1.392   3.313  0.0645  2.4510 -0.5953
   35MOL   H66725215   0.552   1.340   3.483  0.0610  2.4562 -1.7439
   35MOL   H66825216   0.677   1.234   3.466  0.6860  2.1203  1.5638
   35MOL   H66925217   0.627   1.213   3.217  0.8078  0.3815  0.4259
   35MOL   H67025218   0.483   1.284   3.249  0.2571  0.4184 -0.8984
   35MOL   H67125219   0.403   1.113   3.419 -1.1249 -1.0165 -1.1624
   35MOL   H67225220   0.552   1.023   3.388 -0.5628 -1.6469 -1.6645
   35MOL   H67325221   0.374   1.096   3.160 -0.6117  0.0847 -0.5067
   35MOL   H67425222   0.326   0.962   3.263 -1.1076  1.1727 -1.5312
   35MOL   H67525223   0.595   0.970   3.141  0.1504 -0.2974  0.7239
   35MOL   H67625224   0.512   0.836   3.228 -0.3010  0.1338  1.0282
   35MOL   H67725225   0.350   0.925   2.999  1.7430  1.1898 -1.5138
   35MOL   H67825226   0.400   0.765   3.031 -1.4690  0.7441 -1.5107
   35MOL   H67925227   0.622   0.832   2.892  1.3400  0.1701 -0.0549
   35MOL   H68025228   0.553   0.990   2.883  1.6239 -0.8508  1.5242
   35MOL   H68125229   0.166   0.692   2.574  0.2973 -0.5955 -0.3643
   35MOL   H68225230   0.173   0.822   2.695  0.0460 -1.1147  1.0702
   35MOL   H68325231   0.245   0.681   2.735 -2.2577 -1.1017 -0.3753
   35MOL   H68425232   0.420   0.914   2.393 -0.3119 -0.4599 -1.9351
   35MOL   H68525233   0.304   0.786   2.362 -0.3729  0.5053  0.0282
   35MOL   C68625234   0.326   7.731   2.111 -0.1132 -0.4539  0.7283
   35MOL   C68725235   0.318   0.099   2.070  0.1838  0.2709 -0.2123
   35MOL   C68825236   0.229   0.176   2.171  0.7743  0.3289 -0.3972
   35MOL   C68925237   0.220   0.335   2.169  0.7956  0.1284  0.2736
   35MOL   C69025238   0.129   0.395   2.277  0.0813 -0.1747 -0.2985
   35MOL   C69125239   0.097   0.539   2.267 -0.1644  0.3131 -0.3816
   35MOL   C69225240   7.761   0.584   2.364  0.1890  0.2175 -0.7234
   35MOL   C69325241   7.717   0.727   2.331  0.1380 -0.4608  0.2016
   35MOL   O69425242   0.048   0.821   2.325  0.4488  0.1113  0.5404
   35MOL   C69525243   0.074   0.903   2.425  0.2149  0.3218 -0.7911
   35MOL   O69625244   0.002   0.919   2.523 -0.0549  0.1774  0.1301
   35MOL   C69725245   0.216   0.969   2.417 -0.5466  0.4394 -0.6621
   35MOL   C69825246   0.225   1.040   2.276 -0.6351  0.0409  0.1856
   35MOL   C69925247   0.233   1.085   2.513  0.3005  0.5744  0.0326
   35MOL   H70025248   0.359   7.724   2.215  1.5688  0.7189  0.2789
   35MOL   H70125249   0.393   7.666   2.056 -0.8134 -0.5171 -0.0549
   35MOL   H70225250   0.222   7.697   2.111 -1.2327  2.7619 -0.7360
   35MOL   H70325251   0.279   0.113   1.969  0.8059 -1.8740 -0.7796
   35MOL   H70425252   0.419   0.138   2.076  0.8217 -1.4817  0.8190
   35MOL   H70525253   0.276   0.156   2.268 -1.2520  0.5207  0.6520
   35MOL   H70625254   0.128   0.136   2.167  0.0928  1.8625  0.9976
   35MOL   H70725255   0.172   0.362   2.075 -0.3761 -0.5714  0.6708
   35MOL   H70825256   0.323   0.371   2.163  1.3183 -1.1668  1.0911
   35MOL   H70925257   0.173   0.389   2.377  2.1385  1.0420 -1.0949
   35MOL   H71025258   0.038   0.337   2.293  1.3989 -1.4103  3.0961
   35MOL   H71125259   0.181   0.606   2.288  0.8530 -1.1876  0.4799
   35MOL   H71225260   0.071   0.560   2.163  1.3283 -0.4426 -0.9215
   35MOL   H71325261   7.677   0.518   2.346  0.1593 -0.0706  0.4040
   35MOL   H71425262   0.029   0.573   2.462  0.8348  0.6896 -0.9779
   35MOL   H71525263   7.641   0.764   2.400 -0.5617 -0.8051 -0.3743
   35MOL   H71625264   7.668   0.726   2.233  0.4992  1.1912 -0.0005
   35MOL   H71725265   0.324   1.077   2.251 -0.8244  0.5029  0.1094
   35MOL   H71825266   0.185   0.967   2.205  1.0417  0.7655 -1.5186
   35MOL   H71925267   0.149   1.119   2.275 -1.0388 -0.3584 -0.7943
   35MOL   H72025268   0.223   1.052   2.616  0.8477 -2.0452 -0.7237
   35MOL   H72125269   0.164   1.164   2.484  1.3374  1.3371 -0.4003
   35MOL   H72225270   0.331   1.133   2.503 -0.0692  0.7499 -3.1342
   36MOL     C125271   0.308   4.657   4.260  0.0200 -0.2813  0.0243
   36MOL     C225272   0.278   4.559   4.142 -0.1846 -0.0369 -0.5450
   36MOL     C325273   0.151   4.586   4.071 -0.2422  0.7887  0.1393
   36MOL     C425274   0.126   4.495   3.955 -0.1553 -0.1130  0.0725
   36MOL     C525275   7.756   4.517   3.918  0.2279  0.1813  0.4347
   36MOL     C625276   7.695   4.411   3.826 -0.0344  0.1212  0.0310
   36MOL     C725277   7.550   4.445   3.790  0.6873  0.3127 -0.1702
   36MOL     C825278   7.490   4.362   3.674  0.1499 -0.6858 -0.0854
   36MOL     O925279   7.552   4.394   3.556  0.3046 -0.0419  0.3333
   36MOL    C1025280   7.537   4.325   3.446 -0.1592 -0.0884 -0.6550
   36MOL    O1125281   7.461   4.228   3.431 -0.1429 -0.3924 -0.1095
   36MOL    C1225282   7.611   4.389   3.332 -0.0064 -0.1867  0.4341
   36MOL    C1325283   7.763   4.384   3.359  0.0495 -0.1133  0.2050
   36MOL    C1425284   7.569   4.349   3.189  0.4201  0.0593 -0.8093
   36MOL    H1525285   0.307   4.758   4.220  2.7677  0.3354  1.3460
   36MOL    H1625286   0.409   4.638   4.296  0.1221  0.4013  0.1109
   36MOL    H1725287   0.243   4.637   4.345 -0.9296 -0.7376 -0.8042
   36MOL    H1825288   0.303   4.456   4.167 -0.5170  0.2395  0.9901
   36MOL    H1925289   0.360   4.569   4.071  2.0391  2.3778  2.2021
   36MOL    H2025290   0.072   4.572   4.145 -0.5340 -1.6661 -0.5864
   36MOL    H2125291   0.156   4.690   4.040 -0.8720  1.2291  1.4586
   36MOL    H2225292   0.190   4.513   3.868 -1.1248  2.5251 -0.1345
   36MOL    H2325293   0.135   4.394   3.994 -0.2083 -0.1946 -0.1271
   36MOL    H2425294   7.756   4.617   3.876  0.7290  0.0334  0.0822
   36MOL    H2525295   7.694   4.507   4.007  0.4352 -0.2725  0.5299
   36MOL    H2625296   7.715   4.318   3.878 -1.7143 -0.9572 -1.1958
   36MOL    H2725297   7.753   4.411   3.733 -0.5644 -0.5974 -0.3045
   36MOL    H2825298   7.536   4.548   3.759 -2.4435 -0.7521 -2.6242
   36MOL    H2925299   7.478   4.425   3.869 -1.0648 -1.1634 -2.0777
   36MOL    H3025300   7.384   4.386   3.663  0.2041 -0.8940 -1.1426
   36MOL    H3125301   7.517   4.257   3.680  1.5175 -0.3977 -1.0306
   36MOL    H3225302   0.011   4.434   3.452 -0.9142 -0.1357  0.5095
   36MOL    H3325303   0.026   4.285   3.344 -0.9635 -0.1241 -2.9614
   36MOL    H3425304   0.043   4.445   3.291 -1.9045  1.0212 -0.5425
   36MOL    H3525305   7.519   4.253   3.199  2.0654 -0.6545  0.8444
   36MOL    H3625306   7.667   4.333   3.144 -0.0713 -2.1482 -1.1159
   36MOL    H3725307   7.588   4.494   3.344 -0.9689 -0.3372 -0.0673
   36MOL    C3825308   6.817   4.731   4.051  0.2663 -0.4680 -0.3976
   36MOL    C3925309   6.922   4.844   4.016  0.1308 -0.4493 -0.6835
   36MOL    C4025310   7.050   4.800   3.942  0.1224 -0.6355  0.9117
   36MOL    C4125311   7.026   4.741   3.807  0.0985 -0.0194  0.2412
   36MOL    C4225312   7.150   4.735   3.712 -0.3066  0.2020 -0.5837
   36MOL    C4325313   7.136   4.651   3.584  0.8609  0.6410  0.7873
   36MOL    C4425314   7.258   4.626   3.498 -0.4506  0.0470 -0.0973
   36MOL    C4525315   7.235   4.538   3.371 -0.0358  0.0483 -0.3409
   36MOL    O4625316   7.351   4.527   3.289 -0.4263 -0.1995  0.0238
   36MOL    C4725317   7.339   4.473   3.169  0.0170 -0.9398 -0.2189
   36MOL    O4825318   7.234   4.452   3.113 -1.2105  0.2970  0.2745
   36MOL    C4925319   7.480   4.451   3.107  0.2945 -0.5453 -0.2934
   36MOL    C5025320   7.463   4.387   2.967  0.4982  0.1071  0.2422
   36MOL    C5125321   7.557   4.588   3.097  0.5301 -0.4275 -0.2186
   36MOL    H5225322   6.761   4.700   3.963 -1.9220  0.0026  0.7825
   36MOL    H5325323   6.748   4.776   4.123 -0.9380  0.2012 -1.9396
   36MOL    H5425324   6.867   4.646   4.098 -1.9527 -2.2449 -1.1498
   36MOL    H5525325   6.959   4.881   4.112  2.5905 -0.8140 -1.4443
   36MOL    H5625326   6.885   4.923   3.951 -0.9542 -0.6553 -0.3186
   36MOL    H5725327   7.124   4.880   3.933  1.1858 -1.7048  0.0236
   36MOL    H5825328   7.086   4.728   4.016 -0.3342 -1.3385  0.4585
   36MOL    H5925329   6.944   4.778   3.745 -2.3152 -0.6503  2.9593
   36MOL    H6025330   7.011   4.633   3.810  1.3359 -0.3208 -2.4564
   36MOL    H6125331   7.181   4.835   3.680  0.5538  0.2720  0.4595
   36MOL    H6225332   7.239   4.692   3.758 -0.0351  1.4529  0.0893
   36MOL    H6325333   7.092   4.553   3.601  0.8413  0.7387  1.3096
   36MOL    H6425334   7.065   4.708   3.525  1.6473 -0.0445 -0.8614
   36MOL    H6525335   7.352   4.591   3.542  1.3842  2.0978 -2.2074
   36MOL    H6625336   7.274   4.730   3.470 -1.1349 -0.4006 -2.2459
   36MOL    H6725337   7.155   4.580   3.310  0.9136  0.7749 -1.1128
   36MOL    H6825338   7.195   4.444   3.411 -0.1669  1.5022  3.0744
   36MOL    H6925339   7.411   4.291   2.969 -0.9749  0.8684 -0.6317
   36MOL    H7025340   7.415   4.458   2.899 -2.3359 -1.6540  0.3213
   36MOL    H7125341   7.562   4.374   2.926  1.5926 -0.1221  2.8759
   36MOL    H7225342   7.662   4.560   3.087  0.8855  1.2937 -1.5720
   36MOL    H7325343   7.552   4.638   3.194 -0.2165  3.0584 -1.9666
   36MOL    C7425344   0.017   3.983   3.065  0.4961  0.5371  0.3745
   36MOL    C7525345   0.120   4.053   2.975 -0.1618  0.2675 -0.1652
   36MOL    C7625346   0.180   4.173   3.059  0.1825 -0.2705  1.0821
   36MOL    C7725347   0.292   4.250   2.982  0.1825  0.3857  0.0886
   36MOL    C7825348   0.249   4.323   2.855  0.5288 -0.0683  0.0791
   36MOL    C7925349   0.108   4.393   2.857  0.2627  0.0127  0.7284
   36MOL    C8025350   0.089   4.473   2.729 -0.0985 -0.6169  0.0772
   36MOL    C8125351   7.725   4.523   2.715 -0.2156 -0.3800 -0.5640
   36MOL    O8225352   7.695   4.602   2.831 -0.8397  0.3505  0.0368
   36MOL    C8325353   7.574   4.661   2.845 -0.2872  0.4258 -0.9734
   36MOL    O8425354   7.500   4.677   2.745  0.5549  0.1682  0.2672
   36MOL    C8525355   7.527   4.703   2.985 -0.0858  1.0017  0.6789
   36MOL    C8625356   7.373   4.720   2.985  0.4921 -1.2382 -0.0577
   36MOL    C8725357   7.605   4.827   3.030 -0.0099 -0.3470 -0.6114
   36MOL    H8825358   0.055   3.932   3.153  0.7616  0.2423  0.0890
   36MOL    H8925359   7.745   3.902   3.012 -0.2663  1.8849 -0.9606
   36MOL    H9025360   7.726   4.056   3.103  1.2221  1.5211 -0.1654
   36MOL    H9125361   0.065   4.081   2.886 -0.8015 -0.3052  0.0535
   36MOL    H9225362   0.197   3.984   2.941  0.8949  0.0923  2.4591
   36MOL    H9325363   0.097   4.241   3.078  1.6065  1.9901 -0.4855
   36MOL    H9425364   0.225   4.137   3.151 -0.9917 -2.4212  0.8340
   36MOL    H9525365   0.375   4.183   2.963 -1.5083 -1.9608  0.6806
   36MOL    H9625366   0.330   4.316   3.060  3.2580 -1.6659  0.3837
   36MOL    H9725367   0.328   4.393   2.826  0.0979 -0.6788 -2.6943
   36MOL    H9825368   0.248   4.250   2.774  1.6924 -0.8399  0.7387
   36MOL    H9925369   0.022   4.327   2.864 -1.1577  1.5903 -1.3276
   36MOL   H10025370   0.103   4.465   2.939  0.4572  0.8040  0.0606
   36MOL   H10125371   0.152   4.561   2.738 -1.6465  0.4976  0.1909
   36MOL   H10225372   0.111   4.418   2.637 -1.4129  0.3739 -0.8463
   36MOL   H10325373   7.661   4.435   2.721  1.9867 -2.1598 -1.7982
   36MOL   H10425374   7.713   4.582   2.625 -0.2897 -1.4250 -1.2464
   36MOL   H10525375   7.329   4.731   3.085 -0.3260  1.0589 -0.6495
   36MOL   H10625376   7.316   4.646   2.928 -1.2791  0.0736 -0.0289
   36MOL   H10725377   7.346   4.810   2.929  0.9810 -1.1879 -0.2070
   36MOL   H10825378   7.599   4.828   3.139  2.7593 -1.7439 -0.3881
   36MOL   H10925379   7.712   4.805   3.022  0.4294  0.1629  2.9059
   36MOL   C11025380   6.573   5.155   2.493 -0.3799 -0.0142 -0.3723
   36MOL   C11125381   6.725   5.196   2.517  0.0153 -0.2919 -0.0691
   36MOL   C11225382   6.828   5.085   2.499 -0.3223  1.4919 -0.3936
   36MOL   C11325383   6.969   5.110   2.560 -0.6082 -0.2485  0.5249
   36MOL   C11425384   6.989   5.104   2.713 -0.1041 -0.2854 -0.3398
   36MOL   C11525385   7.126   5.148   2.752  0.7983  1.1578  0.6319
   36MOL   C11625386   7.158   5.146   2.904  0.1573 -0.4805  0.0365
   36MOL   C11725387   7.288   5.217   2.948 -0.4634  0.2007  0.3338
   36MOL   O11825388   7.413   5.146   2.927 -0.0875  0.3369 -0.6791
   36MOL   C11925389   7.455   5.039   3.009 -0.5738  0.5831  0.8733
   36MOL   O12025390   7.386   4.998   3.100 -0.0933  0.3270 -0.2504
   36MOL   C12125391   7.592   4.978   2.972 -0.8151 -0.2040 -0.3390
   36MOL   C12225392   7.610   4.970   2.824 -0.1046 -0.3497 -1.1486
   36MOL   C12325393   7.699   5.072   3.042 -0.1884 -0.0767  0.7323
   36MOL   H12425394   6.541   5.176   2.391 -1.7058 -3.2457 -0.6801
   36MOL   H12525395   6.543   5.057   2.530  1.3469 -0.3380  0.2085
   36MOL   H12625396   6.504   5.224   2.543  2.0291  2.2088 -0.0151
   36MOL   H12725397   6.734   5.241   2.616  0.4603  1.5889 -0.9315
   36MOL   H12825398   6.740   5.271   2.440  2.6995 -0.7278 -0.0278
   36MOL   H12925399   6.841   5.066   2.392  0.9497  2.1909 -0.3703
   36MOL   H13025400   6.779   5.001   2.548  3.7331 -0.7658  0.0354
   36MOL   H13125401   7.035   5.031   2.523  0.6639  0.1542  1.8583
   36MOL   H13225402   7.004   5.208   2.527 -2.2824  0.8140  1.8434
   36MOL   H13325403   6.960   5.005   2.750 -0.1543  0.0134  0.4188
   36MOL   H13425404   6.912   5.169   2.754 -0.4211  0.1337 -1.5603
   36MOL   H13525405   7.185   5.069   2.706 -0.5379 -0.4710  1.6683
   36MOL   H13625406   7.157   5.242   2.705  2.4108 -0.3726 -1.4638
   36MOL   H13725407   7.134   5.052   2.955  0.9759 -0.9318 -0.4041
   36MOL   H13825408   7.079   5.214   2.936  2.3441  2.2432 -0.1152
   36MOL   H13925409   7.307   5.307   2.890 -0.8099 -1.1094 -1.8728
   36MOL   H14025410   7.289   5.245   3.054 -1.2712 -2.4437  1.0747
   36MOL   H14125411   7.636   5.063   2.774  0.5371 -0.0623 -0.3081
   36MOL   H14225412   7.680   4.893   2.794  1.2833  0.0805  0.8584
   36MOL   H14325413   7.514   4.937   2.784 -0.5824  0.2528 -0.5167
   36MOL   H14425414   7.705   5.036   3.145  2.8463  0.2294  0.6971
   36MOL   H14525415   7.643   5.164   3.056 -1.1848 -0.2134 -2.1060
   36MOL   C14625416   0.244   4.257   3.740  0.5478 -0.5014  0.5129
   36MOL   C14725417   0.240   4.341   3.610  0.8101  0.0487  0.3212
   36MOL   C14825418   0.377   4.342   3.542  0.7416  0.0268  0.4221
   36MOL   C14925419   0.369   4.393   3.398 -0.4425 -0.6668 -0.4455
   36MOL   C15025420   0.337   4.544   3.380  0.1242  0.0292  0.1161
   36MOL   C15125421   0.295   4.581   3.231  0.5780 -0.0419  0.2213
   36MOL   C15225422   0.242   4.729   3.221 -0.3007  0.4022  0.3294
   36MOL   C15325423   0.211   4.767   3.080  0.3344 -0.6221  0.3496
   36MOL   O15425424   0.156   4.900   3.082 -0.0903  0.1097 -0.1909
   36MOL   C15525425   0.136   4.969   2.969  0.8161 -0.4915 -0.1215
   36MOL   O15625426   0.166   4.930   2.854 -0.5430 -0.6010 -0.9759
   36MOL   C15725427   0.062   5.105   2.994  0.0886 -0.2619  0.0267
   36MOL   C15825428   0.063   5.192   2.867  0.4741  0.0479 -0.6476
   36MOL   C15925429   0.118   5.182   3.120  0.2639  0.9359 -0.3742
   36MOL   H16025430   0.145   4.247   3.784  0.3809 -0.8626  0.0563
   36MOL   H16125431   0.309   4.305   3.813 -1.0977  2.2511  0.2791
   36MOL   H16225432   0.275   4.153   3.729 -4.2366 -1.8640 -1.3617
   36MOL   H16325433   0.176   4.290   3.537  0.5171  0.1232  0.5253
   36MOL   H16425434   0.203   4.442   3.623  0.5055 -0.1227  0.7744
   36MOL   H16525435   0.423   4.243   3.540  0.3693 -0.1244 -0.6747
   36MOL   H16625436   0.438   4.411   3.600  1.1160 -0.3451  0.4709
   36MOL   H16725437   0.457   4.380   3.336  1.5010  0.3711  2.0254
   36MOL   H16825438   0.297   4.326   3.350 -3.0351  0.6845  1.4513
   36MOL   H16925439   0.426   4.604   3.399 -0.5493  0.8873  0.6240
   36MOL   H17025440   0.262   4.581   3.450 -0.7783 -0.9729 -0.3178
   36MOL   H17125441   0.212   4.521   3.195 -0.6001  3.0812 -2.4916
   36MOL   H17225442   0.384   4.566   3.170 -0.7755 -0.6482 -1.6392
   36MOL   H17325443   0.155   4.747   3.284  0.8674 -0.2295  2.1939
   36MOL   H17425444   0.312   4.801   3.263  1.5190 -1.5240  0.7466
   36MOL   H17525445   0.296   4.757   3.013  0.0854  0.3727 -0.1363
   36MOL   H17625446   0.132   4.707   3.034 -0.0256  0.0212  0.1074
   36MOL   H17725447   0.046   5.140   2.773  0.1885 -1.7900  0.3960
   36MOL   H17825448   0.159   5.237   2.843  1.1919 -1.8259 -1.3611
   36MOL   H17925449   7.776   5.277   2.877  0.6528  0.2933 -1.4779
   36MOL   H18025450   0.100   5.126   3.211  2.5100  0.8968  0.0889
   36MOL   H18125451   0.045   5.257   3.149 -0.6445 -0.7235  1.7914
   36MOL   C18225452   0.419   6.295   3.355  0.1148  0.6319 -0.6317
   36MOL   C18325453   0.475   6.159   3.312  0.6045 -0.2568  0.2787
   36MOL   C18425454   0.439   6.125   3.168  0.1174  0.2121  0.4994
   36MOL   C18525455   0.471   5.973   3.147 -0.0808  0.2760 -0.2576
   36MOL   C18625456   0.400   5.912   3.019  0.2557  0.2379 -0.2071
   36MOL   C18725457   0.455   5.784   2.971 -0.1722  0.1858  0.5024
   36MOL   C18825458   0.427   5.660   3.058 -0.2298 -0.0293 -0.0746
   36MOL   C18925459   0.432   5.533   2.964  0.3774  0.6261  0.2026
   36MOL   O19025460   0.404   5.414   3.041  0.2464 -0.3223  0.0541
   36MOL   C19125461   0.277   5.372   3.044  0.2284 -0.1393 -0.2014
   36MOL   O19225462   0.178   5.424   2.989  0.5228  0.0060  0.5945
   36MOL   C19325463   0.258   5.248   3.135  0.3054 -0.1016 -0.0367
   36MOL   C19425464   0.373   5.154   3.091 -0.2634  0.0954 -0.6958
   36MOL   C19525465   0.297   5.275   3.289  0.1007  0.0528 -0.2199
   36MOL   H19625466   0.311   6.286   3.363  0.4834 -2.9483  1.3924
   36MOL   H19725467   0.451   6.336   3.450  2.6309 -1.1552 -0.6632
   36MOL   H19825468   0.447   6.372   3.282  0.5501  0.5898 -0.5099
   36MOL   H19925469   0.430   6.087   3.381  0.3381 -0.7827 -0.4432
   36MOL   H20025470   0.583   6.151   3.326  0.5433  1.6013  2.0693
   36MOL   H20125471   0.336   6.132   3.133  0.4349 -0.3995 -0.5819
   36MOL   H20225472   0.497   6.189   3.101  0.5989 -0.0989  0.6113
   36MOL   H20325473   0.578   5.963   3.133 -0.1339 -0.9174  0.0911
   36MOL   H20425474   0.438   5.914   3.233 -0.1126  1.9005  0.8623
   36MOL   H20525475   0.427   5.976   2.935 -1.1204  0.2962 -0.6152
   36MOL   H20625476   0.292   5.909   3.035 -0.0515  2.4530 -1.7208
   36MOL   H20725477   0.559   5.793   2.940 -0.7793 -0.0725 -1.6996
   36MOL   H20825478   0.399   5.768   2.879 -1.0924  2.5717  0.6142
   36MOL   H20925479   0.505   5.646   3.132  0.6125  0.7789 -0.8061
   36MOL   H21025480   0.334   5.666   3.115  0.3027  0.2280  0.7666
   36MOL   H21125481   0.533   5.527   2.924 -0.9650  1.6135 -3.4585
   36MOL   H21225482   0.362   5.554   2.884 -1.3134  0.1078  1.5076
   36MOL   H21325483   0.473   5.189   3.115 -0.4386  1.2367 -1.5374
   36MOL   H21425484   0.368   5.056   3.139 -0.5317 -0.9247 -2.7464
   36MOL   H21525485   0.371   5.152   2.982 -1.9463  0.9857 -0.6968
   36MOL   H21625486   0.326   5.180   3.334  0.3781  1.3033  2.3297
   36MOL   H21725487   0.394   5.325   3.281  0.8841 -1.6792 -2.0375
   36MOL   C21825488   7.327   5.754   2.904 -0.4206 -0.4590  0.4395
   36MOL   C21925489   7.218   5.698   2.998 -0.4573 -0.1717 -0.6702
   36MOL   C22025490   7.259   5.682   3.144 -0.0733 -0.3911 -0.2001
   36MOL   C22125491   7.363   5.575   3.169  0.8539  0.4155  0.8942
   36MOL   C22225492   7.331   5.510   3.303 -0.3584  0.3524 -0.5259
   36MOL   C22325493   7.449   5.445   3.375  0.2509 -0.2364 -0.0517
   36MOL   C22425494   7.513   5.323   3.303 -0.3987  0.0530 -0.4885
   36MOL   C22525495   7.625   5.246   3.379 -0.8680  0.0414  0.1115
   36MOL   O22625496   7.745   5.330   3.377 -0.0307 -0.3018  0.3234
   36MOL   C22725497   0.078   5.280   3.431  0.2251  0.1452 -0.0682
   36MOL   O22825498   0.078   5.184   3.503  0.3024  0.1396 -0.0245
   36MOL   C22925499   0.201   5.359   3.384  0.2573 -0.6988  0.2324
   36MOL   C23025500   0.161   5.495   3.311 -0.2135  0.4151  0.2652
   36MOL   C23125501   0.277   5.390   3.519 -0.2371 -0.4097 -0.4239
   36MOL   H23225502   7.281   5.768   2.806  0.5347 -1.9758 -0.2450
   36MOL   H23325503   7.408   5.683   2.886  1.4209  1.8258 -0.5241
   36MOL   H23425504   7.360   5.853   2.934 -0.7480  0.2344 -1.4690
   36MOL   H23525505   7.182   5.601   2.964  0.5823 -1.0564  0.6959
   36MOL   H23625506   7.127   5.757   2.998  0.3259  1.0632  1.0905
   36MOL   H23725507   7.297   5.780   3.176 -0.4208  0.7155 -3.0004
   36MOL   H23825508   7.171   5.673   3.209  2.0614  1.3624  3.0768
   36MOL   H23925509   7.363   5.496   3.094 -1.1643 -0.2623  1.5910
   36MOL   H24025510   7.461   5.623   3.174  1.1717 -0.2978  1.6944
   36MOL   H24125511   7.290   5.582   3.374 -0.4015  0.7154 -0.9172
   36MOL   H24225512   7.258   5.432   3.283  1.4639 -2.2436  2.5235
   36MOL   H24325513   7.529   5.514   3.402  2.1587 -2.1427 -0.6878
   36MOL   H24425514   7.423   5.409   3.475  2.0431  0.8250  0.8269
   36MOL   H24525515   7.565   5.365   3.217 -0.0200  3.4640  1.3185
   36MOL   H24625516   7.442   5.247   3.269 -2.2087  1.4529  0.0762
   36MOL   H24725517   7.649   5.147   3.342  0.6717 -0.0508  1.2841
   36MOL   H24825518   7.600   5.228   3.484  1.8996 -1.1425  0.6156
   36MOL   H24925519   0.240   5.568   3.294  0.5125 -0.5982 -0.7361
   36MOL   H25025520   0.102   5.565   3.371 -0.7689 -1.6395  2.1907
   36MOL   H25125521   0.104   5.471   3.221  0.4923  1.3149 -0.4385
   36MOL   H25225522   0.307   5.303   3.576  1.6688  0.0695 -0.6598
   36MOL   H25325523   0.378   5.421   3.491  0.3027  0.4491  2.3940
   36MOL   C25425524   0.610   6.461   3.985 -0.7478 -1.1720  0.1171
   36MOL   C25525525   0.567   6.360   3.874  0.3875 -0.0607 -0.3096
   36MOL   C25625526   0.686   6.301   3.794 -0.3283 -0.1466 -0.1333
   36MOL   C25725527   0.655   6.202   3.686  0.2739  0.6330  0.4764
   36MOL   C25825528   0.568   6.083   3.727  0.2732  0.4241  0.0654
   36MOL   C25925529   0.524   6.000   3.614  0.6990  0.1813 -0.2271
   36MOL   C26025530   0.490   5.859   3.658 -0.0872  0.3316 -0.0290
   36MOL   C26125531   0.450   5.773   3.540  0.2614 -0.3562 -0.5779
   36MOL   O26225532   0.403   5.648   3.582  0.3627 -0.0919 -0.2070
   36MOL   C26325533   0.274   5.628   3.586  0.4403  0.4280  0.4462
   36MOL   O26425534   0.193   5.717   3.551 -0.6664 -0.7669  0.7417
   36MOL   C26525535   0.227   5.483   3.636 -0.3952 -0.3991  0.0490
   36MOL   C26625536   0.302   5.445   3.765 -0.1368 -0.4012  0.0524
   36MOL   C26725537   0.076   5.477   3.674 -1.5323  0.5497  0.4976
   36MOL   H26825538   0.630   6.563   3.952 -1.6304 -0.5821  1.3978
   36MOL   H26925539   0.529   6.480   4.055 -0.0188 -0.2648  0.7253
   36MOL   H27025540   0.700   6.434   4.041  0.2683 -0.5082 -1.1573
   36MOL   H27125541   0.511   6.280   3.921  0.4854 -0.6133 -1.1289
   36MOL   H27225542   0.494   6.406   3.808  0.5782  0.5947 -0.0693
   36MOL   H27325543   0.753   6.243   3.858  0.7677 -1.3882 -2.3318
   36MOL   H27425544   0.750   6.376   3.747 -0.3076 -0.4405 -0.5835
   36MOL   H27525545   0.744   6.166   3.635 -0.4291  0.1997 -0.4731
   36MOL   H27625546   0.600   6.251   3.606 -1.9565 -0.9998  0.9360
   36MOL   H27725547   0.610   6.022   3.807  0.9072  0.5032 -0.2008
   36MOL   H27825548   0.480   6.121   3.779  0.1067  2.4967 -1.6387
   36MOL   H27925549   0.608   5.984   3.546 -0.1499 -1.3165 -0.9359
   36MOL   H28025550   0.441   6.048   3.563 -0.3778  1.9052  3.0018
   36MOL   H28125551   0.565   5.804   3.714 -1.6763 -0.0556  1.7962
   36MOL   H28225552   0.404   5.858   3.726 -0.8351  1.5850 -0.9298
   36MOL   H28325553   0.386   5.827   3.469 -1.8125 -0.7193  0.9644
   36MOL   H28425554   0.536   5.745   3.479 -0.1954  0.6125 -1.6997
   36MOL   H28525555   0.279   5.342   3.792  2.6457 -1.2149 -0.5922
   36MOL   H28625556   0.409   5.440   3.747 -0.3409  0.3596 -1.4590
   36MOL   H28725557   0.285   5.516   3.846 -1.0661  0.4597 -0.8700
   36MOL   H28825558   0.061   5.371   3.697  0.5942  0.0424 -0.3725
   36MOL   H28925559   0.029   5.500   3.579  0.7031  1.6732 -0.3665
   36MOL   C29025560   0.648   4.819   4.022 -0.0740 -0.1018  1.0607
   36MOL   C29125561   0.584   4.948   4.054 -0.0346  0.0729 -0.5562
   36MOL   C29225562   0.491   5.001   3.946 -0.1975 -0.4563 -0.9667
   36MOL   C29325563   0.426   5.133   3.985  0.0543 -0.2575 -0.1460
   36MOL   C29425564   0.337   5.123   4.113 -0.1229 -0.6960 -0.8043
   36MOL   C29525565   0.221   5.217   4.097  0.2885  0.8577 -0.2581
   36MOL   C29625566   0.090   5.163   4.028  0.6710  0.6676 -0.4561
   36MOL   C29725567   7.755   5.273   4.045  0.3057  0.0939  0.4973
   36MOL   O29825568   7.750   5.356   3.928 -0.6697 -0.3527 -1.1004
   36MOL   C29925569   0.018   5.482   3.925 -0.0123  0.1162  0.0993
   36MOL   O30025570   0.080   5.531   4.015  0.2335 -0.0266 -0.7690
   36MOL   C30125571   0.003   5.557   3.792 -0.4793  0.7510  0.3258
   36MOL   C30225572   0.046   5.704   3.806  0.4040 -0.0607 -0.2075
   36MOL   C30325573   7.628   5.552   3.757 -0.8374 -0.4256  0.1104
   36MOL   H30425574   0.700   4.826   3.926  1.8753  0.2274  2.1104
   36MOL   H30525575   0.569   4.745   4.007 -0.3086 -0.1204  2.3211
   36MOL   H30625576   0.711   4.777   4.100 -1.6320 -0.5464  2.0866
   36MOL   H30725577   0.652   5.026   4.089 -1.5513  0.9137  0.5813
   36MOL   H30825578   0.514   4.933   4.135 -1.7129 -1.2381 -2.2021
   36MOL   H30925579   0.419   4.926   3.912  0.4266 -2.1818  1.3854
   36MOL   H31025580   0.555   5.023   3.861  3.7917 -0.2740  1.9164
   36MOL   H31125581   0.497   5.216   3.995 -0.1376 -0.1394  0.2665
   36MOL   H31225582   0.353   5.152   3.907 -0.9765 -1.6543  0.4708
   36MOL   H31325583   0.294   5.024   4.127 -1.2082  0.2090  2.6645
   36MOL   H31425584   0.393   5.147   4.203 -0.3594  0.0695 -0.8568
   36MOL   H31525585   0.246   5.310   4.046  0.1021  1.8626  1.4258
   36MOL   H31625586   0.198   5.242   4.201 -1.1644 -0.3841 -0.2544
   36MOL   H31725587   0.066   5.067   4.075  0.8245  1.0371  0.3785
   36MOL   H31825588   0.105   5.141   3.923 -0.4524  0.2623 -0.5387
   36MOL   H31925589   7.771   5.338   4.131  0.2669  0.8275 -0.0461
   36MOL   H32025590   7.659   5.223   4.052 -0.4326  1.0975 -1.8981
   36MOL   H32125591   0.000   5.772   3.734 -0.8765 -0.1815  0.4839
   36MOL   H32225592   0.154   5.720   3.810  0.3767 -0.0954  0.9196
   36MOL   H32325593   0.003   5.744   3.898 -0.9366  0.2700 -0.9656
   36MOL   H32425594   7.617   5.604   3.661 -1.5347 -2.0372 -0.7029
   36MOL   H32525595   7.617   5.448   3.727  0.0454 -0.4950  0.0241
   36MOL   C32625596   6.987   4.853   3.158 -0.2809  0.4415 -0.5142
   36MOL   C32725597   7.001   4.931   3.290 -0.2431 -0.6302  0.1231
   36MOL   C32825598   7.108   5.039   3.292 -0.3338 -0.0828  0.4489
   36MOL   C32925599   7.116   5.126   3.425 -0.1466  0.3647 -0.1968
   36MOL   C33025600   7.237   5.099   3.511 -0.0285 -0.2257 -0.2589
   36MOL   C33125601   7.246   5.189   3.637  0.3002 -0.2474 -0.5399
   36MOL   C33225602   7.373   5.154   3.734  1.5104  0.2962 -0.0988
   36MOL   C33325603   7.378   5.227   3.871  0.7798  0.4833 -0.1457
   36MOL   O33425604   7.393   5.361   3.827  0.1558  0.6386  0.5072
   36MOL   C33525605   7.438   5.456   3.912  0.1164  0.0560 -0.5864
   36MOL   O33625606   7.424   5.445   4.033 -0.4333  0.1070 -0.3152
   36MOL   C33725607   7.501   5.583   3.844  0.5988 -0.0362 -1.1082
   36MOL   C33825608   7.533   5.675   3.964 -0.1229  0.6040 -0.2214
   36MOL   C33925609   7.395   5.650   3.745 -0.1164  0.4988 -0.4838
   36MOL   H34025610   6.891   4.802   3.163  0.0924 -0.2263 -0.1548
   36MOL   H34125611   7.059   4.771   3.154 -0.0569  0.5858  0.6162
   36MOL   H34225612   6.991   4.917   3.069 -1.2202  1.6700  0.3186
   36MOL   H34325613   7.030   4.865   3.371 -0.6058  0.6022  1.2786
   36MOL   H34425614   6.901   4.974   3.301 -1.0974 -2.5025 -0.1399
   36MOL   H34525615   7.082   5.100   3.206  2.2337  1.2434  0.5584
   36MOL   H34625616   7.201   4.988   3.267  0.6391  1.9906 -0.3138
   36MOL   H34725617   7.020   5.106   3.472  0.7054  0.2628  1.5163
   36MOL   H34825618   7.121   5.230   3.391  2.0892  0.8535  1.4798
   36MOL   H34925619   7.232   4.995   3.543 -0.1833  0.5595  2.3217
   36MOL   H35025620   7.335   5.108   3.464  1.1923  0.5175  2.3488
   36MOL   H35125621   7.248   5.296   3.615 -1.7535  0.5052  2.5771
   36MOL   H35225622   7.154   5.172   3.693  0.5528 -2.9740 -0.8976
   36MOL   H35325623   7.463   5.170   3.675  0.8519  2.0582 -0.6507
   36MOL   H35425624   7.360   5.049   3.759 -1.6675  0.8968  1.0379
   36MOL   H35525625   7.294   5.197   3.933  0.3298  1.3237 -0.3278
   36MOL   H35625626   7.465   5.197   3.930  0.0144 -0.2415  0.6244
   36MOL   H35725627   7.574   5.771   3.933  0.7076  0.8244  1.4998
   36MOL   H35825628   7.450   5.685   4.033  0.6740  1.4088  0.6410
   36MOL   H35925629   7.616   5.635   4.023 -0.9296  0.9253  1.1478
   36MOL   H36025630   7.447   5.726   3.687  0.2008  0.8866  0.2947
   36MOL   H36125631   7.368   5.570   3.675 -1.1353  0.7899 -0.4327
   36MOL   C36225632   0.200   6.644   3.812  0.2996 -0.2084  0.2636
   36MOL   C36325633   0.108   6.558   3.901  0.3605 -0.3824 -0.0314
   36MOL   C36425634   7.737   6.586   3.865 -0.3350 -0.2811  0.7705
   36MOL   C36525635   7.636   6.503   3.933  0.2590  0.4724  0.7943
   36MOL   C36625636   7.646   6.347   3.886  0.5726 -1.0485 -0.0275
   36MOL   C36725637   7.525   6.272   3.928  0.0167 -0.4116 -0.2391
   36MOL   C36825638   7.522   6.126   3.877  0.5332  0.0073 -0.2935
   36MOL   C36925639   7.408   6.046   3.938 -0.3087 -0.3662 -0.6164
   36MOL   O37025640   7.385   5.933   3.848  0.1158 -0.4989  0.1315
   36MOL   C37125641   7.290   5.841   3.888  0.3223 -0.4661 -0.0713
   36MOL   O37225642   7.246   5.848   4.000 -0.2091  0.4830  0.1204
   36MOL   C37325643   7.262   5.724   3.792  0.8857 -0.0675 -0.6408
   36MOL   C37425644   7.166   5.629   3.863  0.8487 -0.2350 -0.7249
   36MOL   C37525645   7.203   5.785   3.660  0.3687  0.1391  0.0866
   36MOL   H37625646   0.199   6.751   3.830  0.8912 -0.4032  1.4642
   36MOL   H37725647   0.302   6.613   3.832  0.7626  1.7829  1.0697
   36MOL   H37825648   0.173   6.640   3.706 -2.2063  1.0603  0.8112
   36MOL   H37925649   0.134   6.577   4.005 -0.7520  3.4622 -0.3883
   36MOL   H38025650   0.129   6.451   3.896 -0.6591 -0.6748  1.5382
   36MOL   H38125651   7.735   6.579   3.757 -1.7270 -1.3669  0.8537
   36MOL   H38225652   7.719   6.692   3.884 -0.9630 -0.0711 -0.9656
   36MOL   H38325653   7.536   6.534   3.902  0.0461 -1.5943 -0.7683
   36MOL   H38425654   7.643   6.519   4.041 -0.7695  0.3968  0.8752
   36MOL   H38525655   7.661   6.335   3.779 -0.4863 -0.8430 -0.2022
   36MOL   H38625656   7.730   6.308   3.944  1.1217  0.4746  0.2270
   36MOL   H38725657   7.445   6.329   3.880 -0.6332  0.1966  1.5298
   36MOL   H38825658   7.512   6.280   4.035  0.5585  0.1462 -0.2119
   36MOL   H38925659   7.619   6.076   3.883  0.9944  0.6491 -1.8509
   36MOL   H39025660   7.500   6.144   3.771  0.5929  0.8685 -0.1610
   36MOL   H39125661   7.422   6.007   4.039  1.0478 -1.5583 -1.2354
   36MOL   H39225662   7.324   6.113   3.956 -0.0108 -0.6750  2.2005
   36MOL   H39325663   7.130   5.548   3.799  0.9701 -0.8100 -0.0773
   36MOL   H39425664   7.207   5.579   3.951  0.2287 -0.0585 -0.3337
   36MOL   H39525665   7.074   5.671   3.903  0.9287 -0.9386  0.2060
   36MOL   H39625666   7.269   5.867   3.632 -2.1447  1.7782 -1.2312
   36MOL   H39725667   7.206   5.699   3.594  0.2952 -0.7292  1.2060
   36MOL   C39825668   6.643   5.505   2.721 -0.4613  0.2693  0.1341
   36MOL   C39925669   6.790   5.511   2.739  0.3580  0.0913  0.3152
   36MOL   C40025670   6.845   5.445   2.869 -0.6282  0.0471  0.6018
   36MOL   C40125671   6.831   5.519   2.995 -0.2250 -0.1194  0.2980
   36MOL   C40225672   6.895   5.457   3.119 -0.3870  0.7720  0.2646
   36MOL   C40325673   6.869   5.542   3.244 -0.3070  0.2794 -0.2581
   36MOL   C40425674   6.913   5.476   3.373  0.1458 -0.3980  0.3715
   36MOL   C40525675   6.876   5.545   3.509  0.7231 -0.7155  0.2782
   36MOL   O40625676   6.967   5.651   3.529  0.2141 -0.3367 -0.1235
   36MOL   C40725677   6.950   5.726   3.641 -0.0840  1.0444 -0.1002
   36MOL   O40825678   6.856   5.717   3.721 -0.3461 -0.4355 -0.0888
   36MOL   C40925679   7.054   5.839   3.649 -0.0714 -0.0688  0.2801
   36MOL   C41025680   7.015   5.944   3.768 -0.2120 -0.8675  0.3655
   36MOL   C41125681   7.051   5.917   3.514  0.2336  0.3743 -0.7132
   36MOL   H41225682   6.603   5.404   2.715 -0.7650  0.3737  0.4125
   36MOL   H41325683   6.611   5.561   2.632  1.8978  0.7577 -0.4479
   36MOL   H41425684   6.585   5.553   2.800  0.3840 -0.0283  0.9343
   36MOL   H41525685   6.837   5.610   2.734 -0.3707  0.3461 -2.2454
   36MOL   H41625686   6.833   5.456   2.656  1.3902  0.1550  0.7970
   36MOL   H41725687   6.797   5.348   2.879  1.2491 -0.6636  3.2324
   36MOL   H41825688   6.949   5.417   2.851  0.1852  3.1690  0.1956
   36MOL   H41925689   6.723   5.528   3.011 -0.0503  0.4213  1.1876
   36MOL   H42025690   6.874   5.616   2.974  0.3614 -0.3181  0.5876
   36MOL   H42125691   6.850   5.361   3.145  2.1752 -0.4514  0.3375
   36MOL   H42225692   7.002   5.441   3.112 -0.3589  0.5756  1.0886
   36MOL   H42325693   6.761   5.551   3.245 -0.4509 -0.9457 -1.8178
   36MOL   H42425694   6.912   5.642   3.238  1.5730 -0.4608  0.3376
   36MOL   H42525695   6.886   5.372   3.386 -0.9511 -0.1231  0.3049
   36MOL   H42625696   7.022   5.470   3.365  0.1673 -1.0903  1.0998
   36MOL   H42725697   6.777   5.588   3.490  0.5796 -0.8735  0.6706
   36MOL   H42825698   6.891   5.477   3.593  2.0260 -0.1546  0.5070
   36MOL   H42925699   7.033   5.906   3.869  0.1125 -2.1918 -0.1819
   36MOL   H43025700   6.911   5.976   3.765  0.2257  0.6343  0.9828
   36MOL   H43125701   7.081   6.030   3.759 -1.4176  0.1013  0.6703
   36MOL   H43225702   7.081   5.848   3.434 -1.4895 -0.2294 -0.8493
   36MOL   H43325703   7.143   5.975   3.527  1.3421 -1.3365 -0.7148
   36MOL   C43425704   7.697   6.644   3.299 -0.0885 -0.6546  0.3584
   36MOL   C43525705   7.551   6.632   3.261  0.1912 -0.0100  0.8153
   36MOL   C43625706   7.456   6.584   3.374 -0.2436 -0.4832  0.2760
   36MOL   C43725707   7.495   6.454   3.450 -0.3800  0.2106  0.1118
   36MOL   C43825708   7.403   6.419   3.568 -0.7399 -0.5621  0.0089
   36MOL   C43925709   7.250   6.395   3.545  1.2441  0.1796 -0.8158
   36MOL   C44025710   7.180   6.344   3.674 -0.0098 -0.4943 -0.1778
   36MOL   C44125711   7.034   6.314   3.656 -0.2692 -0.5481 -0.3595
   36MOL   O44225712   7.034   6.208   3.566  0.4062 -0.0062 -0.3052
   36MOL   C44325713   6.925   6.136   3.553 -0.0594  0.8103  0.6992
   36MOL   O44425714   6.813   6.155   3.599  0.3909 -0.7135  0.5495
   36MOL   C44525715   6.941   6.014   3.455  0.3610  0.7497  0.2990
   36MOL   C44625716   6.813   5.928   3.436  0.6943 -0.8223  0.1068
   36MOL   C44725717   6.993   6.074   3.319  0.4110  0.0021  0.1239
   36MOL   H44825718   7.763   6.683   3.222  1.0272  0.1727  1.7120
   36MOL   H44925719   7.737   6.547   3.329 -0.0440 -1.2671 -1.6391
   36MOL   H45025720   7.716   6.709   3.384 -1.0280  1.6101 -1.1183
   36MOL   H45125721   7.535   6.571   3.173 -0.1107  1.0764  0.1073
   36MOL   H45225722   7.513   6.730   3.234  1.6829 -0.3864 -2.9905
   36MOL   H45325723   7.358   6.564   3.332 -0.2617 -2.0646  1.0062
   36MOL   H45425724   7.441   6.663   3.448  1.4602  0.3415 -0.2384
   36MOL   H45525725   7.593   6.472   3.494 -0.7165 -0.9019  1.3640
   36MOL   H45625726   7.498   6.370   3.381 -0.4706  0.0507  0.2990
   36MOL   H45725727   7.436   6.332   3.625 -0.5846 -0.2981  0.3185
   36MOL   H45825728   7.408   6.504   3.635 -3.3994 -0.5508  0.2557
   36MOL   H45925729   7.251   6.326   3.461 -1.8788  1.1104 -1.6654
   36MOL   H46025730   7.208   6.488   3.509 -0.0768  1.1001  2.8487
   36MOL   H46125731   7.230   6.254   3.710  0.3840 -0.5222 -0.7893
   36MOL   H46225732   7.185   6.408   3.762  0.0307  0.0418 -0.5632
   36MOL   H46325733   6.970   6.398   3.629  0.7121  0.8858  1.6084
   36MOL   H46425734   7.003   6.274   3.752 -0.6948 -0.1275 -0.3183
   36MOL   H46525735   6.749   5.977   3.362 -1.1997 -2.2272  0.7805
   36MOL   H46625736   6.827   5.830   3.391  0.3983  0.2600 -2.4290
   36MOL   H46725737   6.743   5.926   3.520 -0.7793 -2.4411 -1.1273
   36MOL   H46825738   7.086   6.126   3.338  0.0353  1.0479 -0.8344
   36MOL   H46925739   7.043   5.995   3.262  2.4076  1.0270  0.4057
   36MOL   C47025740   7.061   6.174   2.312 -0.2102  0.5930 -0.5829
   36MOL   C47125741   6.905   6.170   2.284  0.3923 -0.1735 -0.3226
   36MOL   C47225742   6.833   6.044   2.346  0.1629  0.4810 -0.7255
   36MOL   C47325743   6.821   6.047   2.498 -0.2622  0.4620  0.5261
   36MOL   C47425744   6.793   5.913   2.571  0.4037  0.2494  0.4388
   36MOL   C47525745   6.720   5.921   2.709 -0.2737  0.0391 -0.5124
   36MOL   C47625746   6.771   6.035   2.804  0.1178  0.1256 -0.3499
   36MOL   C47725747   6.688   6.051   2.932 -0.2053 -0.1744  0.1697
   36MOL   O47825748   6.764   6.125   3.025  0.4674 -0.6192  0.4391
   36MOL   C47925749   6.843   6.062   3.115 -0.4661  0.6947  0.1114
   36MOL   O48025750   6.851   5.942   3.126  0.2504 -0.0149 -0.1565
   36MOL   C48125751   6.910   6.156   3.215  0.0073 -0.6057 -0.4905
   36MOL   C48225752   6.794   6.240   3.282 -0.2003 -0.2137 -0.5955
   36MOL   C48325753   6.991   6.273   3.138  0.4581  0.6853  0.6089
   36MOL   H48425754   7.122   6.116   2.242  1.1162  0.5421  0.5829
   36MOL   H48525755   7.081   6.151   2.417  2.9808 -0.2549 -1.3290
   36MOL   H48625756   7.095   6.277   2.315 -0.0125  0.5349 -0.8788
   36MOL   H48725757   6.857   6.256   2.330  0.7984  1.4114 -2.7665
   36MOL   H48825758   6.901   6.173   2.175  1.4893 -1.3637 -0.4207
   36MOL   H48925759   6.729   6.041   2.312 -0.3962 -0.3924  1.0009
   36MOL   H49025760   6.886   5.952   2.323 -1.6616 -0.9665  0.7214
   36MOL   H49125761   6.907   6.097   2.542  1.7244 -1.9359 -0.5527
   36MOL   H49225762   6.732   6.104   2.527 -0.4082 -0.0098  1.0179
   36MOL   H49325763   6.726   5.845   2.517 -0.2273  1.1827  0.0306
   36MOL   H49425764   6.877   5.846   2.592 -0.2628 -0.2856  1.4707
   36MOL   H49525765   6.618   5.948   2.682 -0.4011 -0.9583 -1.0435
   36MOL   H49625766   6.721   5.823   2.756 -0.5518  0.8791  1.3085
   36MOL   H49725767   6.874   6.007   2.828  0.2514 -0.4709 -1.6023
   36MOL   H49825768   6.784   6.133   2.757 -0.5803 -0.5642 -2.0140
   36MOL   H49925769   6.656   5.953   2.967 -0.0086 -1.0862 -2.1214
   36MOL   H50025770   6.595   6.098   2.900 -0.1733  0.8827  1.5496
   36MOL   H50125771   6.836   6.310   3.354 -0.5508 -1.1835  0.5558
   36MOL   H50225772   6.727   6.169   3.330  0.0820 -0.5247 -0.6590
   36MOL   H50325773   6.743   6.291   3.200  0.0044  0.1066 -0.5241
   36MOL   H50425774   6.921   6.294   3.058  2.8080  1.0545 -1.4194
   36MOL   H50525775   6.997   6.360   3.203 -1.0523  1.4417 -0.2582
   36MOL   C50625776   0.117   6.082   3.784  0.5457 -0.2764  0.0638
   36MOL   C50725777   0.149   6.101   3.634 -0.0744  0.2143  0.3011
   36MOL   C50825778   0.036   6.134   3.540 -0.2849 -1.4413  0.5631
   36MOL   C50925779   7.705   6.031   3.540 -0.4366  0.1070 -0.0030
   36MOL   C51025780   7.586   6.070   3.444 -0.2282 -0.4196 -0.1645
   36MOL   C51125781   7.480   5.967   3.429 -0.5261 -0.1096  0.8284
   36MOL   C51225782   7.360   6.015   3.354  0.2250  0.1307 -0.2592
   36MOL   C51325783   7.392   6.052   3.208  0.0052 -0.2873 -0.2128
   36MOL   O51425784   7.274   6.084   3.143 -0.5221 -0.7839  0.1292
   36MOL   C51525785   7.234   6.211   3.143 -0.2245  0.4716 -0.0194
   36MOL   O51625786   7.294   6.299   3.207  0.3495  0.6477 -0.7424
   36MOL   C51725787   7.118   6.254   3.055  0.2123 -0.6816  0.3015
   36MOL   C51825788   7.109   6.155   2.935  0.0471 -0.0364  0.2732
   36MOL   C51925789   7.141   6.404   3.007 -1.1229 -0.0852  0.3135
   36MOL   H52025790   0.050   5.996   3.796 -2.6547  1.8966 -1.6615
   36MOL   H52125791   0.073   6.170   3.830 -0.5693 -0.5131 -0.5190
   36MOL   H52225792   0.204   6.049   3.840  0.8058 -1.4668 -1.0177
   36MOL   H52325793   0.205   6.015   3.598 -0.6915  0.2420 -0.7393
   36MOL   H52425794   0.225   6.179   3.630 -0.7805  0.8293 -1.6515
   36MOL   H52525795   7.777   6.235   3.552  2.6049 -0.3314  1.0148
   36MOL   H52625796   0.078   6.123   3.440  1.7723  0.1333  1.2377
   36MOL   H52725797   7.745   5.931   3.521  0.5474  0.7444 -1.3547
   36MOL   H52825798   7.653   6.039   3.636 -2.1128 -0.3099 -0.8417
   36MOL   H52925799   7.538   6.163   3.475  0.4459  0.4463 -1.6873
   36MOL   H53025800   7.633   6.090   3.348  0.1719 -1.7239 -0.2542
   36MOL   H53125801   7.463   5.936   3.532 -1.8357 -1.0772  0.3274
   36MOL   H53225802   7.516   5.876   3.382 -2.1607  0.0145 -0.6895
   36MOL   H53325803   7.311   6.091   3.415 -0.5512 -0.4019 -0.2110
   36MOL   H53425804   7.296   5.927   3.344  0.1080  0.1884 -0.0162
   36MOL   H53525805   7.427   5.963   3.156  1.3278 -0.4777  0.9725
   36MOL   H53625806   7.465   6.132   3.201  0.6247 -0.7909  0.3948
   36MOL   H53725807   7.205   6.135   2.886 -0.2031 -1.2791  0.2636
   36MOL   H53825808   7.040   6.195   2.862 -2.3615 -0.8667  2.0276
   36MOL   H53925809   7.077   6.055   2.963  0.4115 -0.9468 -2.4628
   36MOL   H54025810   7.043   6.434   2.971 -1.4430 -0.3743  0.9334
   36MOL   H54125811   7.150   6.474   3.090 -0.9820  2.2858 -1.6794
   36MOL   C54225812   6.401   6.853   2.102 -0.1034  0.0753 -0.1637
   36MOL   C54325813   6.548   6.806   2.117 -0.0507 -0.1096 -1.1040
   36MOL   C54425814   6.578   6.771   2.264 -0.3448 -0.0491 -0.2828
   36MOL   C54525815   6.707   6.691   2.279  0.1507  0.0303  0.5295
   36MOL   C54625816   6.727   6.644   2.430  0.6236 -0.2309 -0.0274
   36MOL   C54725817   6.843   6.554   2.448 -0.5934 -0.0072  0.2103
   36MOL   C54825818   6.896   6.561   2.587  0.4043  0.6137 -0.4600
   36MOL   C54925819   6.975   6.430   2.617  0.9504 -0.4304  0.0858
   36MOL   O55025820   7.047   6.448   2.737  0.1652 -0.4499  0.4075
   36MOL   C55125821   7.174   6.397   2.752 -0.0621  0.2251  0.5478
   36MOL   O55225822   7.228   6.320   2.671 -0.2732 -0.5716 -0.2121
   36MOL   C55325823   7.240   6.441   2.887  0.1149  0.2967 -0.0244
   36MOL   C55425824   7.372   6.361   2.897  0.2479 -0.0653 -0.3181
   36MOL   C55525825   7.262   6.591   2.896  0.2253 -0.4273 -0.0800
   36MOL   H55625826   6.329   6.773   2.121  0.2257 -0.3526 -0.6970
   36MOL   H55725827   6.376   6.887   2.002  0.3192  0.8688 -0.0057
   36MOL   H55825828   6.392   6.929   2.180 -0.2335 -0.6350  0.5211
   36MOL   H55925829   6.555   6.715   2.057  4.6187 -0.6768  0.0911
   36MOL   H56025830   6.609   6.889   2.081 -0.4419  0.8846  0.4821
   36MOL   H56125831   6.495   6.710   2.300 -0.7701 -0.2482 -1.5615
   36MOL   H56225832   6.582   6.863   2.323 -1.3912 -0.9928  1.2937
   36MOL   H56325833   6.695   6.610   2.207 -2.9557  0.8345  0.0303
   36MOL   H56425834   6.799   6.746   2.258  1.0050 -1.6323 -0.1105
   36MOL   H56525835   6.637   6.596   2.471 -0.9838  0.9947 -2.0229
   36MOL   H56625836   6.729   6.736   2.488  0.3036 -0.5335  0.4779
   36MOL   H56725837   6.806   6.454   2.426 -0.7211  0.0576  0.1311
   36MOL   H56825838   6.922   6.569   2.374 -0.6920 -1.8795 -0.3044
   36MOL   H56925839   6.967   6.643   2.595  0.8674  0.3615 -1.6917
   36MOL   H57025840   6.832   6.588   2.670 -0.8544  0.2533 -1.3012
   36MOL   H57125841   7.032   6.403   2.529  0.4596 -0.2588 -0.2888
   36MOL   H57225842   6.901   6.351   2.627 -2.0764  2.1337 -1.1179
   36MOL   H57325843   7.412   6.384   2.996  1.4982 -2.0836 -0.3174
   36MOL   H57425844   7.446   6.390   2.823  0.4815  1.4871  0.4985
   36MOL   H57525845   7.368   6.252   2.889 -0.4679 -0.0660 -0.0137
   36MOL   H57625846   7.292   6.612   2.998  1.3036 -1.5754 -0.1384
   36MOL   H57725847   7.160   6.627   2.893  0.5575  0.4933 -0.7131
   36MOL   C57825848   6.854   7.073   1.894  0.7988 -0.0620 -0.0686
   36MOL   C57925849   6.889   7.078   2.040 -0.3689  0.4796 -0.5178
   36MOL   C58025850   7.012   6.991   2.086 -0.0071  0.1542 -0.3538
   36MOL   C58125851   7.060   7.025   2.228  0.3083  0.4259  1.2895
   36MOL   C58225852   7.191   6.948   2.265 -0.4543 -0.4799  0.0818
   36MOL   C58325853   7.161   6.825   2.345  0.5287 -0.6257 -0.2781
   36MOL   C58425854   7.289   6.729   2.348 -0.1631  0.1363 -0.6708
   36MOL   C58525855   7.281   6.619   2.456 -0.1298  0.0274  0.2331
   36MOL   O58625856   7.263   6.665   2.589 -0.1892  0.1033 -0.0564
   36MOL   C58725857   7.375   6.643   2.669  0.3851 -0.6065  0.1049
   36MOL   O58825858   7.482   6.607   2.626  0.1151  0.4876 -0.0664
   36MOL   C58925859   7.357   6.684   2.818 -0.4796 -0.0045 -1.0781
   36MOL   C59025860   7.490   6.683   2.898  0.1617 -0.1043  0.5524
   36MOL   C59125861   7.293   6.829   2.835 -0.1234 -0.1209 -0.3009
   36MOL   H59225862   6.772   7.141   1.873  1.1561  0.4641  0.2183
   36MOL   H59325863   6.830   6.971   1.863  1.6944 -0.7889  1.5629
   36MOL   H59425864   6.943   7.091   1.833 -0.5160  1.6998 -1.5230
   36MOL   H59525865   6.812   7.024   2.096  1.0022 -1.3474 -0.3557
   36MOL   H59625866   6.877   7.172   2.093  0.5782 -0.1071  0.7471
   36MOL   H59725867   7.097   7.011   2.020 -1.1339  1.7350 -1.3561
   36MOL   H59825868   6.982   6.886   2.080 -0.3786  0.3293 -1.9492
   36MOL   H59925869   6.974   6.992   2.287 -0.1918  0.8057  0.7705
   36MOL   H60025870   7.059   7.132   2.247  0.6828  0.6399  0.1553
   36MOL   H60125871   7.257   7.003   2.332 -0.7348 -0.1915  0.1219
   36MOL   H60225872   7.259   6.919   2.185 -0.5374 -0.2651 -0.0678
   36MOL   H60325873   7.077   6.774   2.298  0.5406  1.0683 -2.2256
   36MOL   H60425874   7.125   6.858   2.442 -2.7419 -2.3746 -0.8127
   36MOL   H60525875   7.380   6.785   2.368 -0.0901  0.3432 -1.5701
   36MOL   H60625876   7.305   6.675   2.255 -0.0930 -0.9693 -0.0310
   36MOL   H60725877   7.185   6.570   2.437  0.4762 -0.7452 -0.8534
   36MOL   H60825878   7.353   6.542   2.429  0.1098  0.1858  0.4234
   36MOL   H60925879   7.474   6.731   2.995 -0.1539 -1.1572  1.0326
   36MOL   H61025880   7.533   6.585   2.918  2.2211  0.1628 -2.2312
   36MOL   H61125881   7.567   6.750   2.860  0.8816 -0.5447  1.2137
   36MOL   H61225882   7.219   6.829   2.914 -0.0180 -1.3082 -0.1991
   36MOL   H61325883   7.216   6.832   2.758  0.7106 -0.3152 -1.1607
   36MOL   C61425884   7.463   7.161   3.957  0.3866 -0.0222  0.4360
   36MOL   C61525885   7.347   7.103   3.881 -0.0456  0.1964  0.3643
   36MOL   C61625886   7.387   6.979   3.802 -0.1755  0.5929  0.2551
   36MOL   C61725887   7.481   6.987   3.676  0.1026  0.6119 -0.3141
   36MOL   C61825888   7.395   6.964   3.549  0.0592 -0.1918 -0.7263
   36MOL   C61925889   7.487   6.979   3.424 -0.0117 -0.5422 -0.5907
   36MOL   C62025890   7.409   6.982   3.287  0.2051  0.6806 -0.6721
   36MOL   C62125891   7.493   7.004   3.162  0.0834  0.4321 -0.5984
   36MOL   O62225892   7.414   6.971   3.048  0.2447  0.0596 -0.4692
   36MOL   C62325893   7.463   6.987   2.931 -0.9433 -0.2908  0.1024
   36MOL   O62425894   7.587   6.998   2.914  0.1384  0.4990 -0.0852
   36MOL   C62525895   7.369   6.965   2.809  0.2650 -0.0821 -0.4740
   36MOL   C62625896   7.446   6.965   2.674 -0.4777 -0.1065  0.5526
   36MOL   C62725897   7.250   7.069   2.817 -0.5868 -0.4714 -0.1579
   36MOL   H62825898   7.419   7.234   4.025 -1.9819 -0.2412 -0.7976
   36MOL   H62925899   7.540   7.213   3.899 -0.0137 -1.4793 -1.4520
   36MOL   H63025900   7.512   7.093   4.026  0.4723 -1.8845 -1.4157
   36MOL   H63125901   7.278   7.085   3.963  0.2820 -1.8923  0.2136
   36MOL   H63225902   7.303   7.182   3.820 -1.6149 -0.3773  0.7568
   36MOL   H63325903   7.294   6.929   3.778  0.7108 -0.4991 -1.0246
   36MOL   H63425904   7.432   6.896   3.858 -4.0451 -1.4248  0.5175
   36MOL   H63525905   7.571   6.927   3.694 -0.0024  0.8754  1.1408
   36MOL   H63625906   7.518   7.089   3.675  0.7381  0.4051  1.3153
   36MOL   H63725907   7.357   6.862   3.541 -0.3352 -0.2620  1.6740
   36MOL   H63825908   7.318   7.041   3.551  1.2580  1.0230  0.0267
   36MOL   H63925909   7.528   7.079   3.438  2.2320 -1.9630  4.0485
   36MOL   H64025910   7.567   6.906   3.422  0.5123  0.0293 -0.7128
   36MOL   H64125911   7.332   7.059   3.287  0.7215  1.2003  0.1157
   36MOL   H64225912   7.356   6.886   3.289  0.8032  0.3774  1.2996
   36MOL   H64325913   7.530   7.107   3.161 -1.6031  1.0585 -0.0198
   36MOL   H64425914   7.586   6.947   3.162  0.0069  0.3081 -1.4733
   36MOL   H64525915   7.392   6.983   2.581 -0.0367  0.3514  0.3837
   36MOL   H64625916   7.496   6.870   2.660  0.3251  0.2722  0.8426
   36MOL   H64725917   7.530   7.034   2.666 -1.0767  0.4749 -0.9777
   36MOL   H64825918   7.189   7.039   2.903  2.2529 -0.5899  1.8825
   36MOL   H64925919   7.195   7.046   2.726 -0.5427 -0.2004 -0.2524
   36MOL   C65025920   0.355   7.534   3.041 -0.0657  0.1249 -0.5268
   36MOL   C65125921   0.239   7.486   2.956 -0.2280  0.6398 -0.0851
   36MOL   C65225922   0.262   7.354   2.882 -0.7201 -0.1318 -0.8700
   36MOL   C65325923   0.130   7.295   2.824 -0.0870  0.2592 -0.8811
   36MOL   C65425924   0.064   7.389   2.721  0.1825 -0.4368 -0.3069
   36MOL   C65525925   7.713   7.334   2.668  0.3910  0.1512 -0.0905
   36MOL   C65625926   7.631   7.441   2.592 -0.0845 -0.1694 -0.7753
   36MOL   C65725927   7.484   7.411   2.568 -0.1618  0.1492 -0.2560
   36MOL   O65825928   7.423   7.369   2.685  0.0327  0.0912 -0.1455
   36MOL   C65925929   7.333   7.268   2.680  0.2861 -0.3618  0.6150
   36MOL   O66025930   7.299   7.217   2.570  0.3974  0.3702 -0.1122
   36MOL   C66125931   7.262   7.230   2.812  0.0138 -0.8426 -0.0585
   36MOL   C66225932   7.342   7.274   2.943 -0.3431  0.0993  0.4223
   36MOL   C66325933   7.125   7.291   2.825  0.3817  0.0568 -0.0963
   36MOL   H66425934   0.318   7.626   3.088 -5.7957 -2.0723 -0.2774
   36MOL   H66525935   0.444   7.560   2.985  1.0442  1.6727  1.8688
   36MOL   H66625936   0.390   7.477   3.127 -1.4799  2.0919  1.4099
   36MOL   H66725937   0.229   7.567   2.884  1.6689  2.4652  1.6418
   36MOL   H66825938   0.152   7.479   3.020  0.1874 -0.1575  0.4021
   36MOL   H66925939   0.308   7.280   2.948  1.1294  3.2682  1.7696
   36MOL   H67025940   0.334   7.371   2.801 -0.7154 -1.8208 -1.2413
   36MOL   H67125941   0.064   7.265   2.906  1.4102 -1.3482 -0.2358
   36MOL   H67225942   0.162   7.206   2.769 -0.4312 -1.2178  1.2395
   36MOL   H67325943   0.128   7.430   2.643 -1.2234 -0.2445 -1.3918
   36MOL   H67425944   0.036   7.479   2.776  0.2225 -1.5281  1.5475
   36MOL   H67525945   7.721   7.247   2.603 -1.3333 -0.1503  0.0688
   36MOL   H67625946   7.652   7.301   2.752  0.8175  1.1766  0.6308
   36MOL   H67725947   7.683   7.482   2.506  0.5890 -1.2204 -0.8692
   36MOL   H67825948   7.621   7.526   2.660  1.0301 -2.4744  2.4036
   36MOL   H67925949   7.478   7.338   2.487 -1.5086 -3.3659  2.8739
   36MOL   H68025950   7.424   7.502   2.555 -1.5395 -0.8792 -1.2756
   36MOL   H68125951   7.350   7.382   2.950  0.9474  0.2338 -2.3100
   36MOL   H68225952   7.446   7.239   2.940 -0.5719 -0.6182  0.8769
   36MOL   H68325953   7.291   7.237   3.031  0.3230 -0.1941  0.6916
   36MOL   H68425954   7.062   7.267   2.739  1.7872 -2.6867 -0.4051
   36MOL   H68525955   7.086   7.239   2.912  0.6926  1.6753  1.0369
   36MOL   C68625956   6.934   6.713   3.345  0.2221 -0.7045 -0.0140
   36MOL   C68725957   7.014   6.795   3.238  0.8469 -0.2175 -0.0944
   36MOL   C68825958   6.982   6.948   3.250 -0.1879  0.5776  0.7007
   36MOL   C68925959   7.028   7.007   3.385  0.2461  0.1814  0.0510
   36MOL   C69025960   6.966   7.146   3.402 -0.2372  0.1018  0.1722
   36MOL   C69125961   7.034   7.245   3.303  0.0113  0.1816  0.2252
   36MOL   C69225962   6.980   7.385   3.312 -0.0361  0.0604 -1.0883
   36MOL   C69325963   7.054   7.482   3.216  0.5121 -0.5939 -0.3143
   36MOL   O69425964   7.025   7.446   3.081 -0.1447 -0.1754 -0.5640
   36MOL   C69525965   7.099   7.510   2.988 -0.0494  0.2346 -0.3433
   36MOL   O69625966   7.182   7.595   3.010  0.4280  0.0244  0.0263
   36MOL   C69725967   7.089   7.448   2.840 -1.2342 -0.0236 -0.0609
   36MOL   C69825968   6.945   7.468   2.801 -0.4088  0.5336 -0.3684
   36MOL   C69925969   7.175   7.533   2.740  0.5499  0.0562 -0.6140
   36MOL   H70025970   6.829   6.738   3.324  0.4565  1.5008  1.2866
   36MOL   H70125971   6.946   6.748   3.447 -0.3184 -0.7124  0.0561
   36MOL   H70225972   6.954   6.607   3.338  0.5874 -0.6460  0.1649
   36MOL   H70325973   6.998   6.749   3.140  1.9322  0.4829 -0.6062
   36MOL   H70425974   7.120   6.793   3.263  0.6900  1.7043  0.8185
   36MOL   H70525975   6.877   6.971   3.230  0.0287  0.8058 -0.1896
   36MOL   H70625976   7.038   6.996   3.170 -0.7480 -0.2372 -0.1915
   36MOL   H70725977   7.136   7.016   3.384  0.3184  0.0159  2.3187
   36MOL   H70825978   6.989   6.951   3.471 -4.2260  0.4106 -1.7096
   36MOL   H70925979   6.976   7.173   3.508  2.0304 -0.9384  0.2437
   36MOL   H71025980   6.858   7.142   3.392 -0.0274 -1.8993 -1.6142
   36MOL   H71125981   7.141   7.250   3.324 -0.0056  0.4209  0.2588
   36MOL   H71225982   7.011   7.221   3.200  1.0102 -0.3270  0.1105
   36MOL   H71325983   6.879   7.382   3.270 -1.2800  0.8036  1.7613
   36MOL   H71425984   6.978   7.423   3.414 -0.0455  2.3374 -1.9145
   36MOL   H71525985   7.160   7.478   3.243  0.6714 -0.5072 -0.9292
   36MOL   H71625986   7.027   7.585   3.237 -1.7247 -0.6030 -2.8382
   36MOL   H71725987   6.881   7.401   2.858  0.3772 -1.2708 -1.5731
   36MOL   H71825988   6.904   7.567   2.822  0.6395  0.5714  1.6559
   36MOL   H71925989   6.917   7.450   2.697  0.4601  1.0149 -0.6905
   36MOL   H72025990   7.193   7.493   2.640  2.2157 -0.0991 -0.2648
   36MOL   H72125991   7.276   7.549   2.777  0.2129  0.5895  0.0890
   36MOL   H72225992   7.131   7.632   2.736  0.7522  0.2562  1.6596
   37MOL     C125993   0.156   2.332   2.728  0.1373 -0.9601 -0.1174
   37MOL     C225994   0.275   2.271   2.810  0.2233 -1.4852 -0.7239
   37MOL     C325995   0.299   2.122   2.802 -0.2703 -0.6538 -0.6951
   37MOL     C425996   0.413   2.078   2.897 -0.1028 -0.2056  0.1446
   37MOL     C525997   0.433   1.933   2.888 -0.4528 -0.1484 -0.7359
   37MOL     C625998   0.563   1.883   2.958 -0.2183 -0.1107  0.0657
   37MOL     C725999   0.589   1.738   2.954  0.7284  0.1092  0.1375
   37MOL     C826000   0.682   1.676   3.069  0.2894  0.2559 -0.0902
   37MOL     O926001   0.815   1.714   3.055 -0.3997 -0.4467 -0.3285
   37MOL    C1026002   0.923   1.652   3.111 -0.2945  0.4054  0.5224
   37MOL    O1126003   0.917   1.549   3.178 -0.7959 -0.1935  0.0096
   37MOL    C1226004   1.062   1.712   3.078 -0.4314  0.5011 -0.5776
   37MOL    C1326005   1.080   1.712   2.922  0.8217 -0.3633  0.0627
   37MOL    C1426006   1.078   1.859   3.129 -0.3339  0.3497 -0.1739
   37MOL    H1526007   0.154   2.336   2.620 -1.3805  0.6338 -0.0514
   37MOL    H1626008   0.155   2.437   2.757 -2.4937 -1.5750  2.2804
   37MOL    H1726009   0.067   2.282   2.766 -1.2053  0.8018 -0.8717
   37MOL    H1826010   0.270   2.290   2.917  0.2278 -0.8473 -0.8336
   37MOL    H1926011   0.365   2.330   2.792  0.0953 -0.2297  2.5005
   37MOL    H2026012   0.204   2.078   2.832 -0.4184  0.4949  0.5595
   37MOL    H2126013   0.330   2.106   2.699 -0.6423  0.2370 -0.9421
   37MOL    H2226014   0.499   2.140   2.870  0.0300 -1.7925 -3.3628
   37MOL    H2326015   0.389   2.110   2.998  0.1489  0.7324 -0.0868
   37MOL    H2426016   0.437   1.897   2.785  0.0842 -1.8971 -0.1191
   37MOL    H2526017   0.347   1.879   2.926 -0.7787 -0.1374 -1.4504
   37MOL    H2626018   0.567   1.919   3.060 -1.8469 -0.0985  0.1350
   37MOL    H2726019   0.640   1.944   2.910  1.0364 -2.4583 -1.0216
   37MOL    H2826020   0.627   1.728   2.852 -1.3238 -0.1432 -0.6249
   37MOL    H2926021   0.493   1.686   2.954  1.1507 -0.6606  0.4188
   37MOL    H3026022   0.666   1.568   3.064  1.4733  0.0691  0.1499
   37MOL    H3126023   0.650   1.711   3.167 -1.6483 -2.3975  0.2923
   37MOL    H3226024   0.992   1.754   2.873  1.7291  2.3679  0.6485
   37MOL    H3326025   1.170   1.769   2.899  0.0342  1.2729  0.9632
   37MOL    H3426026   1.096   1.611   2.884  1.5024 -0.3668  0.3575
   37MOL    H3526027   1.010   1.923   3.073  1.0578  1.5876 -0.4498
   37MOL    H3626028   1.169   1.897   3.084 -1.9725  3.5122 -0.9399
   37MOL    H3726029   1.138   1.650   3.126 -2.5215 -0.8165  1.1191
   37MOL    C3826030   1.714   1.390   2.688  0.1824 -0.4958  0.4492
   37MOL    C3926031   1.595   1.396   2.775 -0.2480 -0.0738  0.0817
   37MOL    C4026032   1.623   1.408   2.924  0.4823 -0.7020 -0.6956
   37MOL    C4126033   1.490   1.423   3.000 -0.3851  0.3045 -0.1923
   37MOL    C4226034   1.503   1.450   3.151  0.5143 -0.5195  0.0650
   37MOL    C4326035   1.361   1.470   3.209 -0.1484 -0.2372  0.3400
   37MOL    C4426036   1.373   1.551   3.337 -0.8230 -0.4263  0.1635
   37MOL    C4526037   1.249   1.596   3.412  0.1518 -0.1909 -0.4485
   37MOL    O4626038   1.206   1.712   3.339  0.0250  0.4561  0.5711
   37MOL    C4726039   1.096   1.773   3.373 -0.1899  0.7405  0.1130
   37MOL    O4826040   1.028   1.734   3.466 -0.0892 -0.1441 -0.5656
   37MOL    C4926041   1.065   1.897   3.280 -0.1568 -0.6571  0.5833
   37MOL    C5026042   0.921   1.959   3.298 -0.8553  0.5347  0.7923
   37MOL    C5126043   1.178   2.001   3.312 -0.2850 -0.1370  0.0770
   37MOL    H5226044   1.690   1.353   2.588  0.0019 -2.6838  1.2697
   37MOL    H5326045   1.782   1.312   2.724  0.6098 -1.0809 -1.5746
   37MOL    H5426046   1.767   1.485   2.675  2.6356 -2.0291 -1.0899
   37MOL    H5526047   1.535   1.310   2.747 -1.0087  0.0340  1.3230
   37MOL    H5626048   1.531   1.475   2.735  0.0797  0.7254  1.1008
   37MOL    H5726049   1.678   1.320   2.956 -0.6547 -0.7985  1.0637
   37MOL    H5826050   1.688   1.489   2.957  1.3212 -1.4373 -0.5302
   37MOL    H5926051   1.434   1.329   3.001 -0.8327  0.5440  2.8320
   37MOL    H6026052   1.425   1.495   2.950  1.9406  2.7492  0.2435
   37MOL    H6126053   1.558   1.373   3.205  3.9403 -0.2016 -2.8056
   37MOL    H6226054   1.557   1.544   3.156  0.6797 -0.6566  0.8828
   37MOL    H6326055   1.301   1.531   3.141  0.4326  1.3409  1.2206
   37MOL    H6426056   1.312   1.378   3.242  0.4014 -1.5040 -2.3036
   37MOL    H6526057   1.424   1.645   3.318  0.5876 -0.6637  2.6341
   37MOL    H6626058   1.426   1.491   3.411 -2.4360  0.6422  2.2686
   37MOL    H6726059   1.269   1.621   3.516  0.7275 -1.1654 -0.3140
   37MOL    H6826060   1.176   1.516   3.422 -0.4827  0.2613 -1.3655
   37MOL    H6926061   0.842   1.899   3.254  1.3873 -1.3712 -0.7853
   37MOL    H7026062   0.912   1.983   3.404 -0.4420  3.3006  0.2397
   37MOL    H7126063   0.934   2.060   3.258  2.6213 -0.3930 -0.6012
   37MOL    H7226064   1.178   2.073   3.230 -4.9481 -0.1736 -0.1182
   37MOL    H7326065   1.272   1.946   3.312 -1.4533 -2.2149  1.2271
   37MOL    C7426066   1.547   2.610   4.054 -0.0973  0.3050 -0.3002
   37MOL    C7526067   1.556   2.501   3.946 -0.2464 -0.0847 -0.0078
   37MOL    C7626068   1.451   2.388   3.970  0.1445  0.9186  0.5044
   37MOL    C7726069   1.508   2.261   3.904 -0.7162  0.3721 -0.1761
   37MOL    C7826070   1.424   2.135   3.913 -0.3433  0.3657 -0.3900
   37MOL    C7926071   1.472   2.028   3.818  0.0794 -0.5899 -0.4691
   37MOL    C8026072   1.387   1.900   3.812  0.3890  0.3932  0.6221
   37MOL    C8126073   1.247   1.903   3.747  0.4107  0.1893  0.0256
   37MOL    O8226074   1.257   1.945   3.615 -0.4564 -0.2724 -0.1923
   37MOL    C8326075   1.155   2.016   3.566 -0.2808 -0.4481 -0.7519
   37MOL    O8426076   1.037   2.018   3.607 -0.0365  0.4648  0.1162
   37MOL    C8526077   1.197   2.090   3.439 -0.4425 -0.0720  0.6215
   37MOL    C8626078   1.351   2.124   3.443 -0.2998  0.0947 -0.1008
   37MOL    C8726079   1.111   2.218   3.426  0.0068 -0.3213  0.6134
   37MOL    H8826080   1.590   2.706   4.027 -0.5288  0.3067 -1.0002
   37MOL    H8926081   1.587   2.581   4.151  1.1095  0.7123 -0.6621
   37MOL    H9026082   1.440   2.612   4.072  0.3294  0.1032  2.5415
   37MOL    H9126083   1.661   2.475   3.944 -0.0915  0.5457 -0.0270
   37MOL    H9226084   1.536   2.550   3.851 -3.0980 -0.4671  0.3459
   37MOL    H9326085   1.435   2.372   4.077 -2.0719  0.4725  0.1284
   37MOL    H9426086   1.349   2.417   3.946 -0.0967  1.3928  2.0307
   37MOL    H9526087   1.603   2.238   3.952 -1.4862 -0.3700  1.0190
   37MOL    H9626088   1.523   2.289   3.800 -0.1251 -1.4062 -0.5886
   37MOL    H9726089   1.413   2.092   4.012  2.2516 -0.8472 -0.5613
   37MOL    H9826090   1.322   2.169   3.899 -1.8694 -2.2882  3.4825
   37MOL    H9926091   1.484   2.074   3.720  0.1636 -0.9586 -0.6367
   37MOL   H10026092   1.573   2.000   3.846 -0.1817 -1.4585 -0.3738
   37MOL   H10126093   1.443   1.815   3.773  1.2980  0.3567  1.9588
   37MOL   H10226094   1.389   1.865   3.916  0.5143 -1.7718 -0.0860
   37MOL   H10326095   1.182   1.967   3.807  0.1621 -0.7592  0.7718
   37MOL   H10426096   1.199   1.807   3.727  0.2294 -0.0504  1.5461
   37MOL   H10526097   1.405   2.030   3.457 -0.8714  0.0309  1.8274
   37MOL   H10626098   1.385   2.179   3.530  0.2291  1.6050 -1.2338
   37MOL   H10726099   1.383   2.173   3.351 -3.7599  1.2927 -0.7474
   37MOL   H10826100   1.135   2.269   3.333 -1.2483  0.6568  0.8194
   37MOL   H10926101   1.009   2.182   3.409  1.0139 -2.7383 -0.5710
   37MOL   C11026102   1.405   2.513   2.516  0.2347  0.9628  0.2352
   37MOL   C11126103   1.415   2.450   2.668  0.8550 -0.3918  0.1954
   37MOL   C11226104   1.451   2.555   2.775  0.6929  0.3912 -0.6979
   37MOL   C11326105   1.456   2.500   2.914  0.4248 -0.1119  0.5163
   37MOL   C11426106   1.461   2.606   3.016  0.7183  0.2194  0.4168
   37MOL   C11526107   1.463   2.540   3.157 -0.3880  0.1570 -0.3383
   37MOL   C11626108   1.422   2.627   3.272  0.4133  0.8280  0.4548
   37MOL   C11726109   1.424   2.546   3.402  0.1156  0.6203 -0.1471
   37MOL   O11826110   1.303   2.461   3.404  0.1513 -0.1581 -0.4253
   37MOL   C11926111   1.258   2.411   3.521 -0.1013  0.1228  0.0154
   37MOL   O12026112   1.323   2.408   3.624  0.2800 -0.3057 -0.1473
   37MOL   C12126113   1.116   2.348   3.519  0.3660 -0.3720 -0.4739
   37MOL   C12226114   1.066   2.312   3.658 -0.1972 -0.2410 -0.3964
   37MOL   C12326115   1.021   2.452   3.445  0.4233  0.4051 -0.1377
   37MOL   H12426116   1.313   2.571   2.511 -0.3643  0.1420  1.4169
   37MOL   H12526117   1.485   2.575   2.476 -0.8000  1.5740 -0.9143
   37MOL   H12626118   1.388   2.434   2.443 -0.6867 -0.6168  2.0904
   37MOL   H12726119   1.482   2.364   2.682  1.2400 -0.1843 -0.3748
   37MOL   H12826120   1.319   2.411   2.702 -0.6386  1.3394 -1.9689
   37MOL   H12926121   1.366   2.622   2.762  0.1773 -0.1365 -0.0638
   37MOL   H13026122   1.537   2.621   2.763  1.0946 -0.2406 -1.3401
   37MOL   H13126123   1.363   2.443   2.919 -0.0888  0.4913 -1.6923
   37MOL   H13226124   1.545   2.437   2.920 -0.8261 -2.2418 -1.9930
   37MOL   H13326125   1.378   2.677   3.013  1.1452  0.6984 -0.1466
   37MOL   H13426126   1.556   2.658   3.011  0.4542  0.7147  0.5139
   37MOL   H13526127   1.394   2.455   3.163  0.3760 -0.5615 -1.5467
   37MOL   H13626128   1.562   2.500   3.180  0.1868  2.1876  0.8574
   37MOL   H13726129   1.321   2.660   3.249  1.1776  1.1808 -2.5503
   37MOL   H13826130   1.492   2.710   3.271  0.5923  0.6959  1.4365
   37MOL   H13926131   1.513   2.500   3.444 -1.6434  0.0785  3.1640
   37MOL   H14026132   1.419   2.626   3.475 -1.2961  0.2999  0.1138
   37MOL   H14126133   1.142   2.241   3.690  0.6333  0.5640 -0.5526
   37MOL   H14226134   1.076   2.400   3.722 -1.0410 -1.4856  1.4984
   37MOL   H14326135   0.960   2.284   3.666 -0.1560 -1.6447 -3.9926
   37MOL   H14426136   0.939   2.387   3.413  0.9319 -0.4762  0.3185
   37MOL   H14526137   1.053   2.473   3.343  0.4474  1.2590  0.0462
   37MOL   C14626138   0.043   2.223   3.094 -0.3342 -0.7786  0.0223
   37MOL   C14726139   0.158   2.213   3.190 -0.1290 -0.2378 -0.2731
   37MOL   C14826140   0.138   2.309   3.313  0.4215  0.3382  0.0121
   37MOL   C14926141   0.258   2.303   3.408 -0.1893  0.0787 -0.0650
   37MOL   C15026142   0.252   2.402   3.528  0.4662 -0.0496  0.0564
   37MOL   C15126143   0.383   2.382   3.617  0.7030 -0.2659  0.0176
   37MOL   C15226144   0.496   2.461   3.554  0.4992  0.9768 -0.1561
   37MOL   C15326145   0.633   2.410   3.612 -0.3134 -0.2343  0.1338
   37MOL   O15426146   0.731   2.485   3.540  0.7224  0.0382 -0.4550
   37MOL   C15526147   0.832   2.548   3.598 -1.0267 -0.3997  0.5729
   37MOL   O15626148   0.834   2.569   3.716 -0.2118  0.1800 -0.6475
   37MOL   C15726149   0.954   2.584   3.507  0.2499 -0.3246  0.1016
   37MOL   C15826150   1.068   2.661   3.580  0.5675 -0.2054 -0.2650
   37MOL   C15926151   0.898   2.663   3.383  0.7849 -0.1740 -0.2661
   37MOL   H16026152   0.051   2.143   3.021  0.9225 -2.4735  1.9733
   37MOL   H16126153   0.067   2.303   3.023  1.5426 -0.9771  0.4227
   37MOL   H16226154   7.726   2.228   3.146  0.1660 -0.5134  0.9474
   37MOL   H16326155   0.156   2.110   3.228 -0.9111 -0.0038  0.3320
   37MOL   H16426156   0.256   2.224   3.144 -0.3293  1.1204 -0.3753
   37MOL   H16526157   0.046   2.273   3.360 -0.4847 -0.4710 -2.2965
   37MOL   H16626158   0.120   2.409   3.274  1.4807  0.8844  0.9071
   37MOL   H16726159   0.270   2.205   3.455 -1.2941 -0.7065 -1.4175
   37MOL   H16826160   0.351   2.324   3.354 -1.0462 -2.8626 -2.7940
   37MOL   H16926161   0.167   2.362   3.584  1.0833  0.5929  1.4929
   37MOL   H17026162   0.239   2.507   3.502 -2.2439 -0.3267  0.1800
   37MOL   H17126163   0.420   2.280   3.629 -0.9151 -0.9971 -1.0778
   37MOL   H17226164   0.371   2.421   3.718  0.9570  0.8631 -0.3831
   37MOL   H17326165   0.500   2.442   3.447 -1.3274  0.7895 -0.2006
   37MOL   H17426166   0.477   2.565   3.580  0.9735  0.4861  2.3357
   37MOL   H17526167   0.626   2.441   3.717 -1.6280 -0.7277  0.1992
   37MOL   H17626168   0.661   2.305   3.608 -0.2604 -0.1924 -0.5684
   37MOL   H17726169   1.121   2.602   3.654 -0.5498 -0.0106  0.6972
   37MOL   H17826170   1.044   2.756   3.628  0.5560 -0.5962  0.5086
   37MOL   H17926171   1.147   2.681   3.508  0.9996 -0.3098  0.1835
   37MOL   H18026172   0.799   2.624   3.358 -0.0749  2.6786 -1.5056
   37MOL   H18126173   0.949   2.634   3.291  1.2891  0.9496 -0.3443
   37MOL   C18226174   1.704   2.808   2.574  0.4636  0.0828  0.0587
   37MOL   C18326175   1.689   2.899   2.692  0.3264  0.1301 -0.2021
   37MOL   C18426176   1.545   2.922   2.744 -0.5081 -0.0288 -0.0317
   37MOL   C18526177   1.533   2.988   2.887  1.1286 -0.4692  0.4986
   37MOL   C18626178   1.388   3.015   2.940  0.2022  0.3915 -0.1188
   37MOL   C18726179   1.376   3.056   3.081  0.2254 -1.0233  0.2565
   37MOL   C18826180   1.232   3.043   3.139  0.6575  0.6382  0.0739
   37MOL   C18926181   1.209   2.902   3.196  0.0121 -0.3279  0.0391
   37MOL   O19026182   1.075   2.861   3.217 -0.0876 -0.1858 -0.1589
   37MOL   C19126183   1.020   2.876   3.342  0.3148  0.2893 -0.3981
   37MOL   O19226184   1.082   2.932   3.436 -0.1805 -0.3546 -0.2896
   37MOL   C19326185   0.877   2.817   3.368 -0.3541  0.2418  0.0138
   37MOL   C19426186   0.804   2.871   3.495 -0.4976 -0.3617  0.5936
   37MOL   C19526187   0.782   2.835   3.246  0.1785  0.2980 -0.7955
   37MOL   H19626188   1.696   2.708   2.615 -0.6281  1.1318  2.5280
   37MOL   H19726189   1.630   2.831   2.497  0.7887  2.0962  0.3201
   37MOL   H19826190   1.801   2.826   2.527  0.2371 -0.6249 -0.6974
   37MOL   H19926191   1.743   2.993   2.674 -0.9173  1.3086  2.0790
   37MOL   H20026192   1.737   2.847   2.775  0.7814 -0.9782 -1.1372
   37MOL   H20126193   1.495   2.984   2.670  1.4487  1.6115 -0.0322
   37MOL   H20226194   1.482   2.834   2.732 -0.8359  0.2774 -0.5593
   37MOL   H20326195   1.601   2.936   2.954  2.0018  2.2985  1.8358
   37MOL   H20426196   1.572   3.089   2.879  0.4638 -0.3377 -1.3209
   37MOL   H20526197   1.333   2.923   2.923  0.1658  0.1615  1.1947
   37MOL   H20626198   1.342   3.093   2.878  0.6835  1.5439  0.9392
   37MOL   H20726199   1.399   3.162   3.089  3.8314 -1.5877 -1.5312
   37MOL   H20826200   1.442   3.004   3.151 -1.0130 -1.5034  1.0815
   37MOL   H20926201   1.205   3.104   3.225 -0.0172  0.1817  0.1859
   37MOL   H21026202   1.157   3.071   3.065 -0.6579 -2.2002  0.2666
   37MOL   H21126203   1.275   2.878   3.279  0.2907 -0.0689 -0.1082
   37MOL   H21226204   1.233   2.833   3.115  0.8183  0.5885 -0.5053
   37MOL   H21326205   0.873   2.860   3.579 -1.5386  0.1631  1.5398
   37MOL   H21426206   0.785   2.978   3.486  1.7903 -0.1181 -1.7480
   37MOL   H21526207   0.713   2.817   3.521 -1.1844  0.8923  0.8149
   37MOL   H21626208   0.839   2.797   3.161 -0.2695 -3.6516  0.5467
   37MOL   H21726209   0.701   2.763   3.251 -0.6733  1.3443  0.7873
   37MOL   C21826210   7.522   3.435   2.823 -0.2156 -0.1291  0.0196
   37MOL   C21926211   7.594   3.419   2.956 -0.2729  0.2546 -0.1469
   37MOL   C22026212   7.709   3.522   2.958  0.4938  0.6917  0.1125
   37MOL   C22126213   0.030   3.501   3.069  0.2373  0.4175 -0.1421
   37MOL   C22226214   0.127   3.379   3.032  0.6636 -0.9674 -0.8293
   37MOL   C22326215   0.196   3.314   3.154 -0.0939  0.5099 -0.5684
   37MOL   C22426216   0.312   3.220   3.113  0.6545 -0.3106 -0.0020
   37MOL   C22526217   0.361   3.112   3.215  0.5605 -0.2041 -0.0331
   37MOL   O22626218   0.490   3.058   3.178 -0.2067 -0.1199  0.5884
   37MOL   C22726219   0.572   2.983   3.251 -0.1365  0.1624  0.0907
   37MOL   O22826220   0.533   2.940   3.362  0.1372 -0.4261 -0.2539
   37MOL   C22926221   0.716   2.968   3.206 -0.1119  0.8150 -0.6151
   37MOL   C23026222   0.711   2.960   3.046  0.9641  0.6866  0.4143
   37MOL   C23126223   0.807   3.090   3.240  0.3819 -0.0606 -0.1617
   37MOL   H23226224   7.588   3.485   2.752  2.9235 -1.9374  1.5123
   37MOL   H23326225   7.433   3.496   2.838  0.5602  1.4467 -1.6126
   37MOL   H23426226   7.487   3.337   2.791  1.9080 -1.1937  0.8066
   37MOL   H23526227   7.634   3.318   2.958  1.2022  0.7658 -2.5690
   37MOL   H23626228   7.520   3.428   3.036 -0.0556  0.7035 -0.0001
   37MOL   H23726229   7.764   3.543   2.866  1.6036 -0.5968  0.4729
   37MOL   H23826230   7.667   3.622   2.975 -1.3886  0.2705 -1.7673
   37MOL   H23926231   0.096   3.585   3.092  0.7913 -0.1105  0.2197
   37MOL   H24026232   7.761   3.476   3.164 -0.3779  0.7312 -0.3735
   37MOL   H24126233   0.066   3.305   2.980 -1.3365  0.5844 -0.7870
   37MOL   H24226234   0.190   3.419   2.952 -1.5267 -0.8007 -2.5351
   37MOL   H24326235   0.235   3.385   3.227 -2.7960  0.1199  1.3673
   37MOL   H24426236   0.114   3.260   3.202 -0.7578  0.1542 -2.0603
   37MOL   H24526237   0.399   3.282   3.089  0.0819  0.2723 -0.6097
   37MOL   H24626238   0.281   3.171   3.021  2.0755 -2.0870  0.4332
   37MOL   H24726239   0.283   3.036   3.224 -0.6196  0.9135 -0.6108
   37MOL   H24826240   0.373   3.154   3.315 -1.8329 -1.8068  0.9594
   37MOL   H24926241   0.662   3.048   3.007  0.7621  0.1432 -0.5776
   37MOL   H25026242   0.656   2.876   3.002 -1.0099  1.3440  1.5849
   37MOL   H25126243   0.810   2.950   3.001  0.6636 -1.5616  0.1880
   37MOL   H25226244   0.849   3.088   3.341  0.3574  0.2585 -0.1435
   37MOL   H25326245   0.895   3.069   3.180  1.2298 -2.2589  1.7864
   37MOL   C25426246   1.146   2.786   2.286  0.2476 -0.5937 -0.2950
   37MOL   C25526247   1.089   2.828   2.420  0.0224  0.1133 -0.2078
   37MOL   C25626248   1.195   2.898   2.509  0.4710  0.6322 -0.5981
   37MOL   C25726249   1.144   2.920   2.651  0.3619 -0.3135 -0.5959
   37MOL   C25826250   1.013   3.002   2.651 -0.6218  0.3677 -0.7442
   37MOL   C25926251   1.004   3.098   2.772  0.1754  0.1310  0.8476
   37MOL   C26026252   0.891   3.201   2.762 -0.4236  0.7037 -0.7094
   37MOL   C26126253   0.881   3.313   2.873 -0.0120 -0.8744 -0.0661
   37MOL   O26226254   0.860   3.264   3.005 -0.2574  0.0445  0.8604
   37MOL   C26326255   0.749   3.289   3.075 -0.2322 -0.1569 -0.1953
   37MOL   O26426256   0.649   3.344   3.031  0.1731 -0.0087 -0.5352
   37MOL   C26526257   0.766   3.245   3.225 -0.3448 -0.5231 -0.5147
   37MOL   C26626258   0.893   3.314   3.288 -0.1777 -0.2546  0.3641
   37MOL   C26726259   0.648   3.288   3.323 -0.1998 -0.4838 -0.5066
   37MOL   H26826260   1.077   2.716   2.240  0.8791 -1.0110 -0.6015
   37MOL   H26926261   1.159   2.877   2.228 -2.6297 -0.7977 -1.3354
   37MOL   H27026262   1.244   2.742   2.301  0.1928 -0.5249  0.2905
   37MOL   H27126263   0.999   2.888   2.407 -0.8984 -1.1255  0.3210
   37MOL   H27226264   1.064   2.734   2.471  0.6223  0.7139  1.2387
   37MOL   H27326265   1.215   2.997   2.467  2.2399  0.9479  0.9117
   37MOL   H27426266   1.285   2.837   2.509  0.1269  0.1274 -0.4451
   37MOL   H27526267   1.212   2.986   2.705  0.2832 -0.2526 -0.5701
   37MOL   H27626268   1.139   2.832   2.714 -0.3984 -0.9761 -1.5592
   37MOL   H27726269   1.016   3.061   2.559 -0.2366  1.9562  0.2658
   37MOL   H27826270   0.923   2.943   2.640  2.0748 -3.4483 -3.9492
   37MOL   H27926271   1.097   3.154   2.783 -0.7673  1.5668  1.6930
   37MOL   H28026272   0.978   3.041   2.860 -0.3792 -0.6859  0.1564
   37MOL   H28126273   0.897   3.256   2.668  3.7397  0.6635 -0.5313
   37MOL   H28226274   0.793   3.153   2.752  0.3923 -1.1401 -0.0551
   37MOL   H28326275   0.969   3.377   2.882 -1.3832  0.9393  0.8064
   37MOL   H28426276   0.799   3.373   2.834  0.7144  0.3065  0.2063
   37MOL   H28526277   0.986   3.297   3.235 -0.2194 -1.3369  0.6361
   37MOL   H28626278   0.888   3.422   3.274  3.0181 -0.2010 -0.8422
   37MOL   H28726279   0.907   3.279   3.391  2.7207 -0.1730  0.0382
   37MOL   H28826280   0.664   3.219   3.405  0.2463  0.4981  0.2441
   37MOL   H28926281   0.566   3.253   3.261 -1.5714 -0.7226  1.4066
   37MOL   C29026282   7.631   3.964   3.625  0.1465  0.3402 -0.1545
   37MOL   C29126283   7.728   3.858   3.682 -0.4610  0.4924  0.1896
   37MOL   C29226284   0.091   3.847   3.618 -0.2057 -0.2456  0.1359
   37MOL   C29326285   0.098   3.795   3.470 -0.1169 -0.9692  0.7248
   37MOL   C29426286   0.238   3.815   3.413 -0.7474 -0.5712 -0.3405
   37MOL   C29526287   0.255   3.737   3.281 -0.2307 -0.1253  0.3401
   37MOL   C29626288   0.389   3.760   3.206 -0.0144 -0.0628  0.0095
   37MOL   C29726289   0.440   3.637   3.121 -0.1204 -0.0726  0.7197
   37MOL   O29826290   0.479   3.533   3.208  0.0425 -0.0188 -0.1716
   37MOL   C29926291   0.597   3.541   3.273 -0.0040  0.5762  0.4570
   37MOL   O30026292   0.683   3.621   3.246 -0.2469 -0.4756  0.6472
   37MOL   C30126293   0.614   3.429   3.385  0.2035  0.4814  0.7448
   37MOL   C30226294   0.484   3.414   3.465  0.2968  0.2019 -0.2350
   37MOL   C30326295   0.716   3.476   3.488 -0.2964 -0.6608 -0.0864
   37MOL   H30426296   7.653   3.987   3.520 -0.8469  0.9148 -0.2511
   37MOL   H30526297   7.624   4.060   3.678  1.5915  0.3487  0.0268
   37MOL   H30626298   7.528   3.928   3.621  0.0371  0.5927  0.3338
   37MOL   H30726299   7.690   3.756   3.673 -0.2261  0.4602 -0.4590
   37MOL   H30826300   7.746   3.868   3.789 -0.0280  1.7451  0.0064
   37MOL   H30926301   0.152   3.775   3.673 -0.1424 -0.7672 -0.6048
   37MOL   H31026302   0.141   3.941   3.638 -1.5952  0.5369  0.0166
   37MOL   H31126303   0.063   3.691   3.470 -1.5547 -0.5238 -1.6125
   37MOL   H31226304   0.030   3.848   3.403  1.2160 -1.6572 -1.2282
   37MOL   H31326305   0.248   3.923   3.398  0.0434 -0.6198 -0.1602
   37MOL   H31426306   0.317   3.785   3.481  0.7444  3.4716 -0.1493
   37MOL   H31526307   0.177   3.756   3.208  0.2923 -2.5713 -0.8768
   37MOL   H31626308   0.245   3.630   3.300  1.0113 -0.4541 -0.8215
   37MOL   H31726309   0.472   3.773   3.276 -0.5554  1.6252  0.3465
   37MOL   H31826310   0.390   3.853   3.150  0.9582 -0.2727 -0.3391
   37MOL   H31926311   0.522   3.668   3.056 -0.4423 -0.3234  0.1894
   37MOL   H32026312   0.368   3.595   3.050 -1.6844  2.7687  0.5366
   37MOL   H32126313   0.509   3.352   3.551 -1.6162  0.5627  0.5830
   37MOL   H32226314   0.416   3.350   3.409  0.4406 -0.4542  0.3325
   37MOL   H32326315   0.444   3.509   3.499 -0.6348  0.2673 -1.4743
   37MOL   H32426316   0.741   3.389   3.549 -2.1699  0.4958  2.4219
   37MOL   H32526317   0.807   3.504   3.435 -0.0136 -1.0121  0.2071
   37MOL   C32626318   0.569   2.662   4.119 -0.2907  0.1665 -0.5344
   37MOL   C32726319   0.515   2.681   3.976 -0.0434 -0.6145 -0.0306
   37MOL   C32826320   0.611   2.760   3.877  0.4386 -0.0663  0.2100
   37MOL   C32926321   0.606   2.908   3.907 -0.6682 -0.0469 -0.1562
   37MOL   C33026322   0.683   2.978   3.799 -0.2056  0.3585 -0.3796
   37MOL   C33126323   0.740   3.126   3.817 -0.0956 -0.7519 -0.3033
   37MOL   C33226324   0.629   3.228   3.852 -0.7462 -0.0390  0.1147
   37MOL   C33326325   0.672   3.368   3.897 -0.4482 -0.3148 -0.3817
   37MOL   O33426326   0.725   3.437   3.788  0.0382 -0.3854  0.0045
   37MOL   C33526327   0.645   3.531   3.728  0.3211 -0.6174  0.6350
   37MOL   O33626328   0.527   3.546   3.762  0.1598  0.0701  0.7245
   37MOL   C33726329   0.700   3.590   3.596  0.3143 -0.3386  0.1279
   37MOL   C33826330   0.843   3.626   3.632 -0.4805 -0.3657 -0.7369
   37MOL   C33926331   0.622   3.719   3.552 -1.1620 -0.5426  0.0773
   37MOL   H34026332   0.649   2.588   4.129 -1.2641 -0.9170 -0.7015
   37MOL   H34126333   0.486   2.642   4.186 -0.1996  0.9070 -0.1980
   37MOL   H34226334   0.609   2.753   4.163 -1.1362  0.8748 -1.2086
   37MOL   H34326335   0.422   2.733   3.999  0.5943 -0.0940  1.3783
   37MOL   H34426336   0.480   2.589   3.927  0.1271  0.0098 -1.3450
   37MOL   H34526337   0.580   2.736   3.775  2.4720 -1.5369 -0.0871
   37MOL   H34626338   0.711   2.721   3.894  0.0009  0.1622  3.5483
   37MOL   H34726339   0.655   2.929   4.003 -0.8530  0.6778 -0.2174
   37MOL   H34826340   0.502   2.937   3.921 -0.2974  0.4116  1.8604
   37MOL   H34926341   0.773   2.921   3.773 -0.3819  0.5670 -1.4577
   37MOL   H35026342   0.631   2.975   3.704  0.5594  1.7412 -0.8497
   37MOL   H35126343   0.809   3.128   3.900 -1.6094 -0.6178  0.9785
   37MOL   H35226344   0.787   3.161   3.725 -0.2295  0.3623  0.0538
   37MOL   H35326345   0.580   3.180   3.937  0.1060 -1.5810 -0.2381
   37MOL   H35426346   0.561   3.240   3.767  0.3442 -1.4529 -0.9968
   37MOL   H35526347   0.600   3.429   3.952  2.7728  2.1261  1.3172
   37MOL   H35626348   0.754   3.370   3.969 -0.9856  0.3504  0.2136
   37MOL   H35726349   0.900   3.662   3.546  0.8329  0.2564  0.3670
   37MOL   H35826350   0.853   3.700   3.711  2.9912 -0.9286 -0.5497
   37MOL   H35926351   0.909   3.543   3.658 -0.3931  0.3276  1.3307
   37MOL   H36026352   0.613   3.725   3.443  0.9952 -1.6371 -0.1781
   37MOL   H36126353   0.518   3.710   3.583 -0.7021 -0.7842  1.5497
   37MOL   C36226354   7.667   4.270   4.346 -0.2127 -0.4658 -0.5777
   37MOL   C36326355   0.026   4.246   4.282  0.0606 -0.4703  0.7480
   37MOL   C36426356   0.095   4.130   4.350 -0.1044  0.5017 -0.8208
   37MOL   C36526357   0.245   4.100   4.313  0.2513  0.0072 -0.0458
   37MOL   C36626358   0.259   4.062   4.167  0.2372  0.1361 -0.3835
   37MOL   C36726359   0.407   4.034   4.128 -0.8198 -0.1541 -0.1234
   37MOL   C36826360   0.419   3.993   3.981  0.5085 -0.2064 -0.0740
   37MOL   C36926361   0.559   3.950   3.943 -0.5987 -0.4990 -0.1768
   37MOL   O37026362   0.569   3.895   3.810 -0.2915 -0.4824  0.5018
   37MOL   C37126363   0.679   3.909   3.737  0.3463  0.6857 -0.9864
   37MOL   O37226364   0.789   3.935   3.780 -0.7443 -0.4227 -0.6517
   37MOL   C37326365   0.659   3.875   3.589  0.5249  0.5632 -0.0658
   37MOL   C37426366   0.536   3.968   3.546 -0.3887 -0.2224 -0.0400
   37MOL   C37526367   0.793   3.923   3.512  0.0019 -0.0356 -0.0045
   37MOL   H37626368   7.603   4.181   4.353  1.6733 -1.6413  3.0246
   37MOL   H37726369   7.677   4.303   4.450  0.8831 -3.4459  0.3193
   37MOL   H37826370   7.611   4.352   4.301  0.7415  0.7384  0.3951
   37MOL   H37926371   0.089   4.335   4.284 -0.1762 -0.2956  0.4184
   37MOL   H38026372   0.035   4.225   4.176 -0.3134  1.5963  0.2783
   37MOL   H38126373   0.040   4.040   4.323 -1.4736  1.4713 -1.3255
   37MOL   H38226374   0.089   4.136   4.459  2.2010  1.5729 -0.7344
   37MOL   H38326375   0.280   4.028   4.387  0.7396 -0.0885 -0.3661
   37MOL   H38426376   0.302   4.192   4.327  1.1912 -0.4324 -0.8992
   37MOL   H38526377   0.208   3.966   4.155  0.6527 -0.1495  0.1423
   37MOL   H38626378   0.205   4.135   4.106 -0.5530 -0.7207 -0.7150
   37MOL   H38726379   0.453   3.955   4.188 -0.5098 -0.3660 -0.6354
   37MOL   H38826380   0.461   4.126   4.152 -0.6098 -0.9368  2.5642
   37MOL   H38926381   0.391   4.073   3.912 -1.9253 -0.8060  0.2068
   37MOL   H39026382   0.352   3.909   3.967  0.9060 -0.5130 -0.1541
   37MOL   H39126383   0.616   4.043   3.942  0.0209 -0.8675  0.1134
   37MOL   H39226384   0.604   3.885   4.018 -1.8134 -2.4450 -1.0940
   37MOL   H39326385   0.528   3.941   3.441  2.7430 -0.4967 -0.2482
   37MOL   H39426386   0.440   3.955   3.596 -0.7242 -0.4318 -0.7398
   37MOL   H39526387   0.559   4.074   3.554  1.0091 -0.4520 -0.8105
   37MOL   H39626388   0.882   3.880   3.558  0.9778  2.8272  0.9230
   37MOL   H39726389   0.786   3.862   3.422 -1.0173 -0.5202  0.4054
   37MOL   C39826390   0.954   3.707   2.488  0.0621 -0.3046  0.0991
   37MOL   C39926391   0.944   3.780   2.616 -0.2178  0.3970  0.1867
   37MOL   C40026392   0.872   3.912   2.604  0.0763  0.6883  0.4470
   37MOL   C40126393   0.863   4.001   2.733 -0.4008 -0.0589 -0.5137
   37MOL   C40226394   0.767   3.941   2.843 -0.6537 -0.3305 -0.4875
   37MOL   C40326395   0.742   4.033   2.962 -0.4156  0.5849  0.5982
   37MOL   C40426396   0.630   3.985   3.048  0.2621 -0.2884 -0.8122
   37MOL   C40526397   0.620   4.062   3.177 -0.7412  0.2408  0.1334
   37MOL   O40626398   0.723   4.036   3.265  0.6114 -0.6187  0.8821
   37MOL   C40726399   0.744   4.116   3.372  0.5596  0.2388 -0.0017
   37MOL   O40826400   0.688   4.228   3.384  0.1700 -0.2782 -0.2417
   37MOL   C40926401   0.842   4.072   3.473 -0.4395 -0.3350 -0.4449
   37MOL   C41026402   0.854   4.165   3.597  0.5087  1.0054 -0.2974
   37MOL   C41126403   0.985   4.048   3.401 -0.1277 -0.5951 -0.4076
   37MOL   H41226404   0.852   3.692   2.450 -0.3336  0.8237  0.6823
   37MOL   H41326405   0.989   3.605   2.500  0.2694 -0.4760 -1.8510
   37MOL   H41426406   1.022   3.743   2.411 -0.5599 -1.8023 -1.1692
   37MOL   H41526407   1.046   3.800   2.649 -0.0349  0.3403 -0.3337
   37MOL   H41626408   0.889   3.727   2.694 -1.6442  2.7689  0.8471
   37MOL   H41726409   0.922   3.955   2.517  0.4336 -0.7170 -0.0563
   37MOL   H41826410   0.767   3.895   2.580  0.3494 -0.1353 -0.1615
   37MOL   H41926411   0.840   4.107   2.721  0.2162 -0.0165 -1.3659
   37MOL   H42026412   0.964   4.010   2.774 -0.0623  0.8060 -1.5235
   37MOL   H42126413   0.670   3.922   2.798 -0.7378 -1.6137  0.2137
   37MOL   H42226414   0.804   3.841   2.868  0.9664  0.2621 -0.4092
   37MOL   H42326415   0.733   4.139   2.937  2.2852  0.8031  0.4477
   37MOL   H42426416   0.836   4.026   3.016 -1.5000 -0.0508  2.4546
   37MOL   H42526417   0.542   3.988   2.984 -0.6911 -2.1712  0.3615
   37MOL   H42626418   0.665   3.886   3.079  2.6801  0.4962 -0.9821
   37MOL   H42726419   0.635   4.167   3.151  1.0068 -0.2587 -0.9308
   37MOL   H42826420   0.527   4.039   3.229  0.2357  2.4842  3.0309
   37MOL   H42926421   0.755   4.174   3.642  0.5311 -0.2145  0.0172
   37MOL   H43026422   0.881   4.270   3.586 -1.4956  1.8175  1.8906
   37MOL   H43126423   0.930   4.124   3.663  0.1063 -0.4443 -0.7266
   37MOL   H43226424   0.964   3.977   3.321  0.2200  0.6264 -1.5932
   37MOL   H43326425   1.046   4.001   3.478  0.7634 -0.4873 -1.0423
   37MOL   C43426426   1.276   4.144   4.352 -0.4719  0.6985  0.4591
   37MOL   C43526427   1.340   4.143   4.218 -0.6620 -0.5022 -0.0451
   37MOL   C43626428   1.268   4.062   4.113 -0.2465  0.0519 -0.7725
   37MOL   C43726429   1.146   4.136   4.065  0.1277  0.0212 -0.9717
   37MOL   C43826430   1.079   4.074   3.941 -0.3971 -0.3295  0.6093
   37MOL   C43926431   1.169   4.096   3.816 -0.1593 -0.6403  0.0299
   37MOL   C44026432   1.173   4.242   3.767 -0.8443 -0.7838 -0.1492
   37MOL   C44126433   1.257   4.254   3.643  0.4738  0.0860  0.3352
   37MOL   O44226434   1.190   4.183   3.536 -0.1880  0.1226 -0.1251
   37MOL   C44326435   1.132   4.258   3.437  0.6270  0.2637 -0.3895
   37MOL   O44426436   1.143   4.379   3.424  0.1665 -0.6647 -0.0384
   37MOL   C44526437   1.071   4.166   3.326  0.0791 -0.0604  0.0683
   37MOL   C44626438   0.988   4.259   3.238 -0.1972 -0.4636  0.4999
   37MOL   C44726439   1.183   4.078   3.259  0.3400  0.3418 -0.5727
   37MOL   H44826440   1.297   4.055   4.412 -0.4525 -0.3797 -1.1154
   37MOL   H44926441   1.170   4.167   4.347 -0.2872  1.3251 -0.8521
   37MOL   H45026442   1.322   4.229   4.401  0.5568  0.2195  0.3368
   37MOL   H45126443   1.443   4.107   4.224 -0.7313 -0.5153  1.3693
   37MOL   H45226444   1.354   4.240   4.170 -0.1486 -0.8673 -0.6356
   37MOL   H45326445   1.245   3.962   4.150  3.4384 -0.7107 -0.4360
   37MOL   H45426446   1.329   4.030   4.029 -1.7673  1.1661 -2.3407
   37MOL   H45526447   1.160   4.244   4.058  1.9206 -0.2474 -1.6468
   37MOL   H45626448   1.075   4.144   4.147 -2.5190 -2.2702 -2.9069
   37MOL   H45726449   1.060   3.967   3.949  1.1605 -0.6432  0.3082
   37MOL   H45826450   0.984   4.120   3.914  0.2195  0.7792  0.2587
   37MOL   H45926451   1.128   4.023   3.748 -1.2279  1.9170 -2.1603
   37MOL   H46026452   1.273   4.068   3.834  0.4249  1.7815  0.7549
   37MOL   H46126453   1.079   4.296   3.751 -2.2305 -3.0196  0.2358
   37MOL   H46226454   1.220   4.304   3.843  0.8503  0.1019 -1.8695
   37MOL   H46326455   1.347   4.195   3.660  0.9838  0.8973  0.4724
   37MOL   H46426456   1.291   4.354   3.617  1.8555 -0.5839 -0.5163
   37MOL   H46526457   0.910   4.308   3.295  0.8187 -1.4024  2.7782
   37MOL   H46626458   1.048   4.330   3.181 -0.0957 -1.2409 -0.3749
   37MOL   H46726459   0.935   4.211   3.156  1.5277  0.3477 -1.1368
   37MOL   H46826460   1.225   4.023   3.343 -1.2493 -0.2426 -0.1288
   37MOL   H46926461   1.136   3.998   3.201 -0.8816  0.1446  0.6732
   37MOL   C47026462   0.916   5.017   3.039 -0.2577 -0.0909  0.4016
   37MOL   C47126463   0.900   4.896   2.947 -0.2885  0.0408  0.3436
   37MOL   C47226464   1.017   4.881   2.849 -0.1878  0.8009  0.1870
   37MOL   C47326465   1.101   4.756   2.889 -0.8962 -0.4710 -0.0504
   37MOL   C47426466   1.158   4.756   3.026  0.2041 -0.0615 -0.0201
   37MOL   C47526467   1.237   4.631   3.060  0.7186 -0.1733 -0.0672
   37MOL   C47626468   1.248   4.598   3.205  0.3326 -0.6702  0.1667
   37MOL   C47726469   1.349   4.487   3.245 -0.8651  1.1480  1.0426
   37MOL   O47826470   1.313   4.366   3.181  0.6933 -0.3482 -0.2784
   37MOL   C47926471   1.369   4.256   3.220 -0.0561  0.2782  0.3009
   37MOL   O48026472   1.463   4.240   3.299  0.0915 -0.3546  0.4244
   37MOL   C48126473   1.288   4.136   3.157  1.2410  0.1298 -0.2093
   37MOL   C48226474   1.384   4.019   3.144 -0.0453  0.2987  0.2910
   37MOL   C48326475   1.226   4.166   3.015 -0.2655 -0.6881  0.5185
   37MOL   H48426476   0.916   5.110   2.982  1.5763 -0.9862 -1.1530
   37MOL   H48526477   0.999   5.008   3.109 -0.1186  0.4964  0.3181
   37MOL   H48626478   0.830   5.026   3.104  0.1087  2.5420  0.5788
   37MOL   H48726479   0.879   4.809   3.010 -1.5477 -0.2598 -0.4867
   37MOL   H48826480   0.808   4.889   2.889  0.1074 -0.8637 -0.1779
   37MOL   H48926481   0.983   4.859   2.748 -0.9682  0.6974  0.4660
   37MOL   H49026482   1.076   4.971   2.866 -0.5105  0.7988  1.3523
   37MOL   H49126483   1.045   4.664   2.871  0.5957 -0.6795 -4.4257
   37MOL   H49226484   1.188   4.753   2.822 -0.4104  0.7084  0.5240
   37MOL   H49326485   1.214   4.847   3.046 -1.3531  0.8843  0.0498
   37MOL   H49426486   1.073   4.768   3.092 -0.3550 -0.3046 -0.6918
   37MOL   H49526487   1.206   4.541   3.007 -2.1254  0.2119  0.8397
   37MOL   H49626488   1.340   4.648   3.031  1.5585 -0.0288  2.8655
   37MOL   H49726489   1.269   4.686   3.266  2.4986 -1.7322  1.0401
   37MOL   H49826490   1.146   4.572   3.234  0.6003 -2.3578 -0.3266
   37MOL   H49926491   1.363   4.466   3.351  2.9988  1.8439  0.7577
   37MOL   H50026492   1.447   4.519   3.209 -0.0713  0.0071  2.1527
   37MOL   H50126493   1.426   4.001   3.244  1.5342  1.4842 -0.1431
   37MOL   H50226494   1.474   4.038   3.086 -0.2897  0.5774  0.0009
   37MOL   H50326495   1.338   3.924   3.115  1.5440 -0.5480  0.4929
   37MOL   H50426496   1.147   4.092   2.999 -1.6135  0.8799 -0.2190
   37MOL   H50526497   1.156   4.246   3.041  0.2952  0.8599 -2.5634
   37MOL   C50626498   0.372   4.718   2.618  0.5631  0.7334 -0.5703
   37MOL   C50726499   0.511   4.732   2.554  0.0218  0.2097 -0.5384
   37MOL   C50826500   0.627   4.676   2.644 -0.5554 -0.4795  1.0412
   37MOL   C50926501   0.767   4.705   2.585  0.0281  0.4876  0.7562
   37MOL   C51026502   0.879   4.616   2.635  0.4954 -0.1593 -0.2383
   37MOL   C51126503   0.865   4.472   2.581 -0.8157  0.8857 -0.2730
   37MOL   C51226504   0.978   4.372   2.612 -0.0345 -0.9815  0.1703
   37MOL   C51326505   0.988   4.356   2.767 -0.6745  0.0655  0.1858
   37MOL   O51426506   1.087   4.262   2.803  0.4051  0.6803  0.0565
   37MOL   C51526507   1.220   4.295   2.811 -0.0165  0.1068  0.6156
   37MOL   O51626508   1.268   4.404   2.786  0.2161 -0.4108 -0.2655
   37MOL   C51726509   1.309   4.194   2.887 -0.0462  0.1661  0.6024
   37MOL   C51826510   1.442   4.255   2.910  0.2910 -0.0152  0.0695
   37MOL   C51926511   1.315   4.059   2.799  0.0224 -0.7735  0.2571
   37MOL   H52026512   0.285   4.734   2.554 -0.7935 -0.7680  0.8485
   37MOL   H52126513   0.353   4.796   2.693  0.9364  0.4792 -0.2095
   37MOL   H52226514   0.346   4.618   2.653  2.5391 -0.1540 -1.5789
   37MOL   H52326515   0.532   4.835   2.527 -2.6190  1.7580  2.9614
   37MOL   H52426516   0.510   4.673   2.462  2.9704 -1.0524  0.1706
   37MOL   H52526517   0.633   4.726   2.740  0.1741  2.0651 -0.2803
   37MOL   H52626518   0.610   4.577   2.686  4.9369 -1.8669  0.3897
   37MOL   H52726519   0.752   4.684   2.480  1.8132 -0.0017  0.5862
   37MOL   H52826520   0.800   4.806   2.610 -1.0260  0.9415  0.3244
   37MOL   H52926521   0.975   4.658   2.606  0.4393  1.2849  1.6288
   37MOL   H53026522   0.879   4.622   2.744 -2.6047 -1.8501 -0.0772
   37MOL   H53126523   0.853   4.486   2.474  2.0966  0.8626 -0.6497
   37MOL   H53226524   0.769   4.433   2.615 -1.0756  0.5463 -1.3816
   37MOL   H53326525   1.072   4.388   2.558 -1.2994 -0.2579 -1.8825
   37MOL   H53426526   0.945   4.277   2.571 -0.9866  0.1532 -1.7450
   37MOL   H53526527   0.893   4.327   2.812 -0.0377 -0.1814  1.3821
   37MOL   H53626528   1.008   4.455   2.809  2.8829 -0.9812  1.1358
   37MOL   H53726529   1.492   4.287   2.819  1.1774  1.2120  0.9698
   37MOL   H53826530   1.514   4.198   2.968 -1.1669  0.6089  2.5709
   37MOL   H53926531   1.427   4.346   2.969 -0.1037 -1.1357  1.7429
   37MOL   H54026532   1.330   3.978   2.870  2.8344  0.3126  0.9746
   37MOL   H54126533   1.214   4.032   2.766  0.3448 -2.3244  0.5150
   37MOL   C54226534   1.735   3.246   3.284  0.0212 -0.2903 -0.3831
   37MOL   C54326535   1.734   3.390   3.219 -0.6196  0.1612  0.0596
   37MOL   C54426536   1.633   3.483   3.286  0.6670  0.2582  0.3694
   37MOL   C54526537   1.648   3.628   3.235 -0.3441  0.2248  0.2302
   37MOL   C54626538   1.629   3.648   3.085 -0.3626 -0.6022 -0.1855
   37MOL   C54726539   1.629   3.793   3.044  0.3042 -0.1963 -1.0824
   37MOL   C54826540   1.724   3.810   2.924 -0.0501  0.6292 -0.1075
   37MOL   C54926541   1.716   3.950   2.860  0.4391  0.3935 -0.5081
   37MOL   O55026542   1.582   3.967   2.806  0.2949 -0.2422 -0.1709
   37MOL   C55126543   1.558   4.043   2.706 -0.0057  0.6677 -0.8163
   37MOL   O55226544   1.645   4.100   2.641  0.6116  0.2023  0.0534
   37MOL   C55326545   1.410   4.043   2.672  0.9688 -0.3165  0.3408
   37MOL   C55426546   1.370   4.158   2.569 -0.9501  0.9399 -0.2079
   37MOL   C55526547   1.378   3.896   2.618  0.3716 -0.3519 -0.4336
   37MOL   H55626548   1.820   3.185   3.254 -0.1133 -0.8700  0.3855
   37MOL   H55726549   1.640   3.195   3.266  0.2964 -0.7099 -0.6643
   37MOL   H55826550   1.742   3.249   3.393  0.5773 -0.9910 -0.3936
   37MOL   H55926551   1.832   3.432   3.242 -0.0771  0.2233 -2.2519
   37MOL   H56026552   1.728   3.392   3.110 -0.4356  1.9558  0.0714
   37MOL   H56126553   1.643   3.473   3.394 -1.0067 -0.4080  0.4783
   37MOL   H56226554   1.532   3.448   3.264  1.3866 -0.7296 -1.4378
   37MOL   H56326555   1.572   3.695   3.275 -0.9072 -2.1510  3.3655
   37MOL   H56426556   1.748   3.664   3.260  1.1566 -0.2596 -4.6014
   37MOL   H56526557   1.534   3.602   3.059 -0.6864 -0.3344  0.5098
   37MOL   H56626558   1.708   3.597   3.029  0.5024  1.2929 -0.7283
   37MOL   H56726559   1.527   3.818   3.015  0.8085  0.7004 -2.1010
   37MOL   H56826560   1.643   3.862   3.128 -1.0560 -2.0863  0.7744
   37MOL   H56926561   1.829   3.796   2.950  0.0512  2.7509  0.7061
   37MOL   H57026562   1.700   3.733   2.850  0.4742  1.0093 -0.6888
   37MOL   H57126563   1.782   3.946   2.774  1.4398  1.5284  0.2049
   37MOL   H57226564   1.735   4.030   2.931 -0.2180 -1.2998  1.6580
   37MOL   H57326565   1.447   4.172   2.493 -1.9259  0.4222 -1.3022
   37MOL   H57426566   1.358   4.257   2.613  1.2129  0.4111  1.7478
   37MOL   H57526567   1.278   4.134   2.517 -0.7780  0.1018 -0.1305
   37MOL   H57626568   1.269   3.899   2.607  0.3894  0.6283 -0.3930
   37MOL   H57726569   1.388   3.831   2.704 -0.6737 -0.4986 -0.4118
   37MOL   C57826570   0.888   4.617   1.973 -1.1726  0.0967 -0.3282
   37MOL   C57926571   1.017   4.534   1.988 -0.4508 -0.4562 -0.9087
   37MOL   C58026572   1.047   4.511   2.143 -0.8074  0.5234  0.1813
   37MOL   C58126573   1.149   4.392   2.162  0.5840 -0.0026  0.3750
   37MOL   C58226574   1.289   4.407   2.103  0.0736  0.5557  0.4959
   37MOL   C58326575   1.376   4.283   2.095 -0.0376 -0.1115 -0.1147
   37MOL   C58426576   1.393   4.203   2.228  0.8097  0.4314  0.4444
   37MOL   C58526577   1.454   4.062   2.206  0.6309  0.6078  0.1323
   37MOL   O58626578   1.476   3.996   2.328  0.0784 -0.3101 -0.2587
   37MOL   C58726579   1.393   3.896   2.357 -0.5939  0.0285  0.4698
   37MOL   O58826580   1.294   3.862   2.287 -0.9494  0.0961 -0.4250
   37MOL   C58926581   1.424   3.813   2.491  0.0352  0.5340  0.9425
   37MOL   C59026582   1.344   3.687   2.504 -0.3552  0.3900  0.4592
   37MOL   C59126583   1.582   3.787   2.501 -0.0360 -0.3158 -0.2896
   37MOL   H59226584   0.890   4.699   2.044 -1.9770 -0.0568 -0.1286
   37MOL   H59326585   0.798   4.560   1.997 -0.6945 -0.8242 -0.6679
   37MOL   H59426586   0.870   4.647   1.870  0.7842 -0.2034 -0.7865
   37MOL   H59526587   1.098   4.580   1.931  0.4455 -0.0529  0.6708
   37MOL   H59626588   1.003   4.438   1.938  0.0426 -0.5375 -0.8834
   37MOL   H59726589   0.951   4.483   2.186 -1.0332 -1.7681 -1.7260
   37MOL   H59826590   1.087   4.599   2.195  0.2403  0.9528 -1.3257
   37MOL   H59926591   1.104   4.295   2.143 -1.7349  1.0432  0.4590
   37MOL   H60026592   1.166   4.374   2.269  0.1234 -0.1666  0.4220
   37MOL   H60126593   1.348   4.478   2.161 -0.4636 -1.2543  3.3284
   37MOL   H60226594   1.288   4.458   2.006  0.1038  1.9989  1.2357
   37MOL   H60326595   1.470   4.295   2.041 -0.8447  1.8769 -1.1602
   37MOL   H60426596   1.327   4.215   2.026 -0.9721 -1.2379  1.6376
   37MOL   H60526597   1.294   4.183   2.268  0.4952  0.1538 -0.4634
   37MOL   H60626598   1.446   4.265   2.301 -1.8857  0.1780  2.6823
   37MOL   H60726599   1.391   4.012   2.132  1.2011 -0.5692  0.4247
   37MOL   H60826600   1.554   4.064   2.162  0.1960  0.9653 -0.8619
   37MOL   H60926601   1.351   3.626   2.414  0.5237 -0.5600  1.1710
   37MOL   H61026602   1.377   3.628   2.589 -0.8566  1.9810  1.8038
   37MOL   H61126603   1.238   3.707   2.520 -0.8862 -1.4682 -0.5784
   37MOL   H61226604   1.589   3.747   2.602 -1.2520 -0.2676 -0.1796
   37MOL   H61326605   1.629   3.885   2.503 -1.0839  0.1879 -0.2424
   37MOL   C61426606   2.235   2.894   2.730  0.3453 -0.5281 -0.3340
   37MOL   C61526607   2.177   3.020   2.790 -0.2744  0.0413  0.3924
   37MOL   C61626608   2.040   3.052   2.744 -0.2168 -0.1870  0.4241
   37MOL   C61726609   1.992   3.199   2.773 -0.4782  0.2973  0.0825
   37MOL   C61826610   1.848   3.233   2.742 -0.4931 -0.0779 -0.0587
   37MOL   C61926611   1.814   3.376   2.791  0.1809 -0.1049  0.4642
   37MOL   C62026612   1.655   3.401   2.780 -0.0795 -0.0569 -0.4091
   37MOL   C62126613   1.585   3.416   2.641  0.4771 -0.1300  0.0800
   37MOL   O62226614   1.647   3.526   2.584  0.3999  0.3150  0.5989
   37MOL   C62326615   1.626   3.543   2.454  0.5233  0.3821 -0.0819
   37MOL   O62426616   1.584   3.456   2.381 -0.0425 -0.2976 -0.0904
   37MOL   C62526617   1.654   3.685   2.409  0.4211  0.6346  0.4562
   37MOL   C62626618   1.609   3.702   2.260 -0.1506 -0.3237  0.0251
   37MOL   C62726619   1.812   3.715   2.420  0.0739  0.1736  0.2258
   37MOL   H62826620   2.246   2.894   2.621 -0.8792  1.8094 -0.4891
   37MOL   H62926621   2.166   2.810   2.742 -0.0332 -0.3251 -1.0531
   37MOL   H63026622   2.336   2.874   2.765  1.4450  2.8083 -1.4335
   37MOL   H63126623   2.180   3.004   2.898 -0.9567  2.5252  0.8195
   37MOL   H63226624   2.244   3.104   2.769  1.2667 -1.8858 -2.7317
   37MOL   H63326625   1.977   2.973   2.784 -0.9889 -0.6776 -1.6965
   37MOL   H63426626   2.029   3.038   2.637 -0.1973  0.9970  0.2648
   37MOL   H63526627   2.068   3.260   2.724  1.6735 -1.7973  0.6733
   37MOL   H63626628   2.018   3.217   2.878 -1.0684  0.7449  0.1542
   37MOL   H63726629   1.831   3.214   2.636  3.5093 -1.7060 -0.5041
   37MOL   H63826630   1.792   3.165   2.806  1.4853 -0.3513  1.4604
   37MOL   H63926631   1.861   3.392   2.887  1.2560 -1.6648  0.2148
   37MOL   H64026632   1.845   3.454   2.720 -0.7322  0.6650  0.9012
   37MOL   H64126633   1.635   3.491   2.839  0.2384  0.3092 -0.8508
   37MOL   H64226634   1.606   3.318   2.830  0.2208 -2.1914 -3.4961
   37MOL   H64326635   1.609   3.328   2.581  2.5239  0.3803  0.1081
   37MOL   H64426636   1.476   3.426   2.645  0.3103 -1.2585 -1.2270
   37MOL   H64526637   1.657   3.631   2.191  0.6479  0.3476 -0.1202
   37MOL   H64626638   1.640   3.801   2.226 -1.5542  0.6809  1.5863
   37MOL   H64726639   1.504   3.690   2.234 -0.0189 -2.8529  0.5055
   37MOL   H64826640   1.819   3.726   2.528 -1.5623 -0.9511  0.4592
   37MOL   H64926641   1.819   3.821   2.398  3.5618  0.2591  1.4918
   37MOL   C65026642   1.380   4.171   1.512 -0.6433 -0.4180  0.3940
   37MOL   C65126643   1.388   4.210   1.669 -0.3046 -0.0056  0.0235
   37MOL   C65226644   1.488   4.116   1.747 -0.2596 -0.0055 -0.1038
   37MOL   C65326645   1.629   4.152   1.726  0.0510 -0.0115  0.6509
   37MOL   C65426646   1.719   4.101   1.837 -0.0860 -0.2657  0.1968
   37MOL   C65526647   1.762   3.950   1.845  0.9348 -0.0649  0.2006
   37MOL   C65626648   1.805   3.912   1.985 -0.0843  0.3190  0.1943
   37MOL   C65726649   1.876   3.777   2.019 -0.2117 -0.8466  0.5691
   37MOL   O65826650   1.910   3.762   2.151 -0.3647 -0.6026 -0.0963
   37MOL   C65926651   1.912   3.639   2.204 -0.1908  0.1087  0.1722
   37MOL   O66026652   1.902   3.531   2.144  0.2187  0.2252  0.6300
   37MOL   C66126653   1.936   3.634   2.360  0.2128  0.1945  0.0234
   37MOL   C66226654   1.933   3.481   2.410  0.5157 -0.2117  0.7081
   37MOL   C66326655   2.077   3.697   2.389  0.8312  0.5973  0.4599
   37MOL   H66426656   1.314   4.236   1.455 -1.0877 -1.3915 -0.2156
   37MOL   H66526657   1.340   4.070   1.503  0.0302 -0.7972  1.5546
   37MOL   H66626658   1.479   4.184   1.468 -1.2306  0.3801 -0.7172
   37MOL   H66726659   1.291   4.193   1.716  1.2675 -1.3935  2.9079
   37MOL   H66826660   1.427   4.312   1.673  1.1142 -0.4294 -1.8415
   37MOL   H66926661   1.478   4.013   1.713 -0.5411  0.1063 -0.3577
   37MOL   H67026662   1.466   4.127   1.853 -0.6290  1.3442 -0.3170
   37MOL   H67126663   1.643   4.260   1.729 -0.5494  0.1481 -1.3416
   37MOL   H67226664   1.663   4.120   1.627  0.7523  1.3562  0.4507
   37MOL   H67326665   1.665   4.119   1.930  0.5355 -0.0432  0.5240
   37MOL   H67426666   1.808   4.164   1.847 -0.3655  0.0142  0.9109
   37MOL   H67526667   1.679   3.886   1.816  0.7804 -0.1039  0.7166
   37MOL   H67626668   1.832   3.932   1.763  2.1630  1.3332  0.9184
   37MOL   H67726669   1.725   3.929   2.057 -1.2953  1.7037 -1.4188
   37MOL   H67826670   1.886   3.980   2.012 -0.4674  1.1817 -0.7754
   37MOL   H67926671   1.971   3.773   1.967  0.0498 -0.4157  1.0131
   37MOL   H68026672   1.823   3.690   1.980 -3.6578  1.9864 -1.4148
   37MOL   H68126673   1.929   3.463   2.517 -0.7848 -0.9377  0.5523
   37MOL   H68226674   2.020   3.420   2.389 -0.0107 -0.1528 -1.8452
   37MOL   H68326675   1.849   3.423   2.372  0.6170  0.6493 -0.8921
   37MOL   H68426676   2.149   3.658   2.316  1.5190 -0.6669  1.7887
   37MOL   H68526677   2.066   3.800   2.357 -0.1448  0.3699  0.0275
   37MOL   C68626678   2.891   3.352   2.852 -1.0015 -0.4323  0.3217
   37MOL   C68726679   2.907   3.216   2.781 -0.5384  0.6029  0.4331
   37MOL   C68826680   2.856   3.221   2.638  0.5204  0.0150  0.3742
   37MOL   C68926681   2.706   3.218   2.637  0.1944  0.5390 -0.0363
   37MOL   C69026682   2.655   3.185   2.492  0.0101 -0.3993  0.5283
   37MOL   C69126683   2.500   3.178   2.479  0.8752 -0.4513  0.3991
   37MOL   C69226684   2.445   3.317   2.509 -0.0282 -1.3166 -0.4204
   37MOL   C69326685   2.294   3.336   2.482  0.0575 -0.5116  0.4692
   37MOL   O69426686   2.267   3.478   2.469  0.1684  0.4488 -0.0908
   37MOL   C69526687   2.190   3.546   2.564 -0.4780 -0.2638 -0.3383
   37MOL   O69626688   2.155   3.503   2.678  0.7539  0.1746 -0.0458
   37MOL   C69726689   2.142   3.688   2.526  0.0181 -0.1584 -0.0482
   37MOL   C69826690   2.054   3.743   2.643  0.1258 -0.3066  0.6172
   37MOL   C69926691   2.259   3.788   2.528 -0.1486 -0.5501 -0.1807
   37MOL   H70026692   2.882   3.342   2.960 -2.2418 -0.2667  0.2421
   37MOL   H70126693   2.802   3.400   2.810 -0.8295 -0.5677 -0.2083
   37MOL   H70226694   2.974   3.422   2.848 -1.5736  0.2911  0.8932
   37MOL   H70326695   2.851   3.137   2.832  0.3159 -0.1002  0.2970
   37MOL   H70426696   3.012   3.188   2.794 -0.7427 -0.4301 -0.0773
   37MOL   H70526697   2.899   3.138   2.582 -0.0745  0.2240 -0.4031
   37MOL   H70626698   2.885   3.309   2.581 -2.5618  0.5563 -0.4484
   37MOL   H70726699   2.659   3.307   2.680  0.4097  0.0172  1.3237
   37MOL   H70826700   2.683   3.130   2.698  1.2515 -0.2714 -0.7806
   37MOL   H70926701   2.688   3.085   2.464 -0.2814  0.1752 -2.0527
   37MOL   H71026702   2.706   3.253   2.425 -0.2856 -1.0437 -0.3676
   37MOL   H71126703   2.469   3.146   2.380 -1.4542  1.8543  0.3245
   37MOL   H71226704   2.446   3.116   2.551 -1.6093  0.3087 -0.7535
   37MOL   H71326705   2.465   3.350   2.611  0.7025 -1.6856 -0.4407
   37MOL   H71426706   2.492   3.391   2.445  1.1042  1.6413  3.6073
   37MOL   H71526707   2.242   3.294   2.568  0.7951 -0.4781  0.9334
   37MOL   H71626708   2.259   3.277   2.398  0.1836 -1.1624  0.8691
   37MOL   H71726709   2.111   3.767   2.733 -0.3200 -0.8456  1.0467
   37MOL   H71826710   2.005   3.839   2.629 -2.3848 -1.3298  1.9857
   37MOL   H71926711   1.977   3.672   2.672 -0.2869  0.0798  0.4706
   37MOL   H72026712   2.309   3.794   2.625 -2.1888 -0.2440  0.8814
   37MOL   H72126713   2.242   3.892   2.500 -0.4883 -0.0875  1.6624
   37MOL   H72226714   2.337   3.766   2.455 -1.2603 -0.1697 -1.5052
   38MOL     C126715   0.915   6.286   7.773 -0.1533  0.8862 -0.3400
   38MOL     C226716   1.026   6.189   0.032 -0.1882 -0.1396  0.2522
   38MOL     C326717   0.983   6.096   0.151 -0.2487 -0.9736 -0.3474
   38MOL     C426718   0.958   5.953   0.116 -0.0837  0.4336  0.1168
   38MOL     C526719   0.825   5.925   0.043 -0.6770  0.1224 -0.3061
   38MOL     C626720   0.822   5.781   7.760 -0.1428  0.9858  0.5849
   38MOL     C726721   0.695   5.750   7.692 -0.1688  0.0265  0.3984
   38MOL     C826722   0.692   5.603   7.652 -0.3692 -0.2614  0.1128
   38MOL     O926723   0.586   5.553   7.569  0.3165  0.1571  0.5041
   38MOL    C1026724   0.480   5.484   7.634  0.0002 -0.9127 -0.3384
   38MOL    O1126725   0.483   5.455   7.756 -0.2273 -0.2168 -0.3041
   38MOL    C1226726   0.368   5.433   7.540 -0.8234  0.1885  0.3540
   38MOL    C1326727   0.412   5.317   7.447 -0.1453 -0.1053  0.1541
   38MOL    C1426728   0.244   5.401   7.625  0.1339  0.4486  0.5571
   38MOL    H1526729   0.955   6.334   7.684 -0.1254 -0.7184 -1.2105
   38MOL    H1626730   0.896   6.363   0.069 -0.8543  0.4507 -0.0653
   38MOL    H1726731   0.822   6.236   7.747  0.7575 -0.1594 -1.6054
   38MOL    H1826732   1.119   6.237   0.061 -0.1590  0.1429 -0.2928
   38MOL    H1926733   1.039   6.120   7.728 -1.2231 -0.3626  0.2700
   38MOL    H2026734   1.055   6.092   0.232  0.4849  4.3946 -0.5160
   38MOL    H2126735   0.903   6.149   0.203  2.5506  1.8124  1.3354
   38MOL    H2226736   1.044   5.921   0.056  0.2869  1.6217 -0.0131
   38MOL    H2326737   0.963   5.895   0.208  0.5054  0.6291  0.2139
   38MOL    H2426738   0.828   5.999   7.743  1.3338  1.3625  0.8975
   38MOL    H2526739   0.735   5.945   0.102 -0.5831  0.7481 -0.3718
   38MOL    H2626740   0.849   5.706   0.055  0.5500  0.2246 -0.4198
   38MOL    H2726741   0.903   5.783   7.687  0.9569  0.4199  1.7713
   38MOL    H2826742   0.692   5.808   7.600  1.6654 -0.1430  0.2078
   38MOL    H2926743   0.613   5.762   7.762  0.1526  0.0281  0.7763
   38MOL    H3026744   0.711   5.533   7.734  0.0587 -0.3698 -0.0740
   38MOL    H3126745   0.784   5.587   7.595 -0.5297 -0.9653  0.0485
   38MOL    H3226746   0.519   5.319   7.426  0.2652 -3.3380  1.6337
   38MOL    H3326747   0.406   5.219   7.493 -0.0360  0.4623  1.4171
   38MOL    H3426748   0.355   5.307   7.355  2.0087 -1.5410 -1.0765
   38MOL    H3526749   0.234   5.482   7.697  0.6245  0.7256  0.3205
   38MOL    H3626750   0.258   5.314   7.688  1.5082 -1.3024 -2.0744
   38MOL    H3726751   0.352   5.513   7.467  1.2116 -0.2384 -0.6027
   38MOL    C3826752   0.113   4.956   6.486 -0.1142  0.2271  0.0011
   38MOL    C3926753   0.233   5.001   6.572  0.0024  0.5395  0.0445
   38MOL    C4026754   0.243   4.911   6.700 -0.5609  0.5211  0.7169
   38MOL    C4126755   0.145   4.946   6.813 -0.0743 -0.0503 -0.3195
   38MOL    C4226756   0.173   5.081   6.888 -0.3446  0.4042  0.0756
   38MOL    C4326757   0.089   5.093   7.010  0.1309  0.6833 -0.1360
   38MOL    C4426758   0.127   5.202   7.110 -0.7833 -0.8752  0.5627
   38MOL    C4526759   0.064   5.168   7.246  0.2530 -0.0994 -0.0714
   38MOL    O4626760   0.092   5.278   7.332  0.4118 -0.4425  0.1065
   38MOL    C4726761   0.098   5.260   7.471  0.6055  0.9943  0.0661
   38MOL    O4826762   0.096   5.157   7.534 -0.1538  0.1849  0.7556
   38MOL    C4926763   0.099   5.387   7.558 -0.4220  0.0735 -0.6833
   38MOL    C5026764   0.071   5.521   7.482 -0.1063  0.4472  0.4378
   38MOL    C5126765   7.777   5.370   7.683 -0.6624 -0.1362  0.2649
   38MOL    H5226766   0.016   4.984   6.526 -0.2204  1.2699 -0.9553
   38MOL    H5326767   0.123   4.848   6.476  1.2896  0.4309 -0.8241
   38MOL    H5426768   0.135   5.004   6.391  1.3002 -1.6405 -0.6481
   38MOL    H5526769   0.243   5.103   6.607 -2.1793  0.4874  0.9149
   38MOL    H5626770   0.328   4.969   6.528  0.8407  1.0106  1.4575
   38MOL    H5726771   0.227   4.805   6.679 -1.1345  0.5072  1.2030
   38MOL    H5826772   0.348   4.917   6.731 -0.5549 -1.8945  1.2715
   38MOL    H5926773   0.150   4.867   6.888  1.2840  0.1391 -0.1973
   38MOL    H6026774   0.045   4.943   6.771 -1.6987  1.1146  3.2879
   38MOL    H6126775   0.276   5.073   6.924 -0.3664  0.7878  0.2180
   38MOL    H6226776   0.170   5.165   6.819 -0.3545  1.0066  0.8013
   38MOL    H6326777   7.763   5.114   6.992 -0.7851 -3.2713 -0.0362
   38MOL    H6426778   0.099   5.000   7.065 -0.5457  0.2201 -0.7794
   38MOL    H6526779   0.104   5.305   7.083 -0.2828 -0.2681  2.4042
   38MOL    H6626780   0.235   5.205   7.122 -0.7734 -0.2377  0.3302
   38MOL    H6726781   0.100   5.068   7.271  1.2984  0.8086  2.1423
   38MOL    H6826782   7.734   5.164   7.239  0.3395  0.0149 -1.6028
   38MOL    H6926783   0.138   5.532   7.397 -2.1372  0.2699 -1.2141
   38MOL    H7026784   7.749   5.524   7.444  0.0165  3.7298  0.2130
   38MOL    H7126785   0.094   5.609   7.543  1.0505  0.1522  0.4490
   38MOL    H7226786   0.044   5.423   7.766 -1.3214 -1.7308  1.6975
   38MOL    H7326787   0.023   5.269   7.715 -0.7351 -0.8325 -1.8029
   38MOL    C7426788   0.515   6.194   0.240 -0.0373  0.1696 -0.2322
   38MOL    C7526789   0.414   6.118   0.144  0.0262  0.0783  0.1354
   38MOL    C7626790   0.414   5.968   0.162 -0.4766 -0.3656 -0.6213
   38MOL    C7726791   0.331   5.887   0.060  0.1163 -0.1955 -0.1667
   38MOL    C7826792   0.182   5.903   0.099 -0.3026 -0.0336  0.0370
   38MOL    C7926793   0.085   5.805   0.034  0.0463  0.1395 -0.0817
   38MOL    C8026794   7.722   5.829   0.077  0.0030  1.0096  0.1200
   38MOL    C8126795   7.612   5.750   7.776 -0.7689 -0.1409 -0.5412
   38MOL    O8226796   7.642   5.608   7.754  0.6140  0.0817 -0.1280
   38MOL    C8326797   7.586   5.530   7.662 -0.4722 -0.0845  0.6492
   38MOL    O8426798   7.516   5.577   7.567  0.5476 -0.5695  0.2317
   38MOL    C8526799   7.618   5.381   7.677 -0.3842  0.5635  0.3180
   38MOL    C8626800   7.569   5.286   7.558 -0.3861 -0.4302 -0.4298
   38MOL    C8726801   7.553   5.310   0.020  0.0391 -0.2909 -0.5532
   38MOL    H8826802   0.518   6.302   0.226  2.9484  0.0741 -0.6504
   38MOL    H8926803   0.614   6.153   0.220 -0.4937 -2.4321  2.4452
   38MOL    H9026804   0.487   6.171   0.343 -1.8011 -2.7546 -1.2983
   38MOL    H9126805   0.440   6.140   0.040  1.4783  3.6904  1.1991
   38MOL    H9226806   0.309   6.147   0.157 -0.5207 -1.2818 -1.0909
   38MOL    H9326807   0.516   5.931   0.156 -0.7100 -1.4097  1.1757
   38MOL    H9426808   0.394   5.940   0.266  1.1580  0.2283 -0.1372
   38MOL    H9526809   0.356   5.782   0.071  1.4224  0.2296  1.0217
   38MOL    H9626810   0.340   5.931   7.741 -3.5394 -2.2374 -1.5180
   38MOL    H9726811   0.167   5.902   0.207  1.0010  1.7138  0.2737
   38MOL    H9826812   0.164   6.004   0.062 -1.6461  0.0262  0.8217
   38MOL    H9926813   0.103   5.800   7.707 -2.4843  1.8300 -0.6359
   38MOL   H10026814   0.107   5.700   0.053 -2.2586 -0.4411 -0.4307
   38MOL   H10126815   7.703   5.808   0.182 -1.1874  1.3062 -0.0274
   38MOL   H10226816   7.714   5.937   0.070 -1.3809  0.9778  1.0041
   38MOL   H10326817   7.589   5.812   7.689 -0.0739  1.1692  0.1950
   38MOL   H10426818   7.520   5.753   0.055  1.1713 -0.8855  2.6117
   38MOL   H10526819   7.460   5.280   7.550 -0.5618 -0.0608  1.5601
   38MOL   H10626820   7.596   5.181   7.572 -0.0512 -0.3741 -0.6496
   38MOL   H10726821   7.602   5.324   7.461  0.3965 -0.0992 -0.0394
   38MOL   H10826822   7.452   5.283   7.771 -1.2244  3.0982  0.5041
   38MOL   H10926823   7.609   5.217   0.033  0.4497  0.0664  0.2548
   38MOL   C11026824   6.763   5.574   7.134  0.1953 -0.3610  0.0988
   38MOL   C11126825   6.795   5.527   7.277 -0.3005  1.1164  0.1296
   38MOL   C11226826   6.903   5.613   7.339  0.8362  0.4586  0.2353
   38MOL   C11326827   6.947   5.569   7.475  0.5012  0.1119  0.1803
   38MOL   C11426828   7.085   5.621   7.523 -0.3651  0.3581  0.1190
   38MOL   C11526829   7.129   5.562   7.656  0.7124  0.9003 -0.6614
   38MOL   C11626830   7.207   5.664   7.744 -0.3781  0.2852  0.3880
   38MOL   C11726831   7.251   5.622   0.105 -0.5162  0.1432  0.1515
   38MOL   O11826832   7.341   5.513   0.107 -0.4346  0.4659 -0.4158
   38MOL   C11926833   7.453   5.508   0.181  0.3425  0.1040 -0.7241
   38MOL   O12026834   7.481   5.600   0.257  0.4876 -0.2976  0.6548
   38MOL   C12126835   7.528   5.371   0.168 -0.1707 -0.3191 -0.4967
   38MOL   C12226836   7.666   5.388   0.227 -0.4181 -0.4813  0.2791
   38MOL   C12326837   7.452   5.255   0.235  0.2102 -0.0962 -0.3362
   38MOL   H12426838   6.677   5.533   7.080  0.3727  0.2707 -0.6814
   38MOL   H12526839   6.738   5.679   7.148  2.7392  0.2169  0.5386
   38MOL   H12626840   6.853   5.571   7.073  0.6296  2.9825  0.4621
   38MOL   H12726841   6.830   5.424   7.267 -0.8764  1.0247 -1.2028
   38MOL   H12826842   6.706   5.519   7.339 -0.0447 -0.8333  0.2985
   38MOL   H12926843   6.874   5.718   7.343  0.6000  0.4001  0.0359
   38MOL   H13026844   6.992   5.609   7.275  0.7437  0.8413  0.0831
   38MOL   H13126845   6.866   5.583   7.547  0.0873 -0.6317 -0.1387
   38MOL   H13226846   6.963   5.462   7.465 -0.0722  0.1183 -0.8038
   38MOL   H13326847   7.060   5.725   7.541 -0.2022  0.2792  0.8043
   38MOL   H13426848   7.172   5.598   7.461  0.3423  0.0752  1.1930
   38MOL   H13526849   7.032   5.545   7.702  1.9235  1.1710  2.0875
   38MOL   H13626850   7.183   5.468   7.645 -0.4148  0.3683 -1.7753
   38MOL   H13726851   7.156   5.759   7.763 -0.8290  0.4819 -1.7346
   38MOL   H13826852   7.298   5.697   7.695  0.5821 -1.2300  1.1278
   38MOL   H13926853   7.299   5.707   0.154  1.0923  0.4139 -1.8403
   38MOL   H14026854   7.157   5.618   0.160  0.1712  2.4229  1.5821
   38MOL   H14126855   7.728   5.299   0.217 -0.1218 -0.3600  1.0048
   38MOL   H14226856   7.716   5.468   0.173  0.4503  0.4566  2.4240
   38MOL   H14326857   7.672   5.426   0.329  0.1652 -0.8930  0.3988
   38MOL   H14426858   7.481   5.161   0.188 -1.2374 -0.2730 -0.8908
   38MOL   H14526859   7.346   5.272   0.218 -0.1245 -0.0768  1.6221
   38MOL   C14626860   0.711   5.286   0.486 -0.3406  0.4445 -0.2084
   38MOL   C14726861   0.568   5.309   0.445  0.2666 -0.1193  0.3081
   38MOL   C14826862   0.488   5.202   0.375  0.5551 -0.0706  0.8341
   38MOL   C14926863   0.384   5.257   0.274 -0.4638 -1.2739  0.4827
   38MOL   C15026864   0.285   5.147   0.235  0.4261  0.6443  0.6392
   38MOL   C15126865   0.165   5.113   0.325  0.0569 -0.1286 -0.1129
   38MOL   C15226866   0.077   5.010   0.261  0.0724  0.3741 -0.7441
   38MOL   C15326867   7.739   4.961   0.344  0.1284  0.4360  0.1692
   38MOL   O15426868   7.621   5.039   0.327  0.2916 -0.5540  0.0323
   38MOL   C15526869   7.591   5.145   0.407  0.1218 -0.2312  0.5566
   38MOL   O15626870   7.673   5.193   0.488 -0.2313  0.0818  0.2326
   38MOL   C15726871   7.454   5.217   0.379 -0.2984 -0.0710 -0.0046
   38MOL   C15826872   7.442   5.337   0.475 -0.1317  0.4500  0.1300
   38MOL   C15926873   7.331   5.109   0.398  0.5229  0.1121  0.2510
   38MOL   H16026874   0.769   5.255   0.399  0.5521  0.6377  0.3114
   38MOL   H16126875   0.727   5.218   0.571  0.9031  0.0690 -0.7363
   38MOL   H16226876   0.754   5.379   0.521  0.0513  0.7213 -1.4206
   38MOL   H16326877   0.517   5.344   0.535 -0.6082  1.8393 -0.8993
   38MOL   H16426878   0.558   5.402   0.388 -2.0599  1.1176  2.6302
   38MOL   H16526879   0.437   5.141   0.449  2.2731 -1.3335  1.0112
   38MOL   H16626880   0.549   5.131   0.318  0.2669  0.7980 -0.5994
   38MOL   H16726881   0.333   5.347   0.309 -1.6633 -0.2392 -3.6683
   38MOL   H16826882   0.443   5.303   0.195 -0.4233  0.7356  1.6391
   38MOL   H16926883   0.344   5.058   0.210 -0.2222  0.5932 -0.7673
   38MOL   H17026884   0.249   5.186   0.140 -0.5162 -0.2722  0.6086
   38MOL   H17126885   0.118   5.207   0.355 -2.2369 -0.1778 -3.2226
   38MOL   H17226886   0.211   5.070   0.413  2.5265 -0.2086 -1.4024
   38MOL   H17326887   0.032   5.056   0.173  2.3316 -0.4425 -2.3925
   38MOL   H17426888   0.136   4.926   0.225 -0.9478 -0.1994 -1.0873
   38MOL   H17526889   7.713   4.864   0.302  0.1584  1.6158 -2.7054
   38MOL   H17626890   7.762   4.946   0.450 -0.4800  0.3463  0.2865
   38MOL   H17726891   7.433   5.319   0.582 -1.4976 -3.1754 -0.5419
   38MOL   H17826892   7.355   5.390   0.437 -0.9490 -0.9487  0.0225
   38MOL   H17926893   7.522   5.409   0.458  0.9081 -0.9924 -1.1437
   38MOL   H18026894   7.351   5.025   0.331 -1.4064  0.1136 -0.3896
   38MOL   H18126895   7.240   5.147   0.352  0.8180  0.2245 -0.2389
   38MOL   C18226896   7.378   4.654   1.053 -0.4672 -0.0556 -0.1548
   38MOL   C18326897   7.319   4.753   1.156 -0.4977 -0.3785 -0.3563
   38MOL   C18426898   7.365   4.902   1.135 -0.6476 -0.0557  0.6039
   38MOL   C18526899   7.281   4.996   1.227 -0.4289  0.1610 -1.8005
   38MOL   C18626900   7.300   5.140   1.189 -0.1256  0.1500  0.1651
   38MOL   C18726901   7.283   5.182   1.036 -0.6723 -0.5563 -0.4152
   38MOL   C18826902   7.141   5.171   0.986 -0.2422  0.1334  0.6883
   38MOL   C18926903   7.131   5.211   0.838  0.4810  0.0699  0.4231
   38MOL   O19026904   7.206   5.125   0.754 -0.0808 -0.7649  0.4345
   38MOL   C19126905   7.215   5.153   0.625 -0.5751 -1.1673  0.2591
   38MOL   O19226906   7.175   5.254   0.575  0.5903 -0.2669 -0.1385
   38MOL   C19326907   7.289   5.048   0.537  0.1349  0.4773 -0.2018
   38MOL   C19426908   7.418   4.991   0.607 -0.0280 -0.6429 -0.3843
   38MOL   C19526909   7.179   4.941   0.502 -0.5139  0.3386  0.6737
   38MOL   H19626910   7.326   4.558   1.063 -0.4179 -0.2642 -1.7264
   38MOL   H19726911   7.373   4.685   0.949  0.2296  0.3618 -0.0659
   38MOL   H19826912   7.486   4.646   1.068 -0.2711  1.8851 -0.4716
   38MOL   H19926913   7.336   4.720   1.258  0.6408  0.7355 -0.1880
   38MOL   H20026914   7.211   4.755   1.141 -0.3345  1.5486 -1.4895
   38MOL   H20126915   7.469   4.929   1.153 -0.4436  0.2941 -1.0673
   38MOL   H20226916   7.348   4.906   1.028 -2.7526 -1.4828  0.8449
   38MOL   H20326917   7.175   4.979   1.210 -0.6799  0.4541 -0.5539
   38MOL   H20426918   7.308   4.977   1.331  0.1537  0.3364 -1.9172
   38MOL   H20526919   7.400   5.178   1.212 -0.7106 -0.0654  3.2336
   38MOL   H20626920   7.229   5.207   1.239  1.0041  0.8874  0.8141
   38MOL   H20726921   7.359   5.133   0.974  0.7723  2.7849 -1.4051
   38MOL   H20826922   7.319   5.285   1.029  0.7985 -1.1118 -1.3672
   38MOL   H20926923   7.108   5.067   0.998 -1.8301  0.4863 -0.3233
   38MOL   H21026924   7.083   5.243   1.043  1.3011  1.1020  1.0228
   38MOL   H21126925   7.163   5.315   0.828  2.4762 -0.4400  1.3100
   38MOL   H21226926   7.022   5.205   0.830  0.5273 -0.4921  0.2253
   38MOL   H21326927   7.493   5.069   0.619 -0.9303  0.0752  0.6303
   38MOL   H21426928   7.397   4.946   0.704 -0.0982  1.2556  0.5006
   38MOL   H21526929   7.466   4.904   0.562  1.1997  0.9632 -2.2899
   38MOL   H21626930   7.120   4.982   0.420  2.6393  2.1305 -0.7932
   38MOL   H21726931   7.233   4.861   0.451 -1.0568 -0.3868  1.2229
   38MOL   C21826932   6.456   5.772   0.866 -0.0591  0.2171 -0.2608
   38MOL   C21926933   6.549   5.809   0.750 -0.0008 -0.3693 -0.2484
   38MOL   C22026934   6.672   5.711   0.735  0.2410  0.4051  0.1341
   38MOL   C22126935   6.636   5.564   0.711 -1.1302  0.4472  0.4631
   38MOL   C22226936   6.754   5.487   0.651  0.1191  0.4488 -0.1009
   38MOL   C22326937   6.715   5.344   0.605 -0.2574 -0.4154  0.3340
   38MOL   C22426938   6.832   5.250   0.609 -0.1676  0.1577  0.2717
   38MOL   C22526939   6.804   5.107   0.557 -0.0780  0.0914  0.0916
   38MOL   O22626940   6.927   5.036   0.549 -0.1027 -0.1028  0.5360
   38MOL   C22726941   6.966   4.952   0.645  0.7073  0.8514  0.6895
   38MOL   O22826942   6.913   4.943   0.754  0.7214  0.1466  0.1813
   38MOL   C22926943   7.085   4.856   0.599  1.4261 -0.4050 -0.6379
   38MOL   C23026944   7.162   4.804   0.723 -0.8665  0.7242  0.0976
   38MOL   C23126945   7.032   4.737   0.498 -0.3466  0.5034  0.1692
   38MOL   H23226946   6.500   5.712   0.945 -3.1764 -2.3326 -0.3625
   38MOL   H23326947   6.371   5.714   0.828 -0.8386  2.3372 -1.8469
   38MOL   H23426948   6.418   5.862   0.913 -0.5303 -0.0269 -0.1678
   38MOL   H23526949   6.581   5.912   0.766  0.3819 -0.7953  1.7731
   38MOL   H23626950   6.485   5.791   0.663  0.8405 -2.5029 -0.4494
   38MOL   H23726951   6.733   5.743   0.651 -2.0960  2.4202 -0.8774
   38MOL   H23826952   6.723   5.718   0.831 -1.3498  1.2453  0.9412
   38MOL   H23926953   6.590   5.518   0.798 -1.9635 -0.9253 -0.6742
   38MOL   H24026954   6.558   5.549   0.636  0.5140  1.2038 -1.4507
   38MOL   H24126955   6.793   5.554   0.574  0.5362 -0.8650 -1.0488
   38MOL   H24226956   6.830   5.476   0.728 -0.0535  2.0081  0.3082
   38MOL   H24326957   6.633   5.308   0.667  0.1871  0.4631  1.4325
   38MOL   H24426958   6.687   5.327   0.501 -0.4399 -1.0034  0.4742
   38MOL   H24526959   6.855   5.235   0.714  2.2073  1.4208 -0.0432
   38MOL   H24626960   6.919   5.286   0.554 -0.3780  0.2984  0.0253
   38MOL   H24726961   6.760   5.108   0.457  0.3591 -2.8109 -0.1856
   38MOL   H24826962   6.723   5.048   0.598 -1.2045  1.9913  0.6409
   38MOL   H24926963   7.259   4.768   0.689  0.0287  1.8666  1.3845
   38MOL   H25026964   7.108   4.733   0.785  0.1338 -1.0964 -1.1041
   38MOL   H25126965   7.173   4.878   0.803  0.9361  0.5565  0.0188
   38MOL   H25226966   7.038   4.763   0.393 -0.5240  0.8478  0.2440
   38MOL   H25326967   7.108   4.662   0.522 -1.5968 -0.3340  1.6084
   38MOL   C25426968   6.316   4.298   7.546 -0.1016 -0.2939 -0.1924
   38MOL   C25526969   6.464   4.313   7.583  0.2549 -0.1973  0.0907
   38MOL   C25626970   6.497   4.464   7.614  0.2414  0.4380 -0.3700
   38MOL   C25726971   6.634   4.478   7.686  0.2226 -0.1715 -0.4057
   38MOL   C25826972   6.668   4.627   7.706 -0.0467  0.0065 -0.4305
   38MOL   C25926973   6.638   4.676   0.067 -0.1485 -0.0320  0.1881
   38MOL   C26026974   6.696   4.814   0.107  0.3447 -0.0977  0.8332
   38MOL   C26126975   6.694   4.839   0.262  0.3650 -0.4544  0.4728
   38MOL   O26226976   6.797   4.769   0.330 -0.4830 -0.1544  0.1520
   38MOL   C26326977   6.781   4.744   0.461  0.6195 -0.2053 -0.1090
   38MOL   O26426978   6.684   4.780   0.527  0.7486  0.0312  0.3474
   38MOL   C26526979   6.893   4.655   0.515 -0.0163 -0.2515 -0.3580
   38MOL   C26626980   6.889   4.615   0.663 -0.0400  0.4400  0.0076
   38MOL   C26726981   6.909   4.529   0.420  0.9331  0.3174  0.9060
   38MOL   H26826982   6.252   4.358   7.611  1.1870  1.4531 -0.5089
   38MOL   H26926983   6.302   4.338   7.445  4.3989  1.5460 -0.2153
   38MOL   H27026984   6.285   4.194   7.551 -2.4030  0.4565  1.9779
   38MOL   H27126985   6.484   4.248   7.668  0.5362 -0.5792 -0.2618
   38MOL   H27226986   6.523   4.273   7.500 -1.8647 -1.0236 -1.0490
   38MOL   H27326987   6.413   4.514   7.663 -0.8916  0.0825 -1.9117
   38MOL   H27426988   6.515   4.513   7.518  4.0140 -1.5201 -0.7241
   38MOL   H27526989   6.704   4.415   7.631  1.8678  1.3327 -0.0826
   38MOL   H27626990   6.634   4.438   0.008 -1.2904 -0.1010 -0.3698
   38MOL   H27726991   6.775   4.636   7.687 -0.1922  2.3145 -0.3034
   38MOL   H27826992   6.618   4.685   7.629 -0.0473 -1.4234 -1.5401
   38MOL   H27926993   6.667   4.602   0.141 -1.0649 -0.2768  0.3080
   38MOL   H28026994   6.529   4.678   0.077 -0.1040  1.1708  0.4210
   38MOL   H28126995   6.791   4.827   0.055  0.9596  1.2381  2.2062
   38MOL   H28226996   6.626   4.886   0.065 -0.8143 -1.3088  0.6784
   38MOL   H28326997   6.724   4.942   0.280  0.5313 -0.5079  0.5038
   38MOL   H28426998   6.592   4.817   0.292  0.5395 -2.1802 -0.1424
   38MOL   H28526999   6.896   4.698   0.734 -0.3615 -1.2494  2.0860
   38MOL   H28627000   6.808   4.549   0.693  1.2655 -1.5717 -0.8011
   38MOL   H28727001   6.981   4.558   0.674  0.3274  1.2230  1.1109
   38MOL   H28827002   7.005   4.478   0.423 -0.1483 -1.9898 -1.3030
   38MOL   H28927003   6.901   4.562   0.316  0.0300 -0.3566  0.7501
   38MOL   C29027004   6.834   3.721   0.026  0.3787 -1.0353 -0.1000
   38MOL   C29127005   6.905   3.662   0.140  0.0064 -0.1259 -0.0407
   38MOL   C29227006   6.827   3.658   0.271 -0.6209 -0.5805 -0.5621
   38MOL   C29327007   6.820   3.803   0.331 -0.2075 -0.5458 -0.7028
   38MOL   C29427008   6.730   3.798   0.448 -0.2041  0.1816 -0.0729
   38MOL   C29527009   6.718   3.932   0.513  0.1160  0.7536  0.1038
   38MOL   C29627010   6.819   3.995   0.614  0.2364 -0.6184  0.3207
   38MOL   C29727011   6.770   4.131   0.675 -0.1395 -0.4139 -0.8734
   38MOL   O29827012   6.754   4.232   0.571  0.4927 -0.3806 -0.4143
   38MOL   C29927013   6.853   4.318   0.547  0.3503  0.5253  0.4348
   38MOL   O30027014   6.966   4.309   0.593  0.1639 -0.2142 -0.2252
   38MOL   C30127015   6.816   4.412   0.431  0.2221  0.3545  0.5063
   38MOL   C30227016   6.668   4.454   0.450  0.0319 -0.4825 -0.2992
   38MOL   C30327017   6.817   4.326   0.295 -0.4044  0.5082  0.9866
   38MOL   H30427018   6.836   3.830   0.027  0.5063 -1.0468  1.2915
   38MOL   H30527019   6.730   3.689   0.034 -0.1439  0.7843  0.5946
   38MOL   H30627020   6.847   3.682   7.705  2.6414 -0.3274 -0.1084
   38MOL   H30727021   7.007   3.698   0.155  1.2382 -2.7781 -1.6535
   38MOL   H30827022   6.926   3.557   0.123 -1.9465 -0.9492  2.4624
   38MOL   H30927023   6.868   3.613   0.362  0.7983  1.9020  0.0747
   38MOL   H31027024   6.724   3.627   0.260 -1.1161  0.6810  0.3304
   38MOL   H31127025   6.919   3.846   0.347 -0.4070 -0.4754  0.3873
   38MOL   H31227026   6.773   3.868   0.257  0.6615 -1.1564 -1.8182
   38MOL   H31327027   6.638   3.760   0.404 -0.0738  0.3234 -0.4733
   38MOL   H31427028   6.755   3.720   0.520 -1.4448 -1.0604 -0.9566
   38MOL   H31527029   6.631   3.928   0.580  1.2366  0.3700  1.5546
   38MOL   H31627030   6.683   4.002   0.437 -1.2158  1.0435  0.9455
   38MOL   H31727031   6.913   4.024   0.566  0.3420  1.0069  1.4958
   38MOL   H31827032   6.862   3.929   0.689  1.3377  0.1117  0.3481
   38MOL   H31927033   6.842   4.164   0.750  1.5613 -2.6974 -1.4241
   38MOL   H32027034   6.674   4.117   0.723  0.4160 -0.8298  0.1361
   38MOL   H32127035   6.593   4.376   0.442  1.3915 -2.1263  2.3983
   38MOL   H32227036   6.637   4.527   0.374  1.0092 -0.2435 -0.4721
   38MOL   H32327037   6.642   4.500   0.545 -3.2267  1.1086 -1.8424
   38MOL   H32427038   6.765   4.235   0.327 -0.3278  0.4158  0.8487
   38MOL   H32527039   6.740   4.368   0.230  0.1003  1.7118  1.1674
   38MOL   C32627040   6.829   3.763   6.909 -0.5185 -0.6622 -0.1571
   38MOL   C32727041   6.950   3.860   6.924 -0.0940 -0.1723 -0.1892
   38MOL   C32827042   7.006   3.862   7.069 -0.2174 -0.3983 -0.5454
   38MOL   C32927043   6.913   3.925   7.168 -1.0425  0.6327 -0.1305
   38MOL   C33027044   6.975   3.955   7.304  0.4513  0.5062 -0.2285
   38MOL   C33127045   6.879   4.047   7.392 -0.1669 -0.4375 -0.4769
   38MOL   C33227046   6.944   4.077   7.530 -0.5746 -0.1662  0.0214
   38MOL   C33327047   6.859   4.165   7.620 -0.2722  0.1981  0.3779
   38MOL   O33427048   6.932   4.211   7.729 -0.1205  0.1604 -0.2376
   38MOL   C33527049   6.881   4.189   0.085 -0.1483 -0.3107  0.5041
   38MOL   O33627050   6.785   4.107   0.099 -0.1495 -0.1517 -0.1443
   38MOL   C33727051   6.937   4.278   0.199  0.6789 -0.3091  0.2944
   38MOL   C33827052   7.002   4.397   0.143 -0.1860  0.1105  0.1830
   38MOL   C33927053   7.050   4.201   0.268  0.8475 -0.4055 -0.1634
   38MOL   H34027054   6.767   3.789   6.823 -0.6427  2.0622  0.7146
   38MOL   H34127055   6.761   3.760   6.994 -0.1005  1.7407  0.2978
   38MOL   H34227056   6.859   3.659   6.900  1.4133 -0.1183 -0.1302
   38MOL   H34327057   6.918   3.959   6.891  1.7246  0.5685  0.1828
   38MOL   H34427058   7.044   3.839   6.873  0.7430 -1.6658  1.9223
   38MOL   H34527059   7.098   3.920   7.060 -0.7782  0.5524 -0.2802
   38MOL   H34627060   7.033   3.763   7.106  0.8472  0.2499  0.4684
   38MOL   H34727061   6.837   3.848   7.182 -0.5976  0.0442 -0.8868
   38MOL   H34827062   6.872   4.016   7.122 -1.7410 -0.8472 -2.5366
   38MOL   H34927063   6.987   3.862   7.358  0.1107  0.7814  0.3221
   38MOL   H35027064   7.076   3.995   7.302  0.4342  0.6922  1.7500
   38MOL   H35127065   6.850   4.136   7.336 -1.2699  0.6592  1.7700
   38MOL   H35227066   6.787   3.998   7.423  0.8235 -0.7963  2.0870
   38MOL   H35327067   7.041   4.126   7.521 -0.0787 -0.8655  1.3311
   38MOL   H35427068   6.963   3.981   7.579 -0.3500  0.9928  2.2679
   38MOL   H35527069   6.829   4.247   7.554 -0.6012 -0.2642 -0.0443
   38MOL   H35627070   6.773   4.104   7.645 -1.1775  0.8338 -1.1535
   38MOL   H35727071   7.069   4.448   0.212  1.0571  0.6398 -1.3953
   38MOL   H35827072   7.061   4.368   0.057 -2.6297 -0.3081 -1.4066
   38MOL   H35927073   6.928   4.458   0.092 -1.7075 -3.3085 -1.9336
   38MOL   H36027074   7.090   4.280   0.333 -2.0028  1.2839 -0.3697
   38MOL   H36127075   6.997   4.144   0.344  0.1386  2.0114  1.2266
   38MOL   C36227076   0.052   4.717   0.740 -0.8211  0.2584 -0.9145
   38MOL   C36327077   0.023   4.607   0.630 -0.4185  0.9753  0.0715
   38MOL   C36427078   7.656   4.567   0.640 -0.3659  0.0590  0.1801
   38MOL   C36527079   7.613   4.460   0.541  0.3830  0.1806  0.0524
   38MOL   C36627080   7.594   4.513   0.403 -0.1412 -0.3429  0.4091
   38MOL   C36727081   7.531   4.409   0.306 -0.2725 -0.0507 -0.0848
   38MOL   C36827082   7.489   4.467   0.166  0.5357 -0.2111 -0.0286
   38MOL   C36927083   7.425   4.354   0.078  0.4436 -0.2265 -0.4418
   38MOL   O37027084   7.316   4.295   0.151  0.2876 -0.3937  0.0935
   38MOL   C37127085   7.249   4.201   0.098  0.8638  0.3523 -0.1966
   38MOL   O37227086   7.239   4.186   7.756  0.3026 -0.6889 -0.2879
   38MOL   C37327087   7.171   4.116   0.208 -0.0127 -0.5590 -0.4791
   38MOL   C37427088   7.108   3.987   0.130 -0.0849 -0.1077  0.0779
   38MOL   C37527089   7.257   4.079   0.339  1.0773 -0.0254 -0.2730
   38MOL   H37627090   0.159   4.722   0.757 -1.0217 -0.4382  0.5745
   38MOL   H37727091   0.026   4.815   0.699 -0.7149  0.0528 -1.4730
   38MOL   H37827092   0.002   4.691   0.833  0.2955  0.7939 -0.1620
   38MOL   H37927093   0.081   4.521   0.664 -1.2695 -0.9407 -3.1052
   38MOL   H38027094   0.043   4.634   0.526 -1.7467 -0.3539 -0.5514
   38MOL   H38127095   7.587   4.651   0.639 -1.4031 -0.7656  0.8029
   38MOL   H38227096   7.643   4.534   0.743 -3.2623 -0.3430 -0.2729
   38MOL   H38327097   7.523   4.407   0.570 -0.0064  0.8314  0.0441
   38MOL   H38427098   7.686   4.379   0.545  2.0535  1.6318 -0.2068
   38MOL   H38527099   7.527   4.598   0.415  0.6614  0.2922  0.3990
   38MOL   H38627100   7.682   4.560   0.361  0.7534 -1.8022  0.6027
   38MOL   H38727101   7.435   4.378   0.347  0.2010 -0.3267  0.8188
   38MOL   H38827102   7.599   4.324   0.310 -1.2242 -0.8128  0.1851
   38MOL   H38927103   7.563   4.518   0.104 -0.3424  0.2829 -0.6741
   38MOL   H39027104   7.413   4.540   0.196  0.7259  0.0442 -0.1681
   38MOL   H39127105   7.382   4.393   7.765 -0.9997  1.1546  0.7996
   38MOL   H39227106   7.495   4.271   0.065 -1.2633 -2.1253  2.0724
   38MOL   H39327107   7.083   3.999   0.025  0.6140  0.0820 -0.0683
   38MOL   H39427108   7.184   3.909   0.134  1.4179  1.2810 -0.8402
   38MOL   H39527109   7.022   3.943   0.181  0.7389 -2.0214 -0.1615
   38MOL   H39627110   7.294   4.178   0.364  1.0590 -0.2625  0.6907
   38MOL   H39727111   7.189   4.069   0.424 -2.8727  1.8860 -3.0359
   38MOL   C39827112   6.539   3.533   1.007 -0.0276 -0.1717  0.0633
   38MOL   C39927113   6.648   3.519   0.905  0.1189 -0.4187  0.4839
   38MOL   C40027114   6.781   3.478   0.953 -1.2039  0.5011  0.0200
   38MOL   C40127115   6.887   3.465   0.841  0.0951  0.2552  0.2139
   38MOL   C40227116   6.924   3.593   0.770 -0.7516 -1.2415 -0.4461
   38MOL   C40327117   7.018   3.569   0.646  0.2940  0.3586 -0.2528
   38MOL   C40427118   7.084   3.705   0.610  0.5075  0.1845  0.4457
   38MOL   C40527119   7.177   3.690   0.491 -0.3284 -0.1395  0.4815
   38MOL   O40627120   7.227   3.816   0.452  0.4623  0.3144 -0.3669
   38MOL   C40727121   7.319   3.829   0.356  0.2132 -0.8383 -0.0482
   38MOL   O40827122   7.364   3.740   0.285 -0.5950  0.6715 -0.1177
   38MOL   C40927123   7.374   3.974   0.349  0.0402  0.0189  0.3260
   38MOL   C41027124   7.466   3.989   0.218 -0.7030 -0.8612 -0.0059
   38MOL   C41127125   7.457   4.007   0.481 -0.1441  0.4936 -0.4962
   38MOL   H41227126   6.569   3.598   1.090 -1.8284  1.1778 -0.3174
   38MOL   H41327127   6.512   3.444   1.065  3.2274  0.0784  2.1483
   38MOL   H41427128   6.461   3.588   0.956 -1.5990 -1.6331  0.8572
   38MOL   H41527129   6.654   3.619   0.864 -0.9692 -0.5709 -0.0840
   38MOL   H41627130   6.643   3.441   0.829  2.3944 -1.4184  1.3241
   38MOL   H41727131   6.828   3.537   1.032  0.1680 -1.1976  0.5127
   38MOL   H41827132   6.772   3.377   0.993  1.9336  0.1021 -0.1850
   38MOL   H41927133   6.869   3.390   0.764 -0.2815  2.6676 -2.0934
   38MOL   H42027134   6.975   3.421   0.888 -1.5353 -1.1855  2.0160
   38MOL   H42127135   6.837   3.646   0.733 -0.4900 -0.6311 -0.1938
   38MOL   H42227136   6.973   3.656   0.845 -0.2788 -1.7881 -0.2897
   38MOL   H42327137   6.967   3.530   0.558  2.4005  0.5550 -1.5989
   38MOL   H42427138   7.097   3.496   0.659 -0.2670 -0.3856 -0.9387
   38MOL   H42527139   7.009   3.784   0.601  2.0093  1.5252 -0.5710
   38MOL   H42627140   7.152   3.746   0.684  1.0514 -1.5532  0.9484
   38MOL   H42727141   7.256   3.621   0.519  2.0464  2.3511  0.0693
   38MOL   H42827142   7.128   3.635   0.411 -1.0249  1.0406  0.0832
   38MOL   H42927143   7.548   3.918   0.209 -0.4369 -0.6511  0.7290
   38MOL   H43027144   7.490   4.094   0.201 -1.3607 -0.6676  0.2442
   38MOL   H43127145   7.413   3.974   0.124 -0.3976  0.2673 -0.3594
   38MOL   H43227146   7.373   4.012   0.549  1.2258 -3.0425  1.6163
   38MOL   H43327147   7.477   4.114   0.482  0.7510  0.3262 -0.1349
   38MOL   C43427148   0.358   3.032   0.163  0.1117 -0.6074 -0.5004
   38MOL   C43527149   0.264   3.148   0.125  0.1866 -0.1881  0.2584
   38MOL   C43627150   0.308   3.277   0.200  0.5879  0.8361  0.4694
   38MOL   C43727151   0.246   3.411   0.147  0.6968  0.4006 -0.4972
   38MOL   C43827152   0.310   3.535   0.222 -0.4511 -0.3509 -0.7042
   38MOL   C43927153   0.236   3.673   0.199  0.8402  0.5805 -0.1899
   38MOL   C44027154   0.133   3.692   0.306 -0.2851  0.0700 -0.4092
   38MOL   C44127155   0.051   3.828   0.288 -0.7163  0.1013  0.0923
   38MOL   O44227156   7.724   3.838   0.375 -0.0683 -0.5649  0.4858
   38MOL   C44327157   7.698   3.947   0.445 -0.9642  0.1031  0.1015
   38MOL   O44427158   7.759   4.055   0.435 -0.2482  0.3578 -0.1487
   38MOL   C44527159   7.582   3.930   0.544  0.0163 -0.2551  0.2291
   38MOL   C44627160   7.545   3.784   0.576  0.2740 -0.3268  0.2220
   38MOL   C44727161   7.617   4.021   0.664 -0.3366 -0.6317  0.0471
   38MOL   H44827162   0.450   3.054   0.110 -0.6604  3.2446 -0.3845
   38MOL   H44927163   0.320   2.932   0.142 -0.7715 -0.6560  1.2229
   38MOL   H45027164   0.380   3.048   0.269 -0.2640 -0.3821 -0.4566
   38MOL   H45127165   0.162   3.123   0.152 -1.3532  1.4720 -3.6528
   38MOL   H45227166   0.263   3.158   0.017 -0.4515 -1.7075  0.1222
   38MOL   H45327167   0.416   3.286   0.210  0.6929 -1.3660  1.6978
   38MOL   H45427168   0.276   3.263   0.303  1.0450  1.1829  0.6572
   38MOL   H45527169   0.142   3.421   0.178  0.3640 -0.1355 -1.4248
   38MOL   H45627170   0.255   3.423   0.039 -1.0601  0.1354 -0.6833
   38MOL   H45727171   0.326   3.518   0.328  0.1699  1.2248 -0.5215
   38MOL   H45827172   0.414   3.549   0.192  0.3177  0.0371  2.0592
   38MOL   H45927173   0.187   3.682   0.102 -0.4426 -0.3207  0.3526
   38MOL   H46027174   0.315   3.747   0.204  1.8348 -0.4143 -0.8696
   38MOL   H46127175   0.060   3.612   0.298  0.0135 -0.0867 -1.7896
   38MOL   H46227176   0.176   3.694   0.406  0.7460 -0.7079 -0.8264
   38MOL   H46327177   0.009   3.834   0.188 -0.2330  1.4980 -0.0336
   38MOL   H46427178   0.117   3.915   0.294 -0.5807  0.0694 -0.9287
   38MOL   H46527179   7.454   3.784   0.637  1.0520 -0.1472  1.4099
   38MOL   H46627180   7.546   3.728   0.483  0.0286 -1.2474  0.7665
   38MOL   H46727181   7.626   3.732   0.628  1.2896 -0.0612 -1.0714
   38MOL   H46827182   7.643   4.122   0.632 -0.4202  0.5917  3.6477
   38MOL   H46927183   7.522   4.053   0.708 -0.6780 -0.4920 -0.7738
   38MOL   C47027184   0.673   4.751   0.358  0.3925  0.6107 -0.4906
   38MOL   C47127185   0.667   4.615   0.417 -0.1731  0.0093  1.1289
   38MOL   C47227186   0.527   4.588   0.483  0.5431 -0.0385 -0.3330
   38MOL   C47327187   0.531   4.443   0.545 -0.5952  0.1272  0.5225
   38MOL   C47427188   0.400   4.411   0.630 -0.3052 -0.0133  0.0406
   38MOL   C47527189   0.401   4.267   0.679  0.6938 -0.4916  0.0872
   38MOL   C47627190   0.335   4.171   0.580  0.4810  0.9042  0.4893
   38MOL   C47727191   0.293   4.035   0.642  0.1700  0.8264 -0.5231
   38MOL   O47827192   0.165   4.046   0.702  0.2022 -0.7501 -0.2832
   38MOL   C47927193   0.075   3.944   0.725  0.0994 -0.1565  0.9100
   38MOL   O48027194   0.091   3.826   0.697 -0.0773  0.2852 -0.4181
   38MOL   C48127195   7.718   3.987   0.775  0.2186 -0.2002 -0.3448
   38MOL   C48227196   7.733   4.123   0.855  0.6034  0.0719 -0.0491
   38MOL   C48327197   7.644   3.886   0.868 -0.7755  0.5373  0.1945
   38MOL   H48427198   0.757   4.757   0.289  0.2408 -0.1273 -0.7425
   38MOL   H48527199   0.670   4.831   0.432  1.4706 -1.7596  2.1516
   38MOL   H48627200   0.587   4.777   0.296 -0.3158  0.4442  0.4164
   38MOL   H48727201   0.672   4.543   0.335 -0.0050 -0.1555  1.2828
   38MOL   H48827202   0.746   4.598   0.489  1.4271  0.2697 -0.5239
   38MOL   H48927203   0.509   4.648   0.572 -3.3504 -1.4263 -0.1231
   38MOL   H49027204   0.441   4.594   0.417 -0.5572  3.6342  1.3074
   38MOL   H49127205   0.550   4.375   0.462  1.2018  1.0477  0.1626
   38MOL   H49227206   0.615   4.444   0.615 -0.1936  1.3974  0.0486
   38MOL   H49327207   0.402   4.487   0.708  1.5277  0.8376 -0.7820
   38MOL   H49427208   0.305   4.426   0.579 -0.5090 -4.0158 -0.9085
   38MOL   H49527209   0.494   4.216   0.706  0.4709 -1.1308 -0.3381
   38MOL   H49627210   0.338   4.262   0.768 -0.9527  4.0532 -0.6937
   38MOL   H49727211   0.243   4.207   0.534 -0.1980 -1.6436 -0.1912
   38MOL   H49827212   0.403   4.159   0.495  1.1256 -0.3798  1.1859
   38MOL   H49927213   0.362   3.997   0.718 -1.7209  2.6629  2.2319
   38MOL   H50027214   0.291   3.961   0.563 -0.8021  1.1808 -0.8337
   38MOL   H50127215   0.014   4.109   0.945  0.1717  0.9969  0.3879
   38MOL   H50227216   7.634   4.155   0.887  1.7931  0.7055  3.2234
   38MOL   H50327217   7.778   4.204   0.798  1.9059 -1.3698 -1.1092
   38MOL   H50427218   7.535   3.885   0.857 -0.7770 -1.5218  0.2681
   38MOL   H50527219   7.658   3.790   0.818  3.8353  1.0513  0.3184
   38MOL   C50627220   0.328   3.064   0.766  1.0760 -0.0269 -0.7184
   38MOL   C50727221   0.439   3.135   0.696  0.2670  0.1258 -0.0643
   38MOL   C50827222   0.450   3.280   0.734  0.1098 -0.2581 -0.1387
   38MOL   C50927223   0.352   3.371   0.654  0.2145 -1.2050  0.8254
   38MOL   C51027224   0.357   3.518   0.699 -0.2692 -0.6179  1.2070
   38MOL   C51127225   0.294   3.550   0.829  0.4429 -0.3091 -0.4983
   38MOL   C51227226   0.331   3.680   0.898  0.3577  0.3892  0.3807
   38MOL   C51327227   0.242   3.699   1.020 -0.0209 -0.0306  0.3028
   38MOL   O51427228   0.109   3.728   0.992  0.7942 -0.7549  0.2040
   38MOL   C51527229   0.047   3.845   1.045  0.3667 -0.1756  0.4569
   38MOL   O51627230   0.111   3.930   1.108 -0.3559 -0.5594 -0.1964
   38MOL   C51727231   7.676   3.849   1.023  0.9437 -0.4045 -0.0084
   38MOL   C51827232   7.621   3.958   1.116  0.1538 -0.5119 -0.6110
   38MOL   C51927233   7.598   3.712   1.047  0.2083  0.8210  0.3071
   38MOL   H52027234   0.326   2.962   0.730  4.3434  0.4693 -2.4163
   38MOL   H52127235   0.232   3.105   0.734  1.7812  1.3098 -1.1958
   38MOL   H52227236   0.325   3.067   0.875 -0.8498  1.6893 -0.7722
   38MOL   H52327237   0.431   3.123   0.588 -1.3783  0.4114  0.0102
   38MOL   H52427238   0.531   3.084   0.725 -0.6868  0.8361  4.5926
   38MOL   H52527239   0.412   3.282   0.836  1.8866 -0.0243  0.5401
   38MOL   H52627240   0.550   3.319   0.714 -0.7903  2.5729  0.6958
   38MOL   H52727241   0.363   3.354   0.546  0.4104 -0.1012  0.6628
   38MOL   H52827242   0.249   3.335   0.661 -0.1495 -0.6049 -1.0649
   38MOL   H52927243   0.458   3.558   0.695 -0.2011 -1.0028 -1.8988
   38MOL   H53027244   0.317   3.578   0.617 -1.7160 -3.4345 -0.2343
   38MOL   H53127245   0.315   3.466   0.894 -0.9070  0.1838  0.6007
   38MOL   H53227246   0.185   3.550   0.822  0.4708 -0.1584 -1.0008
   38MOL   H53327247   0.345   3.773   0.844  3.0224 -0.2393 -0.0639
   38MOL   H53427248   0.427   3.654   0.942 -0.2961  0.5865  1.9615
   38MOL   H53527249   0.286   3.772   1.088  3.0732 -1.7088  0.2270
   38MOL   H53627250   0.239   3.610   1.083 -1.4904  0.0983  0.4317
   38MOL   H53727251   7.647   3.940   1.220  0.5075  0.1391 -0.5829
   38MOL   H53827252   7.513   3.956   1.108  0.0967  1.0077 -0.4607
   38MOL   H53927253   7.663   4.058   1.105  1.3620 -1.0693 -1.3091
   38MOL   H54027254   7.495   3.712   1.011  0.1114  2.9434  0.5033
   38MOL   H54127255   7.650   3.637   0.987 -2.9989 -1.8014  0.6458
   38MOL   C54227256   7.338   4.342   0.764  0.0033 -0.8735  0.0320
   38MOL   C54327257   7.216   4.316   0.853 -0.4006 -0.6274  0.0381
   38MOL   C54427258   7.170   4.166   0.864  0.2740 -0.5974 -0.6406
   38MOL   C54527259   7.284   4.070   0.907  0.2653 -1.3244  0.5023
   38MOL   C54627260   7.235   3.936   0.956  0.0066  0.1075  0.4629
   38MOL   C54727261   7.143   3.945   1.075  0.3388  0.0964  0.0045
   38MOL   C54827262   7.123   3.816   1.159 -0.1472 -0.9048 -1.1666
   38MOL   C54927263   7.232   3.782   1.268  0.0116  0.9946 -0.0910
   38MOL   O55027264   7.355   3.745   1.201 -0.3437  0.4863 -0.4608
   38MOL   C55127265   7.459   3.676   1.268 -0.1399  0.3435  0.6201
   38MOL   O55227266   7.453   3.655   1.389  0.3008  0.0422  0.0617
   38MOL   C55327267   7.581   3.628   1.185  1.4132  0.0599 -0.2712
   38MOL   C55427268   7.708   3.637   1.272 -0.0830 -0.1964  0.2723
   38MOL   C55527269   7.552   3.475   1.144 -0.0606  0.0859 -0.1432
   38MOL   H55627270   7.434   4.315   0.808  1.0792  0.0866 -1.6656
   38MOL   H55727271   7.342   4.443   0.722 -0.9267 -0.4967  0.8276
   38MOL   H55827272   7.337   4.291   0.668  1.9438 -0.5005 -0.2084
   38MOL   H55927273   7.249   4.346   0.953  0.8116  1.1956 -0.8716
   38MOL   H56027274   7.129   4.380   0.840 -0.4553 -0.3286  1.7549
   38MOL   H56127275   7.144   4.133   0.763  0.1347  0.5378 -0.9763
   38MOL   H56227276   7.087   4.155   0.934  1.0694 -0.1291  0.3941
   38MOL   H56327277   7.333   4.054   0.811 -1.2258 -1.6192 -0.2334
   38MOL   H56427278   7.350   4.126   0.972 -0.6853 -1.0913  1.2826
   38MOL   H56527279   7.315   3.866   0.980 -0.2026 -0.7278 -1.1929
   38MOL   H56627280   7.178   3.885   0.879 -1.5292  0.8249  1.0988
   38MOL   H56727281   7.164   4.029   1.141  0.7878  0.7825 -0.9998
   38MOL   H56827282   7.040   3.952   1.039 -0.9667  0.0062  3.4353
   38MOL   H56927283   7.024   3.814   1.206  0.1475  1.3623 -0.4168
   38MOL   H57027284   7.116   3.728   1.095 -0.6686 -1.0158 -0.9683
   38MOL   H57127285   7.199   3.708   1.341 -2.0605  2.2131  0.2526
   38MOL   H57227286   7.251   3.867   1.332  0.1565 -0.3073  1.6220
   38MOL   H57327287   7.724   3.733   1.322 -1.4847 -0.3625  1.0807
   38MOL   H57427288   0.023   3.619   1.221 -0.3614  0.2671 -0.4131
   38MOL   H57527289   7.694   3.559   1.347 -0.6040 -1.7993 -1.4624
   38MOL   H57627290   7.556   3.410   1.231  0.4275 -1.8331 -1.5508
   38MOL   H57727291   7.652   3.447   1.109 -0.3269  1.0327 -1.6990
   38MOL   C57827292   7.571   3.235   7.714  0.7037  0.2643  0.4917
   38MOL   C57927293   7.567   3.324   0.064  0.8540  0.6962  0.3852
   38MOL   C58027294   7.635   3.252   0.172 -0.3595  0.3174 -0.4887
   38MOL   C58127295   7.622   3.327   0.304 -0.1306  0.7145  0.4696
   38MOL   C58227296   7.737   3.300   0.410  0.2961 -0.1729  1.0841
   38MOL   C58327297   7.745   3.401   0.527 -0.0266  1.1409 -0.2953
   38MOL   C58427298   7.667   3.339   0.646 -0.0048 -0.1909  0.5371
   38MOL   C58527299   7.697   3.430   0.763  0.3368 -0.2192  0.7960
   38MOL   O58627300   7.631   3.408   0.883  0.3305  0.0336 -0.5104
   38MOL   C58727301   7.497   3.431   0.901 -0.5955  0.5378  0.8903
   38MOL   O58827302   7.421   3.465   0.809  0.1685  0.3375 -0.4807
   38MOL   C58927303   7.445   3.411   1.045 -0.1221  0.4690 -0.0361
   38MOL   C59027304   7.308   3.472   1.064  0.4202  0.7772 -0.0435
   38MOL   C59127305   7.444   3.257   1.087 -0.0877 -0.3645 -0.5863
   38MOL   H59227306   7.525   3.138   7.736 -0.2890  1.0143  1.7842
   38MOL   H59327307   7.671   3.220   7.672 -0.0246  2.1502 -2.0163
   38MOL   H59427308   7.508   3.279   7.637 -1.2475 -2.3084  0.5361
   38MOL   H59527309   7.466   3.355   0.090  0.6258  0.5824 -0.3420
   38MOL   H59627310   7.626   3.412   0.039  4.7887 -1.8396  0.2300
   38MOL   H59727311   7.737   3.231   0.143  0.0481 -0.6104  1.5245
   38MOL   H59827312   7.597   3.150   0.176  1.0150 -0.2463 -1.3820
   38MOL   H59927313   7.521   3.310   0.342 -0.8814 -0.3920 -1.9218
   38MOL   H60027314   7.626   3.436   0.297 -0.6516  0.6804 -0.3652
   38MOL   H60127315   0.048   3.294   0.349 -0.2434 -0.6181  0.3123
   38MOL   H60227316   7.723   3.195   0.438 -3.0805 -0.5124 -1.6064
   38MOL   H60327317   7.700   3.498   0.508 -2.1409  0.3296  0.4059
   38MOL   H60427318   0.072   3.416   0.545  0.1820 -0.6757  0.0429
   38MOL   H60527319   7.702   3.239   0.669 -0.1443 -0.1507  0.9252
   38MOL   H60627320   7.560   3.337   0.626 -0.2418 -0.0103  1.7484
   38MOL   H60727321   0.025   3.416   0.775  0.5431 -1.2955 -1.9348
   38MOL   H60827322   7.689   3.531   0.722  1.8371 -0.5430 -0.3322
   38MOL   H60927323   7.289   3.573   1.027  2.9177  0.9436 -0.9510
   38MOL   H61027324   7.224   3.426   1.013  0.0244 -0.0181  1.3029
   38MOL   H61127325   7.288   3.475   1.171 -0.8406 -2.0916 -0.1451
   38MOL   H61227326   7.417   3.260   1.193  1.1528 -0.7454 -0.2480
   38MOL   H61327327   7.550   3.231   1.088  0.9002  3.4445 -0.9658
   38MOL   C61427328   7.028   2.545   0.484 -0.5881 -0.3808  0.2022
   38MOL   C61527329   7.042   2.627   0.615 -0.3765 -0.9030 -0.0177
   38MOL   C61627330   6.939   2.746   0.627  0.3051 -0.0689  0.2639
   38MOL   C61727331   6.957   2.838   0.747  0.0093 -0.7523  0.6927
   38MOL   C61827332   6.865   2.960   0.744  0.4717 -0.5385 -0.2867
   38MOL   C61927333   6.913   3.077   0.824  0.3372  1.1101  0.2732
   38MOL   C62027334   6.936   3.048   0.979 -0.3966  0.1788  0.4015
   38MOL   C62127335   7.005   3.164   1.053  0.3896 -0.0461 -0.0727
   38MOL   O62227336   7.142   3.175   1.011  0.5216  0.0398 -0.0821
   38MOL   C62327337   7.237   3.122   1.079  0.6334  0.5717 -0.0273
   38MOL   O62427338   7.238   3.065   1.189  0.5616 -0.3831 -0.1425
   38MOL   C62527339   7.371   3.139   1.017 -0.1641  0.3872 -0.2563
   38MOL   C62627340   7.346   3.159   0.861 -0.1858 -0.5303 -0.1121
   38MOL   C62727341   7.457   3.004   1.045  0.3250  0.3600  0.0258
   38MOL   H62827342   7.119   2.486   0.469  0.2352  0.8101  0.4382
   38MOL   H62927343   7.008   2.606   0.396  0.3728  0.9258  0.8697
   38MOL   H63027344   6.943   2.477   0.487 -2.1032  1.3559 -2.1894
   38MOL   H63127345   7.037   2.563   0.703  2.5086 -0.4806  0.5060
   38MOL   H63227346   7.146   2.659   0.614 -0.4623 -0.6360 -0.4076
   38MOL   H63327347   6.835   2.713   0.617 -0.2541  1.9559 -0.7367
   38MOL   H63427348   6.954   2.801   0.535  0.6682  0.1388  0.4451
   38MOL   H63527349   7.060   2.872   0.741  0.1099 -1.1506  0.0240
   38MOL   H63627350   6.964   2.780   0.839  3.5655 -0.9401  0.3516
   38MOL   H63727351   6.849   2.993   0.641  1.0179  2.5207  0.5722
   38MOL   H63827352   6.764   2.927   0.771  0.0402  1.0873  0.1469
   38MOL   H63927353   7.010   3.112   0.788  0.5870  1.4081  1.2146
   38MOL   H64027354   6.837   3.155   0.812  1.0864  1.9544  0.9710
   38MOL   H64127355   7.002   2.963   0.996 -0.9504 -1.0551 -3.0230
   38MOL   H64227356   6.837   3.021   1.016  0.0980 -0.4065  1.3143
   38MOL   H64327357   6.949   3.246   1.007  1.4415  0.1840 -0.9509
   38MOL   H64427358   6.990   3.150   1.160  0.8353  1.1362  0.1570
   38MOL   H64527359   7.290   3.251   0.843  0.1321 -0.2200  0.4654
   38MOL   H64627360   7.285   3.084   0.811  0.3123 -0.3359 -1.0168
   38MOL   H64727361   7.439   3.179   0.808 -0.6964  0.4606 -0.6467
   38MOL   H64827362   7.390   2.919   1.054 -0.4510  0.7169 -2.2438
   38MOL   H64927363   7.490   3.006   1.149 -3.4084 -0.3743  1.3391
   38MOL   C65027364   0.693   3.353   1.464  0.4767 -0.6295  0.7016
   38MOL   C65127365   0.674   3.253   1.350 -0.4914 -0.1220  0.3870
   38MOL   C65227366   0.620   3.315   1.227 -0.2660  0.2813 -0.2693
   38MOL   C65327367   0.473   3.359   1.245 -0.3282  0.6803 -0.2122
   38MOL   C65427368   0.362   3.252   1.218  1.2876 -0.1578  0.4674
   38MOL   C65527369   0.217   3.328   1.221  0.4123  0.3999  0.3887
   38MOL   C65627370   0.099   3.236   1.216  0.5058 -0.4708  0.3064
   38MOL   C65727371   0.095   3.165   1.081 -0.1227  0.4872 -0.2849
   38MOL   O65827372   7.756   3.086   1.080 -0.4069 -0.0422  0.0035
   38MOL   C65927373   7.697   3.053   0.955 -0.1103 -0.5662 -0.4706
   38MOL   O66027374   7.743   3.077   0.841  0.0498  0.3997 -0.2768
   38MOL   C66127375   7.583   2.949   0.960  0.8061 -0.1602  1.0101
   38MOL   C66227376   7.534   2.909   0.817 -0.3646 -0.0258  0.0020
   38MOL   C66327377   7.624   2.814   1.034  0.5260  1.0565 -0.2185
   38MOL   H66427378   0.761   3.427   1.423  0.7773 -2.8219 -2.9358
   38MOL   H66527379   0.752   3.309   1.545  1.4992  1.1623  0.9483
   38MOL   H66627380   0.593   3.383   1.495 -0.0415 -2.4018  0.7835
   38MOL   H66727381   0.602   3.175   1.374  0.0139 -0.1103  2.0527
   38MOL   H66827382   0.765   3.195   1.332 -0.7105 -0.2180 -0.3888
   38MOL   H66927383   0.616   3.243   1.144 -0.7939 -0.8822  0.7491
   38MOL   H67027384   0.683   3.399   1.197 -0.1758  1.3623  2.8196
   38MOL   H67127385   0.444   3.434   1.171 -2.9932  0.3518  0.4466
   38MOL   H67227386   0.450   3.406   1.340  0.5726 -2.1887  1.4785
   38MOL   H67327387   0.377   3.183   1.301  2.2463  0.5518  0.8991
   38MOL   H67427388   0.383   3.194   1.128  0.1005 -1.1190  0.7991
   38MOL   H67527389   0.211   3.383   1.315  0.6163 -2.8427  2.3897
   38MOL   H67627390   0.209   3.400   1.139  0.1412 -0.2710 -0.1835
   38MOL   H67727391   0.006   3.292   1.226  2.3123  2.8655 -0.9211
   38MOL   H67827392   0.109   3.165   1.299  0.9615 -1.2542 -0.4111
   38MOL   H67927393   0.163   3.080   1.077  0.4266  0.9635 -1.3973
   38MOL   H68027394   0.123   3.230   0.998  0.8429 -2.4559 -2.3442
   38MOL   H68127395   7.444   2.847   0.819 -0.1132 -0.3666  1.3319
   38MOL   H68227396   7.605   2.850   0.760  0.6386  0.1014  1.1102
   38MOL   H68327397   7.515   3.002   0.763  2.2565  0.7822  0.4112
   38MOL   H68427398   7.599   2.823   1.140 -0.3267 -0.9192 -0.2375
   38MOL   H68527399   7.548   2.741   1.007  0.0915  1.3893  0.0901
   38MOL   C68627400   6.862   2.128   0.839  0.8938 -0.2798 -0.3697
   38MOL   C68727401   7.016   2.131   0.842 -0.1174 -0.3887 -0.6349
   38MOL   C68827402   7.085   2.258   0.784  0.3652  0.7298 -0.3985
   38MOL   C68927403   7.232   2.276   0.817 -0.6524  0.3321  0.2626
   38MOL   C69027404   7.306   2.383   0.736  0.3337  0.3843  0.5674
   38MOL   C69127405   7.454   2.395   0.765  0.0266 -0.5292  0.4003
   38MOL   C69227406   7.511   2.519   0.691  0.8192 -0.2621 -0.1864
   38MOL   C69327407   7.661   2.554   0.727  0.6908  0.0657  0.1137
   38MOL   O69427408   7.668   2.596   0.861 -0.2373  0.0869 -0.1149
   38MOL   C69527409   7.779   2.661   0.899 -0.0955 -0.4525  0.9814
   38MOL   O69627410   0.106   2.649   0.837 -0.0728  0.3904  0.0735
   38MOL   C69727411   7.764   2.735   1.026  0.6771 -0.1671  0.6271
   38MOL   C69827412   7.758   2.632   1.142 -0.9635  0.6839 -0.0907
   38MOL   C69927413   0.108   2.823   1.061 -0.0223  0.0525  0.3743
   38MOL   H70027414   6.819   2.214   0.891 -1.7585 -2.2019  0.6997
   38MOL   H70127415   6.836   2.041   0.899  2.3398  0.5989  1.5716
   38MOL   H70227416   6.813   2.143   0.742 -2.7450 -2.5048  1.0052
   38MOL   H70327417   7.061   2.039   0.807  2.5181  1.5785 -2.6180
   38MOL   H70427418   7.037   2.126   0.949  3.7066  0.1209 -1.2832
   38MOL   H70527419   7.034   2.347   0.820 -0.8175  0.3712 -1.1681
   38MOL   H70627420   7.067   2.258   0.677  0.1689 -0.9350 -0.3849
   38MOL   H70727421   7.288   2.190   0.779 -0.5780  1.1044 -1.4382
   38MOL   H70827422   7.247   2.315   0.917  0.2522 -0.9587  0.6534
   38MOL   H70927423   7.257   2.473   0.772 -0.9965 -0.1074  0.0171
   38MOL   H71027424   7.282   2.369   0.631 -0.9750 -1.9512  1.1235
   38MOL   H71127425   7.477   2.394   0.872  0.4659 -0.0806  0.3145
   38MOL   H71227426   7.502   2.304   0.730 -0.1987 -0.5803  0.2264
   38MOL   H71327427   7.505   2.494   0.585  0.5069 -0.4111 -0.1344
   38MOL   H71427428   7.444   2.604   0.697  0.6122 -0.5047  1.3022
   38MOL   H71527429   7.699   2.642   0.675  3.4231 -1.8495 -1.2034
   38MOL   H71627430   7.726   2.469   0.709 -0.9726 -0.8310 -1.8442
   38MOL   H71727431   7.743   2.685   1.236  0.0076 -3.0368  2.2625
   38MOL   H71827432   7.678   2.557   1.136  0.5189 -0.8365 -1.4798
   38MOL   H71927433   0.069   2.571   1.145 -1.2962  0.2234  0.6526
   38MOL   H72027434   0.086   2.877   1.153 -0.4267  1.8032 -0.7262
   38MOL   H72127435   0.135   2.896   0.984 -1.5052 -1.2465 -1.4329
   38MOL   H72227436   0.196   2.761   1.075  0.5826 -0.2990 -4.1332
   39MOL     C127437   3.981   6.247   1.795 -0.6378 -0.7045 -0.2529
   39MOL     C227438   3.885   6.225   1.677  0.2491 -0.1169 -0.1086
   39MOL     C327439   3.851   6.360   1.615 -0.2009  0.0581  0.0561
   39MOL     C427440   3.763   6.363   1.487 -0.4046 -0.5644  0.4035
   39MOL     C527441   3.843   6.331   1.354  0.2158 -0.2920 -0.3505
   39MOL     C627442   3.962   6.425   1.322  0.6253  0.0747 -0.3913
   39MOL     C727443   4.066   6.364   1.222 -0.3273  0.0277 -0.3382
   39MOL     C827444   4.187   6.457   1.196  0.1682 -0.4028 -0.6379
   39MOL     O927445   4.244   6.481   1.328 -0.7767 -0.4820 -0.1515
   39MOL    C1027446   4.269   6.608   1.366  0.6140 -0.2549 -0.1575
   39MOL    O1127447   4.258   6.707   1.300  0.4695 -0.2168  0.0491
   39MOL    C1227448   4.319   6.615   1.508 -0.1559 -0.0263  0.3602
   39MOL    C1327449   4.207   6.584   1.602 -0.3746 -0.0854 -0.5571
   39MOL    C1427450   4.446   6.531   1.540 -0.7134  0.7188  0.7046
   39MOL    H1527451   4.081   6.286   1.774 -0.5254 -1.1159 -0.4813
   39MOL    H1627452   3.999   6.162   1.861 -1.7467 -1.6300 -1.1244
   39MOL    H1727453   3.927   6.316   1.859 -0.9996 -0.8616 -0.3912
   39MOL    H1827454   3.792   6.179   1.709  0.6765  0.6221  2.3245
   39MOL    H1927455   3.924   6.157   1.601 -2.0192  0.1292 -1.5217
   39MOL    H2027456   3.799   6.420   1.690  0.0961 -1.4455  1.4895
   39MOL    H2127457   3.943   6.417   1.603  0.7759 -1.2799  1.0005
   39MOL    H2227458   3.685   6.288   1.495 -1.5135  0.6369  1.0030
   39MOL    H2327459   3.718   6.462   1.482  0.1339 -0.0601  3.9059
   39MOL    H2427460   3.773   6.318   1.272  0.2293 -1.1100 -0.2369
   39MOL    H2527461   3.896   6.237   1.367  0.5603  0.0678  0.8938
   39MOL    H2627462   4.020   6.457   1.409  2.0936  0.5488 -1.5270
   39MOL    H2727463   3.924   6.520   1.284 -1.5207 -1.9226 -3.4265
   39MOL    H2827464   4.024   6.353   1.122 -0.0599  1.3301 -0.6077
   39MOL    H2927465   4.097   6.265   1.256  1.0491  0.6442  0.2446
   39MOL    H3027466   4.167   6.549   1.142 -0.4987 -1.4462 -2.1959
   39MOL    H3127467   4.259   6.396   1.142  3.4025  1.6117  1.2491
   39MOL    H3227468   4.190   6.478   1.619 -0.8852 -0.1103 -1.1987
   39MOL    H3327469   4.229   6.631   1.698 -1.2520  0.3083 -0.5439
   39MOL    H3427470   4.118   6.640   1.572 -0.3668  0.5949  0.6368
   39MOL    H3527471   4.418   6.426   1.533  2.1475 -0.0943  0.9102
   39MOL    H3627472   4.467   6.540   1.646  1.1213 -0.7320  0.4902
   39MOL    H3727473   4.344   6.719   1.526  0.5593  0.1034 -1.2439
   39MOL    C3827474   5.043   7.538   1.280 -0.2196 -0.2464 -0.2733
   39MOL    C3927475   5.004   7.478   1.138 -0.2421 -0.3002 -0.6332
   39MOL    C4027476   4.952   7.333   1.127 -0.3225  0.5998  0.2024
   39MOL    C4127477   5.048   7.233   1.191  0.3238  0.2416  0.3571
   39MOL    C4227478   5.006   7.087   1.185  0.2987  0.0114 -0.2672
   39MOL    C4327479   4.873   7.069   1.267 -0.6090  0.2969  0.4481
   39MOL    C4427480   4.841   6.918   1.283 -0.3376  0.1264  0.5896
   39MOL    C4527481   4.715   6.889   1.371 -0.9608  0.1548  0.4633
   39MOL    O4627482   4.689   6.753   1.384 -0.8941 -0.8751 -0.1698
   39MOL    C4727483   4.618   6.714   1.490 -1.0146 -0.9720  0.2674
   39MOL    O4827484   4.580   6.788   1.584  0.0392 -0.1075 -0.0412
   39MOL    C4927485   4.583   6.562   1.480  0.0671 -0.1088 -0.1405
   39MOL    C5027486   4.585   6.525   1.332  0.8857 -0.7274  0.0433
   39MOL    C5127487   4.702   6.478   1.545  0.5446 -0.3567  0.1918
   39MOL    H5227488   4.965   7.520   1.354  0.1937  0.4322  0.3316
   39MOL    H5327489   5.052   7.646   1.267 -1.1544  0.0543  1.4262
   39MOL    H5427490   5.136   7.493   1.313  0.6446  2.2488  0.8409
   39MOL    H5527491   5.096   7.498   1.083  0.5350  2.9908  1.7251
   39MOL    H5627492   4.925   7.535   1.088  0.6009  2.1848  0.7971
   39MOL    H5727493   4.857   7.331   1.181 -1.9259 -0.1182 -2.5541
   39MOL    H5827494   4.919   7.299   1.029 -1.4461  1.1213  0.3941
   39MOL    H5927495   5.048   7.252   1.299  0.5160 -0.0329  0.4063
   39MOL    H6027496   5.153   7.229   1.162 -0.4517 -2.7639 -2.2372
   39MOL    H6127497   4.988   7.056   1.082  0.3028 -0.6123 -0.0827
   39MOL    H6227498   5.085   7.022   1.223 -0.4568 -0.7384  0.0443
   39MOL    H6327499   4.880   7.121   1.363 -1.2660  3.3238 -1.0928
   39MOL    H6427500   4.795   7.132   1.224 -0.4002  0.6869  0.6337
   39MOL    H6527501   4.924   6.862   1.326  1.5575  1.7756 -0.8328
   39MOL    H6627502   4.833   6.886   1.179  0.4976 -0.6382  0.7566
   39MOL    H6727503   4.632   6.937   1.319 -0.7427  1.0945  0.9776
   39MOL    H6827504   4.734   6.942   1.464 -2.1330  0.8671  0.2966
   39MOL    H6927505   4.542   6.426   1.316  1.1292 -0.2754 -3.6223
   39MOL    H7027506   4.545   6.600   1.265 -1.9251 -2.5943 -0.4466
   39MOL    H7127507   4.688   6.511   1.299  1.1942 -2.1464  1.5221
   39MOL    H7227508   4.796   6.520   1.510  1.9586 -1.0030  3.0649
   39MOL    H7327509   4.701   6.378   1.503  1.4225 -0.4570  0.4004
   39MOL    C7427510   5.394   7.338   1.457  0.1440  0.4497 -0.0274
   39MOL    C7527511   5.328   7.278   1.581  0.7669  0.3654  0.1316
   39MOL    C7627512   5.179   7.310   1.601  0.3418 -0.2871 -0.3077
   39MOL    C7727513   5.097   7.224   1.694 -0.3701  0.1716 -0.6926
   39MOL    C7827514   5.055   7.081   1.644  0.4560  0.5858  0.3027
   39MOL    C7927515   4.975   7.000   1.753 -0.0610  0.0119 -0.0069
   39MOL    C8027516   4.955   6.845   1.726  0.1420  0.3003  0.0666
   39MOL    C8127517   4.841   6.793   1.808 -0.8670  0.3749 -0.4990
   39MOL    O8227518   4.809   6.678   1.736  0.0531  0.2001  0.3307
   39MOL    C8327519   4.714   6.592   1.781 -0.3793 -0.3888  0.1643
   39MOL    O8427520   4.641   6.603   1.883 -0.2047 -0.1839  0.1580
   39MOL    C8527521   4.720   6.457   1.700 -0.0887 -0.5250  0.1588
   39MOL    C8627522   4.616   6.350   1.747  0.4658  0.5565 -0.5744
   39MOL    C8727523   4.872   6.403   1.713  0.2223  0.0952  0.2495
   39MOL    H8827524   5.493   7.293   1.455 -0.3022 -0.5426 -0.3992
   39MOL    H8927525   5.404   7.446   1.462  0.3112  0.5524 -2.0750
   39MOL    H9027526   5.347   7.300   1.366 -0.5363 -0.9852  0.8974
   39MOL    H9127527   5.383   7.306   1.671 -1.7672 -0.8311  2.1175
   39MOL    H9227528   5.331   7.171   1.561 -0.1930  0.4410 -0.4797
   39MOL    H9327529   5.181   7.413   1.636  0.9449 -0.7460  1.0247
   39MOL    H9427530   5.133   7.314   1.502 -1.0621 -1.1989  0.2906
   39MOL    H9527531   5.010   7.282   1.722  0.3307  0.1428  1.6854
   39MOL    H9627532   5.163   7.215   1.781 -1.5497  0.7573  0.2701
   39MOL    H9727533   4.993   7.076   1.554  0.7529 -1.1150  0.1904
   39MOL    H9827534   5.150   7.034   1.620  0.9604  1.6476  0.1619
   39MOL    H9927535   5.032   7.009   1.845  0.9939 -2.6300 -0.3480
   39MOL   H10027536   4.877   7.045   1.771 -0.8171 -1.0593 -1.3028
   39MOL   H10127537   4.928   6.844   1.620 -0.1872  0.9127  0.1419
   39MOL   H10227538   5.046   6.789   1.746 -0.7053  0.0338  3.4624
   39MOL   H10327539   4.750   6.852   1.797 -0.4792  1.3529  1.2185
   39MOL   H10427540   4.874   6.780   1.912 -1.1235  1.7269 -0.2339
   39MOL   H10527541   4.646   6.329   1.850 -1.1657  0.4740 -0.0969
   39MOL   H10627542   4.629   6.262   1.685 -0.3900  1.7222 -2.4375
   39MOL   H10727543   4.513   6.383   1.761 -0.3171 -0.9178 -2.6338
   39MOL   H10827544   4.881   6.321   1.642 -0.5885 -1.0464  1.4285
   39MOL   H10927545   4.935   6.486   1.681 -0.4389 -0.0085 -1.3840
   39MOL   C11027546   4.332   6.176   1.500  0.1829 -0.2696  0.6286
   39MOL   C11127547   4.394   6.148   1.369  0.6202 -0.0738 -0.2386
   39MOL   C11227548   4.529   6.076   1.374 -0.5929 -0.2033  0.0695
   39MOL   C11327549   4.514   5.937   1.440  0.4347  0.3523  0.2949
   39MOL   C11427550   4.649   5.876   1.460 -0.5487  0.3038  0.1240
   39MOL   C11527551   4.752   5.944   1.546  0.3259  0.7462  0.1837
   39MOL   C11627552   4.707   5.946   1.696  0.4017 -0.3825 -0.9605
   39MOL   C11727553   4.835   5.965   1.786 -0.8747  0.0971 -0.0547
   39MOL   O11827554   4.900   6.090   1.778 -0.5902  0.1125 -0.6283
   39MOL   C11927555   4.870   6.192   1.867  0.4814  0.3776  0.1327
   39MOL   O12027556   4.807   6.181   1.967  0.0939  0.2371 -1.0346
   39MOL   C12127557   4.934   6.333   1.841 -0.0210 -0.0461  0.5076
   39MOL   C12227558   4.908   6.422   1.966  0.2343 -0.5003  0.2329
   39MOL   C12327559   5.090   6.325   1.806 -0.1918  0.1791  0.5578
   39MOL   H12427560   4.246   6.243   1.506  1.0161  0.7284  1.5280
   39MOL   H12527561   4.297   6.083   1.546  0.4019 -0.6262  0.0768
   39MOL   H12627562   4.416   6.218   1.555 -0.8323  2.8590 -0.1534
   39MOL   H12727563   4.399   6.240   1.311  1.3526 -0.3720 -0.6532
   39MOL   H12827564   4.328   6.084   1.309  0.5530 -1.9528  1.7784
   39MOL   H12927565   4.599   6.147   1.419 -1.1034  0.5147 -0.2644
   39MOL   H13027566   4.568   6.049   1.275  1.2200  0.7912  0.4833
   39MOL   H13127567   4.452   5.942   1.530  1.5384  0.8894  1.0478
   39MOL   H13227568   4.456   5.872   1.374 -1.1842  3.7095 -1.6819
   39MOL   H13327569   4.693   5.862   1.361 -0.0992  0.4898  0.2987
   39MOL   H13427570   4.630   5.777   1.502  1.4915  0.4078  1.3509
   39MOL   H13527571   4.848   5.896   1.531 -0.1899 -0.1293 -0.3116
   39MOL   H13627572   4.767   6.048   1.515  4.0959  0.6284  1.3872
   39MOL   H13727573   4.672   5.845   1.716 -1.2081 -0.0293 -1.9420
   39MOL   H13827574   4.627   6.019   1.704  1.8351  0.8947  2.6914
   39MOL   H13927575   4.801   5.944   1.887  2.3204 -1.3723  0.7481
   39MOL   H14027576   4.905   5.890   1.750 -0.8679  0.7171 -1.3624
   39MOL   H14127577   4.956   6.520   1.957 -3.1611  1.1821 -0.3321
   39MOL   H14227578   4.802   6.429   1.988  0.4043 -0.2344  0.9778
   39MOL   H14327579   4.955   6.376   2.053  2.3181 -0.6904 -0.9451
   39MOL   H14427580   5.119   6.426   1.777 -0.2235  0.1084  0.2843
   39MOL   H14527581   5.098   6.263   1.718 -0.0958  0.9840 -0.0042
   39MOL   C14627582   5.653   7.435   2.054  0.7281 -0.2562  0.1704
   39MOL   C14727583   5.648   7.290   2.093 -0.2574 -0.1883 -0.0101
   39MOL   C14827584   5.527   7.204   2.039 -0.3458 -0.1834  0.4540
   39MOL   C14927585   5.520   7.062   2.111 -0.3299 -0.3669  0.5655
   39MOL   C15027586   5.414   6.971   2.047 -0.5720  0.8399 -0.3287
   39MOL   C15127587   5.410   6.828   2.098 -0.6221  0.2669  0.4634
   39MOL   C15227588   5.327   6.738   2.010 -0.1531  0.1986  0.2152
   39MOL   C15327589   5.313   6.599   2.075  0.9199  0.1585  0.4374
   39MOL   O15427590   5.274   6.499   1.978  0.1966  0.0721 -0.6592
   39MOL   C15527591   5.239   6.379   2.020  0.7332 -0.6038 -0.5723
   39MOL   O15627592   5.246   6.346   2.139  0.0879 -0.0555 -0.5502
   39MOL   C15727593   5.199   6.272   1.905 -0.1346 -0.4269 -0.5850
   39MOL   C15827594   5.144   6.148   1.972 -0.4724  1.3358  0.3258
   39MOL   C15927595   5.335   6.228   1.833  0.1027 -0.0500 -0.4425
   39MOL   H16027596   5.560   7.483   2.086 -1.1130 -3.1391 -0.6671
   39MOL   H16127597   5.653   7.444   1.945 -1.8237  0.1141  0.1806
   39MOL   H16227598   5.733   7.489   2.104  0.2867 -0.0470  0.6582
   39MOL   H16327599   5.730   7.238   2.043  0.3851  2.8251 -2.1858
   39MOL   H16427600   5.659   7.271   2.200 -0.5637 -1.2460 -0.1586
   39MOL   H16527601   5.534   7.185   1.932 -2.5983 -1.8749  0.5865
   39MOL   H16627602   5.425   7.237   2.059 -0.4896 -1.9946  2.9226
   39MOL   H16727603   5.611   7.004   2.095 -2.1279 -2.2156 -3.8542
   39MOL   H16827604   5.504   7.075   2.218  1.8904  4.1830  0.4830
   39MOL   H16927605   5.420   6.963   1.939 -0.8057  2.1976 -0.4575
   39MOL   H17027606   5.318   7.022   2.058 -0.3134  0.9030  1.8515
   39MOL   H17127607   5.376   6.822   2.201 -1.8832 -0.7657  0.0012
   39MOL   H17227608   5.510   6.785   2.107 -0.9894 -0.3385  1.6710
   39MOL   H17327609   5.226   6.778   1.998 -0.8115 -1.3658  0.3643
   39MOL   H17427610   5.373   6.730   1.912  0.4823 -1.5099  0.6364
   39MOL   H17527611   5.404   6.553   2.113  1.3426  0.8650  0.2792
   39MOL   H17627612   5.243   6.605   2.159  0.5399  1.0186  0.0627
   39MOL   H17727613   5.080   6.166   2.058  2.4597  2.5773  2.3380
   39MOL   H17827614   5.217   6.081   2.017 -0.7627 -0.3637 -1.6095
   39MOL   H17927615   5.097   6.073   1.907  1.6974 -0.3622  0.6397
   39MOL   H18027616   5.299   6.154   1.761  1.3610 -1.2741  0.1495
   39MOL   H18127617   5.396   6.178   1.909 -2.2669  0.5782  1.9715
   39MOL   C18227618   6.045   5.837   1.540  0.9898  0.2319 -0.2789
   39MOL   C18327619   6.111   5.960   1.612 -0.0757  0.0937  1.0548
   39MOL   C18427620   6.052   5.994   1.746  0.7814  0.0040 -0.4347
   39MOL   C18527621   6.102   6.126   1.802  0.3463  0.6883  0.1007
   39MOL   C18627622   6.037   6.171   1.930 -0.4027  0.4854  0.7308
   39MOL   C18727623   5.903   6.238   1.913  0.7410  0.8226  0.5139
   39MOL   C18827624   5.814   6.282   2.032  0.6030 -0.2595 -0.3435
   39MOL   C18927625   5.701   6.382   2.003  0.0485 -0.1368 -0.1163
   39MOL   O19027626   5.609   6.322   1.907 -0.3584  0.0912  0.2269
   39MOL   C19127627   5.532   6.403   1.829  0.8367  0.4049 -0.0881
   39MOL   O19227628   5.534   6.527   1.835  0.0817  0.2913 -0.5704
   39MOL   C19327629   5.432   6.317   1.745 -0.5378 -0.1662  0.0760
   39MOL   C19427630   5.362   6.424   1.656  0.0977 -0.2071 -0.5108
   39MOL   C19527631   5.519   6.208   1.658 -0.3468  0.1520 -0.5814
   39MOL   H19627632   6.055   5.742   1.593  2.3074 -0.6497 -2.0375
   39MOL   H19727633   5.940   5.852   1.517  0.9666 -0.3928 -0.6221
   39MOL   H19827634   6.096   5.813   1.446 -1.9173  0.4334 -1.9519
   39MOL   H19927635   6.094   6.048   1.551 -1.8839 -1.0979 -0.2287
   39MOL   H20027636   6.219   5.960   1.622  0.0918 -0.4123 -0.5986
   39MOL   H20127637   5.944   5.984   1.743  0.9272 -2.7302  1.5547
   39MOL   H20227638   6.087   5.926   1.824  0.8412  2.4454  1.7437
   39MOL   H20327639   6.207   6.112   1.828  0.5149  1.6856 -0.0096
   39MOL   H20427640   6.100   6.211   1.733  1.7066 -0.2277 -1.0994
   39MOL   H20527641   6.096   6.241   1.990  1.9349 -0.3465 -0.5659
   39MOL   H20627642   6.030   6.093   2.006 -0.2160 -0.1330  0.1124
   39MOL   H20727643   5.855   6.175   1.838  3.9762 -2.4964  1.0912
   39MOL   H20827644   5.919   6.337   1.868 -0.0773  0.3737 -0.7986
   39MOL   H20927645   5.776   6.193   2.084  0.4179 -2.2875 -3.8175
   39MOL   H21027646   5.874   6.331   2.109  0.1894 -0.6270  0.2170
   39MOL   H21127647   5.723   6.486   1.980 -1.4799  0.5936  1.6071
   39MOL   H21227648   5.631   6.393   2.086  0.3303  0.3020  0.0645
   39MOL   H21327649   5.287   6.385   1.588  1.3949 -0.6935 -1.6795
   39MOL   H21427650   5.327   6.518   1.699  1.0582  1.1049 -2.4941
   39MOL   H21527651   5.430   6.474   1.587 -0.1309 -0.6724 -1.0758
   39MOL   H21627652   5.594   6.165   1.724  0.7959  0.6659 -1.5425
   39MOL   H21727653   5.452   6.124   1.637  0.0842 -0.2828 -0.2492
   39MOL   C21827654   4.616   6.159   0.879 -0.6008  0.8017 -0.0468
   39MOL   C21927655   4.674   6.189   1.017  0.1448  1.1377  0.0107
   39MOL   C22027656   4.812   6.123   1.032 -0.3131 -0.3121  0.3076
   39MOL   C22127657   4.866   6.129   1.176  0.3675  0.1311  0.4314
   39MOL   C22227658   5.009   6.070   1.187  0.3887  0.5991  0.4430
   39MOL   C22327659   5.042   6.051   1.339  0.5259  0.3719  0.5775
   39MOL   C22427660   5.192   6.038   1.371 -0.5948 -0.4236  0.3464
   39MOL   C22527661   5.281   6.169   1.356 -0.3026 -0.2002 -0.5271
   39MOL   O22627662   5.415   6.159   1.399  0.7784  0.1405  0.1107
   39MOL   C22727663   5.487   6.264   1.410 -0.6656 -0.1190  1.1622
   39MOL   O22827664   5.463   6.373   1.350  0.1430 -0.1695  0.3956
   39MOL   C22927665   5.592   6.249   1.518  0.4175  0.1905 -0.5529
   39MOL   C23027666   5.683   6.126   1.484  0.0992 -0.8671  0.3530
   39MOL   C23127667   5.686   6.375   1.551  0.2516 -0.5207  0.6355
   39MOL   H23227668   4.529   6.221   0.859  0.1590  1.5390 -1.1502
   39MOL   H23327669   4.574   6.059   0.871  0.2645  0.4157  0.2131
   39MOL   H23427670   4.685   6.181   0.797  0.4396 -0.2653  0.5259
   39MOL   H23527671   4.613   6.167   1.105  2.4406 -0.6638  1.2226
   39MOL   H23627672   4.686   6.297   1.016 -2.1017  1.3961 -0.8931
   39MOL   H23727673   4.797   6.020   1.000 -0.3875  0.2548 -1.5415
   39MOL   H23827674   4.883   6.182   0.975 -1.6477  2.7411  1.6980
   39MOL   H23927675   4.867   6.232   1.212 -0.6729  0.7154 -1.1348
   39MOL   H24027676   4.806   6.063   1.238 -0.5728  0.5241 -0.0494
   39MOL   H24127677   5.022   5.974   1.136 -1.6736 -1.1381  3.0153
   39MOL   H24227678   5.079   6.144   1.149 -1.1542  1.3651 -0.9013
   39MOL   H24327679   5.010   6.145   1.383 -1.7334  0.0442 -0.2764
   39MOL   H24427680   4.983   5.971   1.384  1.4233 -0.7311 -0.1751
   39MOL   H24527681   5.234   5.959   1.309 -2.3415 -0.3129 -1.0321
   39MOL   H24627682   5.203   6.006   1.474  1.4981 -0.3111  0.1760
   39MOL   H24727683   5.229   6.248   1.409  1.1143  2.2921 -2.7413
   39MOL   H24827684   5.275   6.191   1.249 -0.4585 -0.6451 -0.6146
   39MOL   H24927685   5.615   6.043   1.462 -3.1067  1.0255  2.6450
   39MOL   H25027686   5.760   6.093   1.553  1.4423 -1.7960 -1.5313
   39MOL   H25127687   5.733   6.144   1.389 -0.6595 -0.0371  0.1044
   39MOL   H25227688   5.615   6.458   1.549  0.9281  0.0529 -0.1966
   39MOL   H25327689   5.722   6.357   1.653  0.0051 -0.1656  0.7898
   39MOL   C25427690   5.418   7.403   1.088 -0.5318  0.2589 -0.1065
   39MOL   C25527691   5.499   7.276   1.097 -0.0275  0.0423  0.3239
   39MOL   C25627692   5.422   7.144   1.096 -0.2846  0.2011  0.4425
   39MOL   C25727693   5.530   7.039   1.130 -0.2597  0.6115  0.3224
   39MOL   C25827694   5.458   6.901   1.134  0.1037  0.2749  0.4277
   39MOL   C25927695   5.566   6.786   1.147 -0.1476 -0.6576 -0.2856
   39MOL   C26027696   5.521   6.638   1.144 -0.6884  0.4362  0.0890
   39MOL   C26127697   5.632   6.534   1.144 -0.4463 -0.8862 -0.6661
   39MOL   O26227698   5.683   6.532   1.275 -0.4055  0.2922  0.0999
   39MOL   C26327699   5.778   6.431   1.313  0.2125 -0.2644  0.3684
   39MOL   O26427700   5.827   6.345   1.237 -0.5445  0.0261 -0.1537
   39MOL   C26527701   5.809   6.434   1.466  0.3857  0.0335  0.0707
   39MOL   C26627702   5.931   6.341   1.496  0.7131  0.2892 -0.1257
   39MOL   C26727703   5.817   6.585   1.525 -0.0109 -0.7165 -0.3468
   39MOL   H26827704   5.498   7.475   1.069  1.9914 -2.0371  1.5107
   39MOL   H26927705   5.347   7.402   1.005 -0.6589 -0.4727  0.0107
   39MOL   H27027706   5.379   7.429   1.187  2.6838 -2.5129  1.9717
   39MOL   H27127707   5.571   7.273   1.016 -0.2078 -0.4148  0.1771
   39MOL   H27227708   5.554   7.297   1.189  0.6950 -0.0848 -0.0775
   39MOL   H27327709   5.383   7.130   0.995  0.7904  2.3236 -0.2842
   39MOL   H27427710   5.344   7.141   1.172  0.8814 -0.1866  1.6505
   39MOL   H27527711   5.572   7.056   1.229  0.3874  0.0196  0.1580
   39MOL   H27627712   5.613   7.051   1.060 -1.8927  1.4349 -1.5049
   39MOL   H27727713   5.379   6.893   1.208 -1.4385 -2.0345 -1.3957
   39MOL   H27827714   5.401   6.878   1.044 -0.1288  1.0889  0.3634
   39MOL   H27927715   5.615   6.801   1.243 -1.8160  1.2442  0.3004
   39MOL   H28027716   5.629   6.814   1.062  0.9702  0.4345  0.8843
   39MOL   H28127717   5.444   6.617   1.219 -0.1251  0.1821  0.5957
   39MOL   H28227718   5.477   6.613   1.047 -0.9266 -2.5807  0.9051
   39MOL   H28327719   5.593   6.432   1.135  0.5530 -1.3369 -0.0597
   39MOL   H28427720   5.690   6.556   1.054 -1.6350  0.0828 -1.1996
   39MOL   H28527721   6.020   6.368   1.439  0.1870 -0.7962 -1.4941
   39MOL   H28627722   5.964   6.348   1.599 -1.1969 -0.9569  0.6092
   39MOL   H28727723   5.914   6.236   1.470  0.6051 -0.0362  1.2255
   39MOL   H28827724   5.790   6.588   1.630  0.7585 -2.7207 -0.0666
   39MOL   H28927725   5.724   6.627   1.486  1.0377  3.1689  1.1455
   39MOL   C29027726   6.424   6.230   2.522  0.2684 -0.5855  0.1140
   39MOL   C29127727   6.439   6.341   2.422 -0.3165 -0.7098  0.1298
   39MOL   C29227728   6.333   6.354   2.312  0.4058 -0.3327  0.2393
   39MOL   C29327729   6.332   6.494   2.245 -0.2287 -0.2474 -0.2479
   39MOL   C29427730   6.213   6.506   2.155  0.1847 -0.0613 -0.0309
   39MOL   C29527731   6.235   6.490   2.003  0.7730  0.1910  1.0303
   39MOL   C29627732   6.125   6.548   1.914 -0.5793 -0.9673 -0.2463
   39MOL   C29727733   6.157   6.543   1.763 -0.3310  0.2596  0.1172
   39MOL   O29827734   6.042   6.592   1.695  0.3518 -0.0437  0.0002
   39MOL   C29927735   6.058   6.633   1.572 -0.0459 -0.3496  0.1340
   39MOL   O30027736   6.160   6.602   1.510 -0.0467  0.3204 -0.1363
   39MOL   C30127737   5.935   6.687   1.499  0.0011  0.2295 -0.4109
   39MOL   C30227738   5.963   6.705   1.348  1.0114  0.0535 -0.0076
   39MOL   C30327739   5.889   6.830   1.543 -0.2424  0.2296  0.1180
   39MOL   H30427740   6.344   6.251   2.594  0.4622  0.6095 -0.0004
   39MOL   H30527741   6.520   6.211   2.570  0.7791 -1.1498 -1.1170
   39MOL   H30627742   6.407   6.133   2.475 -0.5172 -0.6260  0.4777
   39MOL   H30727743   6.537   6.325   2.376  0.6184  1.9834  1.0998
   39MOL   H30827744   6.447   6.436   2.475  1.6337  0.0898 -1.5247
   39MOL   H30927745   6.241   6.351   2.371  0.4937  1.3146  0.4749
   39MOL   H31027746   6.323   6.269   2.245 -0.2712  0.3880 -0.5925
   39MOL   H31127747   6.340   6.566   2.327 -1.3951 -0.7011  0.2805
   39MOL   H31227748   6.421   6.522   2.188  0.1609  0.3021  0.6070
   39MOL   H31327749   6.128   6.442   2.178  1.2770 -1.7596 -0.6872
   39MOL   H31427750   6.166   6.602   2.174 -0.7880 -0.8124  1.4571
   39MOL   H31527751   6.255   6.386   1.981  0.5223  0.0138  1.6383
   39MOL   H31627752   6.326   6.545   1.980 -0.1865  1.7365  0.8138
   39MOL   H31727753   6.106   6.655   1.924  1.5004 -0.4969 -1.0512
   39MOL   H31827754   6.026   6.503   1.921 -1.8271  1.2288 -2.9462
   39MOL   H31927755   6.177   6.438   1.743  0.1865  0.1782  1.0011
   39MOL   H32027756   6.248   6.601   1.747  0.2774 -0.5147  0.7078
   39MOL   H32127757   6.056   6.757   1.328 -0.2237  2.2884 -0.0510
   39MOL   H32227758   5.880   6.738   1.285  2.1886  1.0455 -1.0433
   39MOL   H32327759   5.986   6.604   1.313  0.1777 -0.9872  2.2948
   39MOL   H32427760   5.978   6.890   1.527 -1.0161  1.3497 -0.0363
   39MOL   H32527761   5.814   6.874   1.478  1.6016  3.1854 -0.0830
   39MOL   C32627762   5.122   6.546   1.100 -0.6463 -0.0533 -0.5049
   39MOL   C32727763   5.007   6.548   1.197  0.0686  0.6731 -1.1297
   39MOL   C32827764   5.045   6.488   1.337 -0.2779 -0.5983  0.2924
   39MOL   C32927765   5.087   6.595   1.449  0.1011 -0.5230  0.4668
   39MOL   C33027766   5.225   6.652   1.426 -0.2995  0.1741 -0.6570
   39MOL   C33127767   5.268   6.772   1.515 -0.3043 -0.1864 -0.1939
   39MOL   C33227768   5.413   6.817   1.507 -0.2378  0.1884  0.3703
   39MOL   C33327769   5.469   6.857   1.646  0.7609 -0.5833  0.0179
   39MOL   O33427770   5.606   6.890   1.632  0.3415  0.0270  0.2033
   39MOL   C33527771   5.700   6.838   1.721  0.1667  0.5636 -0.6164
   39MOL   O33627772   5.675   6.772   1.816  0.1807  0.1030 -0.3794
   39MOL   C33727773   5.845   6.883   1.684  0.5538  1.1656  0.3590
   39MOL   C33827774   5.932   6.837   1.807 -0.0735 -0.4713  0.1091
   39MOL   C33927775   5.836   7.039   1.684  0.0948 -0.1258 -0.2046
   39MOL   H34027776   5.181   6.457   1.122 -1.2868  0.1784  2.4575
   39MOL   H34127777   5.181   6.638   1.094 -0.1624 -0.3435 -0.2876
   39MOL   H34227778   5.084   6.520   1.002 -1.3716 -0.7000 -0.0641
   39MOL   H34327779   4.928   6.487   1.154  1.3726 -1.5041 -0.4759
   39MOL   H34427780   4.971   6.650   1.212  3.0716  1.4619  1.2223
   39MOL   H34527781   5.120   6.409   1.324  2.0759  1.8304 -1.4451
   39MOL   H34627782   4.954   6.445   1.378 -0.9796  1.5134  0.9926
   39MOL   H34727783   5.093   6.546   1.546  0.9835 -0.9607  0.1992
   39MOL   H34827784   5.007   6.668   1.457 -1.5977 -2.2286 -0.4865
   39MOL   H34927785   5.305   6.579   1.433  0.0395  0.7535  1.7591
   39MOL   H35027786   5.224   6.678   1.320  1.1995  0.7585 -0.5495
   39MOL   H35127787   5.199   6.856   1.514 -0.0900 -0.0131 -1.4293
   39MOL   H35227788   5.252   6.733   1.616 -0.1269  0.0336 -0.0806
   39MOL   H35327789   5.417   6.905   1.443  2.1031 -0.6056 -0.6190
   39MOL   H35427790   5.479   6.737   1.475  1.2136  1.1025  1.0342
   39MOL   H35527791   5.414   6.940   1.691  0.8877 -2.1028  3.1157
   39MOL   H35627792   5.454   6.771   1.712  1.7375 -0.6089  0.2134
   39MOL   H35727793   5.910   6.899   1.893  0.9393 -0.8940  0.6812
   39MOL   H35827794   5.919   6.734   1.840  0.4728 -0.7847 -0.6339
   39MOL   H35927795   6.038   6.846   1.783  0.2255 -0.2778  1.4623
   39MOL   H36027796   5.770   7.078   1.607 -0.3781 -0.9955 -0.2496
   39MOL   H36127797   5.799   7.065   1.783 -0.3104 -0.7095 -0.1986
   39MOL   C36227798   6.190   7.260   2.818 -0.1932 -0.2010 -0.9914
   39MOL   C36327799   6.231   7.373   2.715 -0.2758 -0.1364 -0.8291
   39MOL   C36427800   6.151   7.382   2.585 -0.2691  0.6388  0.3179
   39MOL   C36527801   6.203   7.274   2.485 -0.3312  0.0171 -0.1756
   39MOL   C36627802   6.100   7.263   2.377  0.3032 -0.6336 -0.2080
   39MOL   C36727803   6.171   7.211   2.242  0.3884 -0.1141  0.3527
   39MOL   C36827804   6.073   7.235   2.119  0.0810 -0.2411  0.0257
   39MOL   C36927805   6.123   7.145   1.997  0.1525 -0.2407 -0.1480
   39MOL   O37027806   6.031   7.137   1.891 -0.5647  0.1667  0.0338
   39MOL   C37127807   6.070   7.113   1.766 -0.5824  0.0194 -0.0848
   39MOL   O37227808   6.181   7.072   1.732 -0.1423  0.1980 -0.0890
   39MOL   C37327809   5.958   7.140   1.659  0.3040 -0.7496  0.2097
   39MOL   C37427810   5.906   7.291   1.692  0.1218 -0.4461  0.9629
   39MOL   C37527811   6.023   7.143   1.520  0.1540  0.2162  0.0776
   39MOL   H37627812   6.088   7.286   2.847  0.6750  1.0620  1.0187
   39MOL   H37727813   6.203   7.161   2.774 -0.7405 -0.9502  0.5026
   39MOL   H37827814   6.264   7.268   2.897 -1.2470  0.3667 -0.0454
   39MOL   H37927815   6.335   7.357   2.688  0.3255  2.5294 -0.2859
   39MOL   H38027816   6.225   7.466   2.771 -2.2395 -0.3570 -0.6160
   39MOL   H38127817   6.165   7.482   2.544  2.1729 -1.0833 -3.2726
   39MOL   H38227818   6.045   7.367   2.610 -0.4877 -0.2325 -1.1117
   39MOL   H38327819   6.206   7.177   2.535  2.5810  0.7839  1.2676
   39MOL   H38427820   6.302   7.300   2.449 -0.3581  0.9435  0.3994
   39MOL   H38527821   6.024   7.197   2.419  0.6637 -0.0961  1.3176
   39MOL   H38627822   6.061   7.363   2.360  3.0922  1.0887  3.0538
   39MOL   H38727823   6.184   7.104   2.253  0.8646 -0.2767 -1.5977
   39MOL   H38827824   6.269   7.257   2.232  0.2960  0.0352  0.1219
   39MOL   H38927825   6.062   7.338   2.086 -3.1360 -1.0248 -1.6155
   39MOL   H39027826   5.974   7.194   2.143  0.1392  0.3379  1.2937
   39MOL   H39127827   6.225   7.171   1.969 -0.2148 -1.0100 -2.3117
   39MOL   H39227828   6.135   7.046   2.042  0.2204  0.2073  0.8266
   39MOL   H39327829   5.979   7.372   1.684 -0.1330 -0.3309 -0.2722
   39MOL   H39427830   5.824   7.303   1.622  0.1590 -0.5072  0.9085
   39MOL   H39527831   5.868   7.317   1.791  1.7798 -1.8389  1.9840
   39MOL   H39627832   6.116   7.199   1.535 -0.1276  0.4060  1.1471
   39MOL   H39727833   6.077   7.050   1.503  0.2382  0.1235  0.8754
   39MOL   C39827834   6.718   6.706   1.776 -0.0998  0.0537  0.1053
   39MOL   C39927835   6.611   6.789   1.713 -0.8531 -0.3515  0.0323
   39MOL   C40027836   6.559   6.743   1.589  0.2505  0.1096  0.5114
   39MOL   C40127837   6.469   6.851   1.519  0.6787  0.0222 -0.8607
   39MOL   C40227838   6.433   6.816   1.374  0.0313  0.1188  0.2474
   39MOL   C40327839   6.327   6.911   1.321  0.0781 -0.2671  0.1640
   39MOL   C40427840   6.367   7.056   1.286 -0.9018  0.1985  0.5140
   39MOL   C40527841   6.264   7.123   1.195  0.1901 -0.7589 -0.7054
   39MOL   O40627842   6.169   7.168   1.281 -0.4433  0.7154  0.5325
   39MOL   C40727843   6.039   7.136   1.275 -0.1948 -0.2269  0.3196
   39MOL   O40827844   5.993   7.057   1.193  0.2984  0.5259  0.4047
   39MOL   C40927845   5.955   7.203   1.390  0.1827  0.2534  0.6536
   39MOL   C41027846   5.803   7.169   1.364  0.5306  0.4860 -0.4854
   39MOL   C41127847   5.981   7.362   1.386  0.5690 -0.2030  0.3238
   39MOL   H41227848   6.819   6.738   1.749  0.5899 -0.6609  1.7364
   39MOL   H41327849   6.706   6.598   1.768 -1.4003  0.1978 -0.0466
   39MOL   H41427850   6.706   6.736   1.880  0.4344 -1.2398  0.5429
   39MOL   H41527851   6.656   6.887   1.698 -0.3153 -0.6269 -0.1604
   39MOL   H41627852   6.535   6.800   1.791  0.2053 -0.1836  1.0592
   39MOL   H41727853   6.634   6.720   1.513 -0.9829 -2.5501  0.0350
   39MOL   H41827854   6.501   6.651   1.590 -2.7413  1.8411 -2.4285
   39MOL   H41927855   6.528   6.940   1.501  0.4861  0.7137  1.8117
   39MOL   H42027856   6.381   6.877   1.578  0.4421  1.0821 -1.6595
   39MOL   H42127857   6.528   6.816   1.320 -0.8399 -0.3610 -1.3103
   39MOL   H42227858   6.397   6.713   1.374 -3.1797  1.1535  3.4107
   39MOL   H42327859   6.240   6.929   1.383 -0.5412 -1.3107 -0.3981
   39MOL   H42427860   6.283   6.871   1.230 -0.2292 -0.2188  0.2910
   39MOL   H42527861   6.376   7.118   1.375  3.2549 -0.3170  0.5331
   39MOL   H42627862   6.465   7.062   1.240 -0.5220 -1.2169  1.1069
   39MOL   H42727863   6.304   7.208   1.140  0.7866 -1.1191 -0.8344
   39MOL   H42827864   6.232   7.060   1.112 -0.8579 -2.1762  0.7534
   39MOL   H42927865   5.777   7.176   1.259  0.7401 -1.2870 -0.6734
   39MOL   H43027866   5.734   7.235   1.416 -0.7012 -1.3192  0.2257
   39MOL   H43127867   5.771   7.072   1.401 -0.2934  0.3627 -1.5069
   39MOL   H43227868   6.085   7.373   1.415  0.4232 -0.2076  0.8488
   39MOL   H43327869   5.922   7.406   1.466 -1.2778  2.0225 -2.1410
   39MOL   C43427870   6.101   7.663   2.283  0.5949  0.1913  0.7782
   39MOL   C43527871   6.011   7.691   2.162 -0.4139 -0.8937 -0.0705
   39MOL   C43627872   6.086   7.711   2.028  0.7025  0.0551  0.0935
   39MOL   C43727873   5.986   7.734   1.912 -0.3600  0.2693 -0.4223
   39MOL   C43827874   6.061   7.737   1.779 -0.0757 -0.1150 -0.0049
   39MOL   C43927875   5.971   7.759   1.655 -0.5730  0.9345  0.1485
   39MOL   C44027876   6.055   0.022   1.538  0.5628  0.5536 -0.1797
   39MOL   C44127877   5.980   0.023   1.404  0.0846  0.4448  0.4790
   39MOL   O44227878   5.938   7.676   1.372 -0.0082  0.4498 -0.4991
   39MOL   C44327879   6.029   7.594   1.310 -0.3730 -0.1609  1.3238
   39MOL   O44427880   6.147   7.628   1.287 -0.1002  0.3618  0.3483
   39MOL   C44527881   5.968   7.462   1.264  0.7849 -0.1418  0.7459
   39MOL   C44627882   5.819   7.473   1.236  0.0553 -0.0652  0.1306
   39MOL   C44727883   6.036   7.417   1.126 -0.2479 -0.2681 -0.2845
   39MOL   H44827884   6.046   7.646   2.375  2.2440  0.3315  1.8018
   39MOL   H44927885   6.166   7.750   2.290  0.4500  0.4938 -1.1940
   39MOL   H45027886   6.172   7.580   2.272  1.4228  1.0763 -0.8201
   39MOL   H45127887   5.951   7.779   2.185  0.1081 -0.0509 -1.8010
   39MOL   H45227888   5.931   7.618   2.175 -2.4883  1.2948 -0.1233
   39MOL   H45327889   6.147   7.622   2.008 -0.7191 -0.6793 -1.0105
   39MOL   H45427890   6.157   0.012   2.045 -1.6488  1.9048  1.4316
   39MOL   H45527891   5.935   0.048   1.935  1.9051  0.8663  2.5439
   39MOL   H45627892   5.909   7.657   1.904  1.7628 -1.6892 -2.8017
   39MOL   H45727893   6.144   0.028   1.785 -0.3162  0.1171  0.5708
   39MOL   H45827894   6.107   7.638   1.770 -1.7639 -0.9606  0.3523
   39MOL   H45927895   5.893   0.054   1.675 -1.4646  0.4170 -1.3129
   39MOL   H46027896   5.916   7.667   1.636  0.0947  0.5095  0.2836
   39MOL   H46127897   6.098   0.117   1.571 -0.2490  0.3256  1.6250
   39MOL   H46227898   6.135   7.728   1.534 -0.2421 -0.3067 -0.4706
   39MOL   H46327899   6.034   0.074   1.325  0.5993 -0.9936 -0.1085
   39MOL   H46427900   5.897   0.089   1.428  0.4532  1.3752 -0.7972
   39MOL   H46527901   5.781   7.553   1.171 -1.7600 -1.2549 -0.3191
   39MOL   H46627902   5.773   7.384   1.193 -0.8437 -0.6715  2.3226
   39MOL   H46727903   5.761   7.497   1.325 -0.2311 -1.0544  0.2159
   39MOL   H46827904   6.141   7.399   1.146 -0.7820  0.2841  3.2795
   39MOL   H46927905   5.988   7.322   1.105  0.0478 -0.4128 -0.3049
   39MOL   C47027906   6.269   7.557   0.218  0.2935 -0.5141  0.7646
   39MOL   C47127907   6.135   7.594   0.277 -0.7531 -0.3724 -0.0576
   39MOL   C47227908   6.064   7.487   0.359 -0.3341 -0.3976 -0.6912
   39MOL   C47327909   5.914   7.499   0.366 -0.6530 -0.2630 -0.0565
   39MOL   C47427910   5.848   7.378   0.429  0.6642 -0.0001  0.3798
   39MOL   C47527911   5.838   7.398   0.580 -0.1797 -0.5199  0.3178
   39MOL   C47627912   5.779   7.276   0.649 -0.3002  0.4409  0.5517
   39MOL   C47727913   5.751   7.280   0.797  0.7012  0.1444  0.5567
   39MOL   O47827914   5.872   7.317   0.867  0.1382 -0.4845  0.5201
   39MOL   C47927915   5.881   7.442   0.924  0.1819 -1.0949  0.7803
   39MOL   O48027916   5.787   7.517   0.926  0.5501  0.2889  0.0641
   39MOL   C48127917   6.020   7.483   0.983 -0.0020  0.5695  0.1069
   39MOL   C48227918   6.012   7.639   1.003  0.7312 -0.1137 -0.3436
   39MOL   C48327919   6.123   7.429   0.881 -0.2385 -0.0708 -0.3082
   39MOL   H48427920   6.335   7.534   0.302  1.3685  0.5078  0.2085
   39MOL   H48527921   6.302   7.647   0.168  0.9174  0.2540  2.5079
   39MOL   H48627922   6.256   7.480   0.142  3.0769  0.9926 -1.3084
   39MOL   H48727923   6.145   7.690   0.328 -1.5485  0.1682 -0.9058
   39MOL   H48827924   6.087   7.615   0.182  1.1922 -2.8880 -1.6900
   39MOL   H48927925   6.088   7.388   0.320 -1.3223 -0.8662 -0.1273
   39MOL   H49027926   6.107   7.495   0.459 -0.0758 -0.2235 -0.8157
   39MOL   H49127927   5.889   7.592   0.417 -0.5813 -1.5403  2.3803
   39MOL   H49227928   5.867   7.505   0.268  0.4512 -1.1492 -0.6460
   39MOL   H49327929   5.747   7.362   0.391  0.5620  0.1832  0.5719
   39MOL   H49427930   5.900   7.286   0.403 -0.7855 -0.1110 -2.3025
   39MOL   H49527931   5.938   7.409   0.621 -1.0532 -0.6802  2.5765
   39MOL   H49627932   5.774   7.479   0.616 -1.3654 -1.2371 -0.1550
   39MOL   H49727933   5.679   7.262   0.608 -0.7419  0.0348  1.7310
   39MOL   H49827934   5.839   7.188   0.625 -1.7344 -0.3216 -0.2779
   39MOL   H49927935   5.733   7.180   0.836  0.3007  0.3719  0.9629
   39MOL   H50027936   5.672   7.348   0.828  1.2953  0.4359  1.4421
   39MOL   H50127937   5.980   7.691   0.912 -0.9743 -0.9341 -0.2374
   39MOL   H50227938   6.105   7.686   1.034 -0.2364  0.5295  1.6216
   39MOL   H50327939   5.935   7.669   1.074  1.2716  1.9426 -0.5931
   39MOL   H50427940   6.146   7.325   0.905 -1.1123 -0.5638 -1.5445
   39MOL   H50527941   6.084   7.411   0.781  0.3689 -2.6063 -0.1259
   39MOL   C50627942   6.288   0.400   7.640 -0.0141  0.7382 -0.4602
   39MOL   C50727943   6.253   0.413   0.005  0.3301  0.1403  0.3716
   39MOL   C50827944   6.298   0.299   0.085  0.3076  0.5159  0.1161
   39MOL   C50927945   6.236   0.280   0.230 -0.1401 -0.3208  0.0099
   39MOL   C51027946   6.286   0.163   0.311  0.5901 -0.8330  0.5998
   39MOL   C51127947   6.213   0.134   0.447 -0.3641  0.1560 -0.2312
   39MOL   C51227948   6.267   0.023   0.537 -0.1228  0.1560 -0.5001
   39MOL   C51327949   6.158   7.749   0.632 -0.0027  0.6333 -0.2764
   39MOL   O51427950   6.190   7.621   0.691  0.5351  0.6569 -0.3030
   39MOL   C51527951   6.269   7.619   0.803 -0.4761 -0.2754 -0.2447
   39MOL   O51627952   6.330   7.717   0.839  0.5692  0.0753 -0.6950
   39MOL   C51727953   6.275   7.480   0.865  0.5969 -0.8506 -0.2029
   39MOL   C51827954   6.350   7.491   1.001 -0.1038 -0.5904 -0.1114
   39MOL   C51927955   6.339   7.377   0.767  0.1501  0.2257  0.2223
   39MOL   H52027956   6.256   0.304   7.598 -0.5028  0.1527  1.2202
   39MOL   H52127957   6.394   0.416   7.621  0.6851 -1.1574  1.5345
   39MOL   H52227958   6.233   0.476   7.585 -2.0362  0.1948  0.7555
   39MOL   H52327959   6.146   0.434   0.010  0.2853  0.3365 -1.2044
   39MOL   H52427960   6.293   0.502   0.055 -1.9631  1.2806  0.2126
   39MOL   H52527961   6.279   0.201   0.041 -0.0554  0.8867 -0.5624
   39MOL   H52627962   6.404   0.313   0.103  0.0645  2.9365 -0.2098
   39MOL   H52727963   6.266   0.368   0.288  2.8012 -1.0368 -0.3379
   39MOL   H52827964   6.128   0.292   0.219 -0.0105  1.2590  0.3729
   39MOL   H52927965   6.275   0.073   0.250 -1.1430  0.3000 -0.8109
   39MOL   H53027966   6.394   0.171   0.320  0.6089  0.7172 -0.8720
   39MOL   H53127967   6.110   0.110   0.420  0.4682 -2.8903 -0.8585
   39MOL   H53227968   6.210   0.225   0.508 -0.1127  0.6438 -0.9402
   39MOL   H53327969   6.364   0.055   0.575  0.6933 -2.5462 -0.2522
   39MOL   H53427970   6.300   7.722   0.472  0.9147  0.9501 -0.9879
   39MOL   H53527971   6.071   7.728   0.570  1.5244 -2.8236 -1.3747
   39MOL   H53627972   6.135   0.041   0.711 -2.0021  1.2557 -1.4054
   39MOL   H53727973   6.445   7.538   0.974 -1.1599  0.5781 -1.8657
   39MOL   H53827974   6.368   7.395   1.050  1.2203 -0.6171 -0.6162
   39MOL   H53927975   6.296   7.553   1.073  0.1139  0.3716 -0.7649
   39MOL   H54027976   6.313   7.277   0.801 -0.4837  0.0455 -0.7690
   39MOL   H54127977   6.279   7.396   0.677  2.2218  0.0515 -1.2221
   39MOL   C54227978   7.147   7.505   0.335  0.1160  0.3552 -0.2080
   39MOL   C54327979   7.233   7.436   0.450 -0.6251 -0.0352  0.0643
   39MOL   C54427980   7.169   7.461   0.586  0.2606 -0.4208 -0.2139
   39MOL   C54527981   7.216   7.385   0.708  0.0737  0.0386 -0.3881
   39MOL   C54627982   7.136   7.418   0.837 -0.1104 -1.3826 -0.0839
   39MOL   C54727983   6.999   7.355   0.850 -0.1500  0.2227  0.1352
   39MOL   C54827984   6.922   7.391   0.978  0.0019  0.5216 -0.1607
   39MOL   C54927985   6.778   7.331   0.986  0.3950  0.4627 -0.0981
   39MOL   O55027986   6.701   7.365   0.866 -0.3196  0.2289 -0.0358
   39MOL   C55127987   6.571   7.314   0.848 -0.2154  0.1599 -0.6637
   39MOL   O55227988   6.514   7.235   0.924 -0.0067  0.2100  0.0706
   39MOL   C55327989   6.494   7.366   0.729 -0.9834  0.0315  0.3081
   39MOL   C55427990   6.530   7.507   0.688 -0.3803 -0.7084  0.1159
   39MOL   C55527991   6.503   7.261   0.605  1.4296  0.4671  0.0577
   39MOL   H55627992   7.059   7.450   0.302 -0.6397  1.1464  0.4536
   39MOL   H55727993   7.205   7.520   0.245 -1.9430 -1.5353 -1.9117
   39MOL   H55827994   7.121   7.604   0.373 -2.2938 -0.0945 -0.6145
   39MOL   H55927995   7.265   7.334   0.429 -1.6530 -0.9664  2.7875
   39MOL   H56027996   7.325   7.493   0.463 -0.0007 -1.6514  3.3362
   39MOL   H56127997   7.062   7.446   0.578 -0.1838  2.0311  0.8124
   39MOL   H56227998   7.191   7.567   0.598 -1.2026  0.2097 -2.8330
   39MOL   H56327999   7.210   7.278   0.692 -1.1419  0.2059 -1.0656
   39MOL   H56428000   7.321   7.401   0.733  0.1131  0.7864 -1.0162
   39MOL   H56528001   7.135   7.527   0.843 -2.5799 -1.4382  0.8847
   39MOL   H56628002   7.197   7.398   0.925 -0.3420 -3.6119 -0.3876
   39MOL   H56728003   6.938   7.378   0.763 -2.2590 -0.8682  1.3017
   39MOL   H56828004   7.008   7.247   0.853 -0.8522  0.0985 -1.6446
   39MOL   H56928005   6.986   7.370   1.063 -1.7648 -0.5368  0.9366
   39MOL   H57028006   6.902   7.498   0.973 -2.3699  0.1104 -0.1997
   39MOL   H57128007   6.722   7.371   1.071  3.2919 -0.7148  2.4157
   39MOL   H57228008   6.784   7.222   0.987  0.9974  0.4627 -1.9154
   39MOL   H57328009   6.471   7.538   0.603  0.8813  1.6732  0.0821
   39MOL   H57428010   6.636   7.498   0.666 -0.0846  0.4752  0.9608
   39MOL   H57528011   6.524   7.586   0.763 -2.2425  0.4420 -1.2193
   39MOL   H57628012   6.452   7.305   0.519  0.5316 -0.9694 -0.1762
   39MOL   H57728013   6.426   7.185   0.622  1.5374  0.9739  3.0210
   39MOL   C57828014   6.518   6.274   1.308 -0.4811  0.2876 -0.8897
   39MOL   C57928015   6.618   6.330   1.208 -0.5165 -0.5965  0.2641
   39MOL   C58028016   6.566   6.455   1.133  0.3743 -0.3734 -0.2774
   39MOL   C58128017   6.647   6.496   1.011 -0.3147  0.4387  0.5842
   39MOL   C58228018   6.592   6.616   0.940 -0.6853 -0.7212  0.3496
   39MOL   C58328019   6.697   6.670   0.836 -0.1872 -0.4448  0.4774
   39MOL   C58428020   6.656   6.785   0.742  0.2119  0.6175 -0.0155
   39MOL   C58528021   6.626   6.915   0.809 -0.1072  0.2418  0.1475
   39MOL   O58628022   6.595   7.010   0.703  0.6335 -0.8857 -0.2904
   39MOL   C58728023   6.687   7.091   0.645  0.6539 -0.6580  0.5275
   39MOL   O58828024   6.805   7.102   0.679 -0.6636  0.1208 -0.2885
   39MOL   C58928025   6.631   7.192   0.546 -0.6378  0.0517  0.4815
   39MOL   C59028026   6.729   7.297   0.509  0.7092 -0.1062 -0.0263
   39MOL   C59128027   6.584   7.114   0.417  0.7706 -0.2226  0.1409
   39MOL   H59228028   6.414   6.254   1.282 -0.4603 -0.9329 -0.0836
   39MOL   H59328029   6.502   6.330   1.400 -1.2086 -0.3699 -0.6129
   39MOL   H59428030   6.547   6.175   1.344 -0.3349  0.1730 -1.3186
   39MOL   H59528031   6.631   6.256   1.129  1.7920 -0.1647  0.2050
   39MOL   H59628032   6.712   6.357   1.255 -0.8225 -1.5928  1.4827
   39MOL   H59728033   6.552   6.535   1.207 -0.4801 -0.0009 -0.8291
   39MOL   H59828034   6.465   6.437   1.094 -0.1718  0.5330  0.6830
   39MOL   H59928035   6.645   6.417   0.936  0.9833  2.2138 -1.3875
   39MOL   H60028036   6.750   6.520   1.037 -0.1917  2.6085 -1.6653
   39MOL   H60128037   6.568   6.693   1.014 -2.0886 -0.6680 -0.1520
   39MOL   H60228038   6.502   6.581   0.891 -1.3137 -1.4511  2.0054
   39MOL   H60328039   6.735   6.589   0.774 -0.2289 -0.0932 -0.0129
   39MOL   H60428040   6.783   6.712   0.889  0.3724  0.4375 -1.0782
   39MOL   H60528041   6.572   6.754   0.680  1.4870 -3.2675  0.0299
   39MOL   H60628042   6.729   6.797   0.662  0.7889  1.3333  0.6062
   39MOL   H60728043   6.551   6.923   0.887  0.1425 -0.0964  0.4248
   39MOL   H60828044   6.722   6.950   0.847  0.1840  0.2475 -0.5934
   39MOL   H60928045   6.821   7.250   0.475  1.5608  1.9624 -0.6477
   39MOL   H61028046   6.692   7.377   0.444  2.1079 -0.5906 -1.4457
   39MOL   H61128047   6.766   7.356   0.593 -0.4563 -1.0349  1.1589
   39MOL   H61228048   6.504   7.172   0.372  0.6093 -0.4743  0.0977
   39MOL   H61328049   6.533   7.023   0.451  1.5350 -1.3124 -1.5732
   39MOL   C61428050   6.694   0.256   7.412 -0.7250 -0.2274 -0.6391
   39MOL   C61528051   6.580   0.207   7.504 -0.3189 -0.5193  0.0048
   39MOL   C61628052   6.604   0.060   7.544 -0.1508 -0.2299 -0.1022
   39MOL   C61728053   6.490   0.013   7.640 -0.5213  0.0773  0.8765
   39MOL   C61828054   6.480   7.644   7.666  0.4930 -0.2677 -0.1665
   39MOL   C61928055   6.597   7.578   7.733 -0.5084  0.7174  0.2232
   39MOL   C62028056   6.576   7.432   0.001  0.3133  0.8837  0.0976
   39MOL   C62128057   6.684   7.384   0.104  0.2111 -0.2026  0.0193
   39MOL   O62228058   6.635   7.264   0.172 -0.8475 -0.7159  0.0403
   39MOL   C62328059   6.729   7.176   0.217  0.3643  0.1947  0.0499
   39MOL   O62428060   6.849   7.183   0.193  0.4427 -0.0266 -0.5268
   39MOL   C62528061   6.674   7.060   0.306  0.4997 -0.4248  0.2450
   39MOL   C62628062   6.797   6.978   0.363  0.6548 -0.8412  0.1911
   39MOL   C62728063   6.586   6.974   0.215  0.5215  0.2605  0.4657
   39MOL   H62828064   6.781   0.276   7.474 -1.0493 -0.4761 -0.1014
   39MOL   H62928065   6.680   0.354   7.366  0.6548  0.2051 -0.1514
   39MOL   H63028066   6.707   0.182   7.333 -1.3618  2.7227 -3.6335
   39MOL   H63128067   6.594   0.263   7.596  2.2231 -0.5088 -0.3736
   39MOL   H63228068   6.482   0.220   7.457 -1.1577 -0.0921  1.8144
   39MOL   H63328069   6.704   0.041   7.582  0.9199 -0.4660 -2.8858
   39MOL   H63428070   6.588   0.003   7.453  2.1935 -1.0801 -0.0113
   39MOL   H63528071   6.394   0.044   7.600 -0.0815 -1.2083 -1.2702
   39MOL   H63628072   6.492   0.080   7.725 -0.2133  1.3668 -0.1371
   39MOL   H63728073   6.397   7.625   7.734 -0.4502 -1.8551 -1.7021
   39MOL   H63828074   6.454   7.601   7.569 -0.3584 -0.8503  0.3110
   39MOL   H63928075   6.685   7.590   7.670 -0.3206  1.7111  0.6591
   39MOL   H64028076   6.623   7.638   0.041  1.1505  1.0373 -0.4891
   39MOL   H64128077   6.561   7.368   7.694 -1.8080  0.4269  0.7518
   39MOL   H64228078   6.486   7.426   0.064  0.7656  1.1753  0.7829
   39MOL   H64328079   6.783   7.376   0.060  1.3752  0.6050  2.4190
   39MOL   H64428080   6.696   7.462   0.179 -0.3393  1.2698 -1.3937
   39MOL   H64528081   6.759   6.894   0.419  0.1883 -1.2837 -0.7789
   39MOL   H64628082   6.860   7.032   0.433 -0.8248  1.5848 -0.2777
   39MOL   H64728083   6.869   6.939   0.290  2.4037  1.3154  0.6922
   39MOL   H64828084   6.521   7.044   0.161  0.6975 -0.3093 -0.5022
   39MOL   H64928085   6.516   6.918   0.277 -0.8456 -0.4070 -1.6076
   39MOL   C65028086   6.247   6.089   0.709 -0.2986 -0.2516  0.1290
   39MOL   C65128087   6.281   6.212   0.791 -0.3841 -0.4335  0.3953
   39MOL   C65228088   6.425   6.222   0.832 -0.7205 -0.2948 -0.0697
   39MOL   C65328089   6.525   6.235   0.720  0.1955  0.3062  0.7679
   39MOL   C65428090   6.495   6.360   0.635  0.2895  0.1699 -0.4415
   39MOL   C65528091   6.604   6.399   0.533  0.1890 -0.2083 -0.0622
   39MOL   C65628092   6.559   6.531   0.463 -0.9197 -0.1815  0.1276
   39MOL   C65728093   6.669   6.592   0.375  0.3983 -0.4577  0.3887
   39MOL   O65828094   6.625   6.704   0.297 -0.7215 -0.0473  0.0818
   39MOL   C65928095   6.707   6.747   0.201 -0.0888  0.4875  0.3890
   39MOL   O66028096   6.822   6.708   0.179  0.1408 -0.1315 -0.1715
   39MOL   C66128097   6.638   6.856   0.119 -0.0112 -0.1032 -0.1758
   39MOL   C66228098   6.740   6.919   0.026  0.0854  0.3033  0.0138
   39MOL   C66328099   6.519   6.799   0.039  0.1698 -0.5374 -1.2492
   39MOL   H66428100   6.260   5.996   0.763  1.7409 -0.5133 -0.7579
   39MOL   H66528101   6.292   6.103   0.611 -2.0886  1.2303 -0.5234
   39MOL   H66628102   6.146   6.096   0.668  0.0525 -0.4669 -0.7938
   39MOL   H66728103   6.212   6.214   0.875 -1.5608 -1.2467 -0.5346
   39MOL   H66828104   6.255   6.301   0.734  1.2376 -0.0122  0.2906
   39MOL   H66928105   6.455   6.139   0.895 -1.1629 -1.0266 -0.8076
   39MOL   H67028106   6.435   6.311   0.895 -0.7720 -1.1710  1.1731
   39MOL   H67128107   6.528   6.145   0.658 -0.0427  1.3044 -0.7330
   39MOL   H67228108   6.627   6.246   0.757  0.0879  1.5142  0.7227
   39MOL   H67328109   6.475   6.441   0.705  1.3015  1.2340 -1.3611
   39MOL   H67428110   6.400   6.356   0.581  0.1920 -2.4486 -0.1649
   39MOL   H67528111   6.699   6.405   0.587 -0.3017  1.6288  0.6360
   39MOL   H67628112   6.613   6.319   0.460 -0.3510 -0.7398  0.4523
   39MOL   H67728113   6.520   6.601   0.536  1.9255  1.8717 -0.2444
   39MOL   H67828114   6.472   6.517   0.400 -0.5393 -1.3812 -0.1492
   39MOL   H67928115   6.714   6.515   0.314 -1.2891 -1.6979  0.6788
   39MOL   H68028116   6.743   6.625   0.449  0.4479  1.2347 -0.3947
   39MOL   H68128117   6.785   6.848   7.736  0.0282 -1.9280  2.1883
   39MOL   H68228118   6.830   6.956   0.075  0.6743  0.4465 -1.1593
   39MOL   H68328119   6.706   6.996   7.736  1.5077  0.1523 -0.8616
   39MOL   H68428120   6.468   6.730   0.107  0.6795  0.7854  0.5296
   39MOL   H68528121   6.448   6.877   0.011  2.4347  2.2755  0.5614
   39MOL   C68628122   6.642   5.624   0.251  0.5711  0.0664  0.7248
   39MOL   C68728123   6.625   5.722   0.371 -0.1574 -0.0910  0.1714
   39MOL   C68828124   6.547   5.842   0.316  0.0916  0.2931 -0.2982
   39MOL   C68928125   6.631   5.937   0.233 -0.0769  0.1205  0.1243
   39MOL   C69028126   6.560   6.060   0.182  0.3382 -0.0712  0.2700
   39MOL   C69128127   6.648   6.151   0.102  0.3296  0.1144 -0.6648
   39MOL   C69228128   6.575   6.281   0.083  0.0887 -0.8658  0.2034
   39MOL   C69328129   6.667   6.388   0.010 -0.1110  0.3901  0.6610
   39MOL   O69428130   6.597   6.513   7.774 -0.1881  0.4639  0.2810
   39MOL   C69528131   6.636   6.597   7.686 -0.3076 -0.7418  0.3628
   39MOL   O69628132   6.729   6.584   7.608 -0.2738 -0.3083 -0.2180
   39MOL   C69728133   6.536   6.716   7.685  0.2269  0.3793  0.0822
   39MOL   C69828134   6.583   6.809   7.565 -0.5121 -0.0604 -0.1076
   39MOL   C69928135   6.399   6.666   7.634  0.5002 -0.3921 -0.1560
   39MOL   H70028136   6.708   5.544   0.284  0.7930  0.5588  1.5049
   39MOL   H70128137   6.693   5.666   0.165  1.9317  0.3465  1.6524
   39MOL   H70228138   6.543   5.591   0.217  1.4271 -0.4009 -1.3549
   39MOL   H70328139   6.713   5.750   0.429  0.3174 -0.1148 -0.5250
   39MOL   H70428140   6.558   5.673   0.441  0.3768 -1.0453  0.0247
   39MOL   H70528141   6.501   5.904   0.393 -2.2084 -1.3245 -0.3002
   39MOL   H70628142   6.455   5.808   0.269  1.3769 -2.9649 -0.6174
   39MOL   H70728143   6.685   5.890   0.151  3.0762  1.9128  1.0834
   39MOL   H70828144   6.706   5.984   0.297  0.6938 -2.1144  0.8936
   39MOL   H70928145   6.521   6.123   0.262 -1.6256  0.0662 -0.7669
   39MOL   H71028146   6.473   6.036   0.122 -1.2760  1.2690  2.0228
   39MOL   H71128147   6.735   6.186   0.157 -0.8203  0.6315  0.8545
   39MOL   H71228148   6.682   6.094   0.016 -1.1250  0.1741 -1.2832
   39MOL   H71328149   6.489   6.264   0.018  1.0465  0.0562 -1.3486
   39MOL   H71428150   6.538   6.337   0.169 -0.3846  0.1836 -0.6718
   39MOL   H71528151   6.691   6.340   7.695 -1.5040 -0.7778  0.8754
   39MOL   H71628152   6.753   6.412   0.073  1.9038 -1.3555 -1.3557
   39MOL   H71728153   6.553   6.913   7.565  2.3547  0.8097 -1.0289
   39MOL   H71828154   6.690   6.829   7.563  0.0953 -2.5935  2.2772
   39MOL   H71928155   6.542   6.780   7.469 -0.5270 -0.4905  0.0255
   39MOL   H72028156   6.338   6.639   7.719 -0.0416  0.1669 -0.3637
   39MOL   H72128157   6.408   6.594   7.552  1.6000  0.2597 -0.6262
   39MOL   H72228158   6.340   6.751   7.600 -1.7270 -1.9668 -0.3071
   40MOL     C128159   5.429   4.554   6.710  0.3636 -0.3413  0.6238
   40MOL     C228160   5.289   4.555   6.655 -0.0758 -0.1099  0.4403
   40MOL     C328161   5.223   4.684   6.617 -0.1567  0.3509 -0.6830
   40MOL     C428162   5.181   4.749   6.753 -0.5731  0.4847  0.8275
   40MOL     C528163   5.096   4.880   6.732 -0.5181  0.6267 -0.0204
   40MOL     C628164   5.034   4.942   6.855 -0.3186  0.4325 -0.5184
   40MOL     C728165   4.933   5.061   6.827  0.1641 -0.0561 -0.4657
   40MOL     C828166   4.883   5.137   6.955 -0.1220  0.5265  1.8390
   40MOL     O928167   4.799   5.250   6.934  0.0907  0.3759 -0.1914
   40MOL    C1028168   4.677   5.237   6.879 -0.3487 -1.4046  0.3278
   40MOL    O1128169   4.624   5.133   6.838  0.6454  0.3097 -0.4604
   40MOL    C1228170   4.620   5.374   6.846 -0.4606  0.5937  0.0499
   40MOL    C1328171   4.619   5.462   6.977  0.4737  1.2258 -0.3160
   40MOL    C1428172   4.699   5.456   6.733  0.1055 -0.1049  0.0617
   40MOL    H1528173   5.455   4.451   6.735  2.4492  0.1141  0.3838
   40MOL    H1628174   5.420   4.595   6.811  1.3013  2.2172 -0.3064
   40MOL    H1728175   5.510   4.605   6.658 -0.9315  2.2783  1.0633
   40MOL    H1828176   5.222   4.505   6.725 -1.1377  0.3313 -0.2626
   40MOL    H1928177   5.281   4.494   6.565 -2.6145  0.0954  0.5059
   40MOL    H2028178   5.299   4.747   6.571  1.4801 -1.0690  0.0205
   40MOL    H2128179   5.138   4.661   6.553  1.0012 -0.6611 -1.9081
   40MOL    H2228180   5.121   4.678   6.809  1.2633  0.5124  2.9200
   40MOL    H2328181   5.269   4.773   6.813 -0.3723 -1.3990  1.3026
   40MOL    H2428182   5.016   4.859   6.661  1.1168 -0.2651 -1.6377
   40MOL    H2528183   5.161   4.954   6.686  0.6788  0.1190  0.8353
   40MOL    H2628184   5.105   4.990   6.922  0.2127 -0.7390 -0.2380
   40MOL    H2728185   4.996   4.853   6.906  0.6891  0.5410  0.4234
   40MOL    H2828186   4.850   5.035   6.762  0.6056 -0.1440 -0.9995
   40MOL    H2928187   4.998   5.132   6.775 -2.2847  1.5542 -1.4096
   40MOL    H3028188   4.969   5.178   7.008  1.4988  0.2207 -0.4814
   40MOL    H3128189   4.856   5.077   7.042  0.1389  0.3449  1.7970
   40MOL    H3228190   4.565   5.412   7.057  2.5356  0.9880  0.9728
   40MOL    H3328191   4.714   5.495   7.020 -0.1406  3.3792 -0.5728
   40MOL    H3428192   4.553   5.546   6.956 -2.1708 -0.3528  1.4782
   40MOL    H3528193   4.805   5.462   6.758  0.2810  2.0988 -1.0143
   40MOL    H3628194   4.667   5.560   6.732 -0.2131 -0.1952  0.5524
   40MOL    H3728195   4.518   5.355   6.814 -0.6009  1.2246  0.1147
   40MOL    C3828196   4.090   5.567   5.907  0.5744 -0.1305 -0.1152
   40MOL    C3928197   4.098   5.724   5.923 -0.7469 -1.5143 -1.0471
   40MOL    C4028198   4.237   5.793   5.945 -0.2730  0.0122  0.6480
   40MOL    C4128199   4.315   5.744   6.072  0.0016  0.1552 -0.1488
   40MOL    C4228200   4.237   5.746   6.202 -0.0040  0.4448  0.3343
   40MOL    C4328201   4.315   5.696   6.319  0.3537 -0.8546  0.3522
   40MOL    C4428202   4.298   5.548   6.343  0.3662  0.2581  1.0404
   40MOL    C4528203   4.349   5.486   6.476 -0.2353 -0.0760 -0.5530
   40MOL    O4628204   4.484   5.507   6.514 -0.9618  0.1163 -0.0357
   40MOL    C4728205   4.554   5.395   6.527  0.3600 -0.6760 -0.5996
   40MOL    O4828206   4.513   5.283   6.497  0.2256  0.4191 -0.1320
   40MOL    C4928207   4.699   5.416   6.582 -0.0269 -0.3946 -0.1707
   40MOL    C5028208   4.785   5.290   6.578 -0.1499  0.4845  1.0716
   40MOL    C5128209   4.767   5.538   6.502 -0.2886 -0.1028 -0.6975
   40MOL    H5228210   4.154   5.528   5.827 -0.5938 -2.4048  0.0193
   40MOL    H5328211   3.991   5.535   5.873  1.4261 -1.4265 -1.4989
   40MOL    H5428212   4.116   5.504   5.992 -1.8036 -0.4480  0.4048
   40MOL    H5528213   4.025   5.748   6.001  0.4725  0.6055 -0.5426
   40MOL    H5628214   4.063   5.770   5.831 -1.1262  0.6076  0.1118
   40MOL    H5728215   4.302   5.768   5.860  0.1547  1.2595  0.5970
   40MOL    H5828216   4.234   5.901   5.934 -0.8929 -0.1251 -0.5765
   40MOL    H5928217   4.413   5.791   6.077  0.2678 -0.4474  0.4723
   40MOL    H6028218   4.342   5.638   6.066  0.6482  0.3800 -1.2698
   40MOL    H6128219   4.216   5.850   6.224  2.5652  0.9572  0.5469
   40MOL    H6228220   4.135   5.708   6.197  0.7061 -1.6567  1.0662
   40MOL    H6328221   4.422   5.716   6.315  0.3351 -1.1530 -2.6679
   40MOL    H6428222   4.270   5.742   6.407 -0.9992 -0.7603 -0.3816
   40MOL    H6528223   4.359   5.492   6.272 -0.6632  0.8023 -0.3133
   40MOL    H6628224   4.194   5.527   6.319  0.0271  2.6812  0.1633
   40MOL    H6728225   4.307   5.387   6.490  1.6153 -0.7442  0.3679
   40MOL    H6828226   4.299   5.542   6.555  0.3027 -0.3411 -0.0259
   40MOL    H6928227   4.882   5.294   6.627  1.3708 -2.2436 -1.5795
   40MOL    H7028228   4.756   5.201   6.634 -0.0004  0.7021  1.5013
   40MOL    H7128229   4.793   5.250   6.477  1.6145  1.4000  0.8454
   40MOL    H7228230   4.849   5.576   6.561 -2.3916  2.2411  0.8119
   40MOL    H7328231   4.702   5.626   6.506 -0.5749 -0.2937 -1.1164
   40MOL    C7428232   4.952   5.738   7.061  0.0920 -0.1491  0.2602
   40MOL    C7528233   4.991   5.607   7.005  0.2707  0.3095 -0.1189
   40MOL    C7628234   5.144   5.603   6.977 -0.4170 -0.7492  0.5118
   40MOL    C7728235   5.201   5.460   6.949  0.1685 -0.0305  0.1706
   40MOL    C7828236   5.149   5.383   6.827  0.8653 -0.4722  0.1467
   40MOL    C7928237   5.186   5.445   6.694  0.8350  0.0920 -0.0536
   40MOL    C8028238   5.178   5.339   6.587  0.0314 -0.3477 -0.6526
   40MOL    C8128239   5.170   5.400   6.440 -0.8546  0.2951 -0.0256
   40MOL    O8228240   5.056   5.483   6.418  0.4587  0.2311 -0.2397
   40MOL    C8328241   4.956   5.438   6.347 -0.2018 -0.0256  0.1032
   40MOL    O8428242   4.955   5.336   6.280 -1.0373 -0.2654  0.4200
   40MOL    C8528243   4.829   5.532   6.351  0.8822 -0.2850  0.5345
   40MOL    C8628244   4.725   5.469   6.253 -0.6381 -0.4313  0.0772
   40MOL    C8728245   4.866   5.684   6.314 -0.3363 -0.1316  0.5958
   40MOL    H8828246   4.974   5.806   6.979  0.5980  1.3477  1.6044
   40MOL    H8928247   5.013   5.773   7.145 -0.7821  2.0424  0.0098
   40MOL    H9028248   4.845   5.740   7.078 -0.4624 -1.9291 -2.6688
   40MOL    H9128249   4.932   5.599   6.914 -0.8524  1.1071  0.5324
   40MOL    H9228250   4.964   5.535   7.082  1.4518 -0.3536 -0.3206
   40MOL    H9328251   5.163   5.679   6.901  1.1004 -0.0632  1.5284
   40MOL    H9428252   5.188   5.652   7.064  0.9691  2.6751 -1.9977
   40MOL    H9528253   5.195   5.402   7.041 -0.2208 -0.5968 -0.2051
   40MOL    H9628254   5.309   5.472   6.942  0.2198  1.2446  2.9600
   40MOL    H9728255   5.186   5.281   6.820 -0.7253 -0.9400 -2.2361
   40MOL    H9828256   5.041   5.371   6.839  0.7021 -0.3866 -1.0966
   40MOL    H9928257   5.104   5.515   6.675 -0.5541 -1.3282  0.6092
   40MOL   H10028258   5.282   5.497   6.700  0.1654  1.5637 -1.5926
   40MOL   H10128259   5.263   5.271   6.582 -0.3947 -1.0311  1.1649
   40MOL   H10228260   5.094   5.271   6.600  0.4342 -0.5662  0.8957
   40MOL   H10328261   5.170   5.311   6.377  2.3239 -2.2443  3.3313
   40MOL   H10428262   5.265   5.452   6.426 -2.3998  2.9013 -1.1541
   40MOL   H10528263   4.706   5.366   6.284 -2.7417  0.0934  0.6641
   40MOL   H10628264   4.769   5.468   6.153  0.5584 -2.2105  0.6010
   40MOL   H10728265   4.636   5.533   6.253  1.4082  2.5503  3.2640
   40MOL   H10828266   4.793   5.753   6.356 -0.7213  0.4254 -0.9345
   40MOL   H10928267   4.954   5.695   6.377  0.0048  1.2178 -0.0976
   40MOL   C11028268   4.285   5.039   5.805  0.2777 -0.0107 -0.2230
   40MOL   C11128269   4.342   5.173   5.767  0.0577  0.3411  0.1254
   40MOL   C11228270   4.469   5.217   5.844 -0.1161  0.0812  0.0882
   40MOL   C11328271   4.541   5.342   5.781 -0.1780  0.2186 -0.3792
   40MOL   C11428272   4.684   5.383   5.841 -0.3312  0.0381  0.3171
   40MOL   C11528273   4.759   5.499   5.763  0.0960  0.3702 -0.1455
   40MOL   C11628274   4.680   5.636   5.761  0.5414  0.1424  0.5790
   40MOL   C11728275   4.644   5.689   5.898  0.6960 -0.1741 -0.4884
   40MOL   O11828276   4.765   5.680   5.970 -0.0887  0.7857 -0.0460
   40MOL   C11928277   4.770   5.745   6.088  0.2066  0.0760 -0.6406
   40MOL   O12028278   4.678   5.807   6.138  0.3752  0.0540 -0.4804
   40MOL   C12128279   4.902   5.726   6.168  0.2822 -0.1105  0.5784
   40MOL   C12228280   4.992   5.627   6.096  0.2638 -0.7376 -0.7565
   40MOL   C12328281   4.978   5.864   6.183 -0.4746  0.2226 -0.5303
   40MOL   H12428282   4.208   5.025   5.728  1.7061  0.4992 -1.7805
   40MOL   H12528283   4.358   4.959   5.796  0.5570  0.4625 -2.6410
   40MOL   H12628284   4.240   5.058   5.902 -1.5466 -0.0900 -1.0367
   40MOL   H12728285   4.264   5.246   5.788 -0.0938 -0.2536  1.6551
   40MOL   H12828286   4.377   5.172   5.664 -0.7033  1.3549 -0.1558
   40MOL   H12928287   4.554   5.151   5.828 -1.0367 -0.8972 -0.8014
   40MOL   H13028288   4.446   5.253   5.945 -4.1043 -0.1857 -0.6593
   40MOL   H13128289   4.560   5.322   5.675  2.4719  1.1103 -0.1124
   40MOL   H13228290   4.467   5.422   5.788 -1.9976 -1.3390 -1.5249
   40MOL   H13328291   4.743   5.291   5.842 -1.1319 -0.4883 -0.6218
   40MOL   H13428292   4.664   5.421   5.942 -0.9063  2.7334 -0.7611
   40MOL   H13528293   4.856   5.522   5.808 -0.0421 -1.7282  1.3471
   40MOL   H13628294   4.782   5.470   5.661  1.4588  1.1437 -0.0772
   40MOL   H13728295   4.596   5.625   5.694  0.6429  0.2908  0.4261
   40MOL   H13828296   4.748   5.709   5.717  1.9570 -0.6671  1.3870
   40MOL   H13928297   4.599   5.788   5.897  0.3741 -0.1771  3.4922
   40MOL   H14028298   4.574   5.624   5.950 -0.0636  1.1752  0.2078
   40MOL   H14128299   5.085   5.614   6.152  2.3525  0.5784 -3.8100
   40MOL   H14228300   4.939   5.533   6.075  0.7276 -0.9939 -0.7806
   40MOL   H14328301   5.036   5.665   6.005  2.2647 -0.3442  0.3529
   40MOL   H14428302   5.076   5.841   6.223 -1.7880 -1.8736  1.6637
   40MOL   H14528303   4.931   5.917   6.267  0.7213 -0.6515  0.6935
   40MOL   C14628304   4.359   6.524   5.902  0.4096 -0.6146  0.1223
   40MOL   C14728305   4.260   6.417   5.874 -0.4529  0.2749 -0.2608
   40MOL   C14828306   4.233   6.336   6.005  0.4078 -0.4578 -0.7033
   40MOL   C14928307   4.361   6.266   6.055 -0.3477 -0.9169 -0.2184
   40MOL   C15028308   4.343   6.189   6.192  0.6254 -0.9283  0.3346
   40MOL   C15128309   4.468   6.186   6.287 -0.4481 -0.8501  0.3060
   40MOL   C15228310   4.592   6.097   6.247  0.0769 -0.2074  0.0998
   40MOL   C15328311   4.706   6.191   6.208  0.2857 -0.1068  0.1400
   40MOL   O15428312   4.821   6.113   6.180  0.6621  0.2927  0.6678
   40MOL   C15528313   4.849   6.051   6.061  0.0537  0.1807  0.5268
   40MOL   O15628314   4.772   6.039   5.965 -0.1432 -0.3789 -0.1162
   40MOL   C15728315   4.984   5.980   6.066  0.3606  0.0835  0.2220
   40MOL   C15828316   5.092   6.084   6.115  0.4571  0.5439  0.3156
   40MOL   C15928317   5.025   5.923   5.924 -0.0236  0.2872  0.1365
   40MOL   H16028318   4.385   6.583   5.814  3.1643  0.3238  1.4918
   40MOL   H16128319   4.455   6.482   5.932  0.7815 -1.0674 -1.6976
   40MOL   H16228320   4.321   6.600   5.970  0.8123  0.4137 -0.7912
   40MOL   H16328321   4.172   6.473   5.842 -1.8201 -0.9271  1.2905
   40MOL   H16428322   4.286   6.362   5.784  1.3518 -0.0819  0.4603
   40MOL   H16528323   4.165   6.256   5.974 -0.3076 -0.2384  0.2763
   40MOL   H16628324   4.177   6.394   6.078  1.8736  1.7624 -1.3032
   40MOL   H16728325   4.414   6.194   5.993  0.3540  1.7634 -2.8733
   40MOL   H16828326   4.440   6.340   6.072  0.6168 -1.6220 -1.5277
   40MOL   H16928327   4.314   6.084   6.184 -0.1577 -0.7930  1.2888
   40MOL   H17028328   4.258   6.232   6.245  0.3757 -0.8087 -0.1574
   40MOL   H17128329   4.439   6.140   6.381 -0.9938 -2.0939 -0.4437
   40MOL   H17228330   4.491   6.291   6.305  0.8700 -0.9088 -0.9162
   40MOL   H17328331   4.617   6.023   6.323  2.5160 -0.2833 -0.7553
   40MOL   H17428332   4.576   6.038   6.156  2.8490  1.4361 -1.5213
   40MOL   H17528333   4.680   6.249   6.120 -0.0615 -1.3530 -0.5961
   40MOL   H17628334   4.731   6.252   6.295 -1.5226 -1.2257  1.4702
   40MOL   H17728335   5.088   6.176   6.058 -3.0028  0.4300  0.2722
   40MOL   H17828336   5.194   6.047   6.109 -0.7397 -3.3614  2.2299
   40MOL   H17928337   5.067   6.126   6.212  0.8344 -0.8016  1.0050
   40MOL   H18028338   4.945   5.856   5.893  0.2352  1.2922 -2.8315
   40MOL   H18128339   5.099   5.848   5.954  0.4618  0.0177 -1.6891
   40MOL   C18228340   5.469   6.710   5.062 -0.1597 -0.4923  0.0931
   40MOL   C18328341   5.393   6.683   5.194  0.2125  0.1361  0.1468
   40MOL   C18428342   5.468   6.573   5.273  0.1796  0.5620 -0.2318
   40MOL   C18528343   5.420   6.535   5.415  0.4459  0.3657  0.1414
   40MOL   C18628344   5.473   6.395   5.453 -0.2812 -0.0148  0.3462
   40MOL   C18728345   5.407   6.342   5.586  0.4175 -0.3251 -0.2831
   40MOL   C18828346   5.477   6.209   5.604 -0.1771 -0.6787  0.2794
   40MOL   C18928347   5.428   6.138   5.732  0.4588  0.1661  0.1413
   40MOL   O19028348   5.297   6.100   5.725  0.5459 -0.2545  0.5497
   40MOL   C19128349   5.244   6.011   5.806  0.4115 -0.6819  0.6836
   40MOL   O19228350   5.305   5.946   5.890  0.0543 -0.7738 -0.2985
   40MOL   C19328351   5.088   5.994   5.789 -0.3290  0.0190  0.4317
   40MOL   C19428352   5.015   6.126   5.772 -0.7030 -0.4637 -0.8907
   40MOL   C19528353   5.049   5.914   5.654 -0.4368  0.1139 -0.6808
   40MOL   H19628354   5.424   6.781   4.992  1.2984  0.1789 -0.1875
   40MOL   H19728355   5.570   6.744   5.087  0.1177  0.3422 -2.0725
   40MOL   H19828356   5.501   6.623   5.003  1.1719  0.4207 -0.5639
   40MOL   H19928357   5.289   6.655   5.173  0.2223 -1.2624  1.8225
   40MOL   H20028358   5.397   6.781   5.242  0.4113  0.0582  0.2883
   40MOL   H20128359   5.466   6.486   5.207 -0.4239  0.1031  0.3821
   40MOL   H20228360   5.573   6.602   5.268  0.1514  0.7415  0.1617
   40MOL   H20328361   5.441   6.605   5.495  0.8817 -0.9143  1.1591
   40MOL   H20428362   5.312   6.525   5.410  0.7012 -2.4572 -1.2530
   40MOL   H20528363   5.582   6.395   5.464 -0.4033  0.8540  1.6018
   40MOL   H20628364   5.458   6.327   5.369  2.9430  0.3828 -0.6469
   40MOL   H20728365   5.301   6.327   5.568  0.4100 -2.1721  1.1571
   40MOL   H20828366   5.419   6.407   5.673 -1.7402  0.3431 -0.4717
   40MOL   H20928367   5.459   6.150   5.514  1.8800 -1.0845  0.1159
   40MOL   H21028368   5.586   6.214   5.605 -0.2581  1.4448 -0.2383
   40MOL   H21128369   5.438   6.200   5.821 -0.8788 -1.8682  1.7795
   40MOL   H21228370   5.493   6.051   5.742  2.3645  1.6655  1.1515
   40MOL   H21328371   4.909   6.110   5.752 -1.0221 -0.1578  0.5126
   40MOL   H21428372   5.016   6.179   5.867 -1.0902 -0.9014 -0.6380
   40MOL   H21528373   5.053   6.184   5.688  0.7098  0.9237  0.6624
   40MOL   H21628374   4.944   5.882   5.655 -0.6589  0.8517  1.5944
   40MOL   H21728375   5.051   5.984   5.570 -0.7814  0.6501 -0.2434
   40MOL   C21828376   4.471   6.440   4.971 -1.1807  0.5750  0.2128
   40MOL   C21928377   4.573   6.368   5.058 -0.9229  0.5385 -0.3290
   40MOL   C22028378   4.584   6.216   5.043  0.2696  1.2937  0.5118
   40MOL   C22128379   4.689   6.148   5.132  0.1057 -1.0521 -0.1257
   40MOL   C22228380   4.716   5.994   5.108 -0.1024 -0.5007 -0.3310
   40MOL   C22328381   4.800   5.941   5.230  0.4703 -0.3118 -0.3418
   40MOL   C22428382   4.853   5.805   5.198 -0.9168  0.3476 -0.6484
   40MOL   C22528383   4.879   5.711   5.314  1.0227 -0.0314  0.3481
   40MOL   O22628384   4.966   5.779   5.408 -0.5194 -0.1317 -0.1461
   40MOL   C22728385   5.023   5.710   5.511 -0.3515  0.5868 -0.2443
   40MOL   O22828386   4.990   5.595   5.532  0.6938  0.5015  0.0942
   40MOL   C22928387   5.126   5.789   5.602  0.0970 -0.2613 -0.2557
   40MOL   C23028388   5.172   5.700   5.724  0.4813  0.1962  0.4829
   40MOL   C23128389   5.244   5.833   5.512  0.7081 -0.1210 -0.2715
   40MOL   H23228390   4.381   6.378   4.976  1.1158 -2.7521  3.0115
   40MOL   H23328391   4.511   6.446   4.870 -4.0001  0.1856 -0.9718
   40MOL   H23428392   4.453   6.530   5.028 -0.9285  0.4308  0.5229
   40MOL   H23528393   4.544   6.382   5.162  0.9909 -2.5795  0.7192
   40MOL   H23628394   4.673   6.411   5.047  0.1164 -1.5210  0.7291
   40MOL   H23728395   4.490   6.166   5.066  1.0276 -1.3149 -1.8657
   40MOL   H23828396   4.605   6.194   4.938  1.2164  0.7665  0.8014
   40MOL   H23928397   4.775   6.214   5.120 -0.9096  0.7647  2.0436
   40MOL   H24028398   4.651   6.160   5.234  2.2270  1.4962  0.4428
   40MOL   H24128399   4.619   5.946   5.094 -0.7900  1.2652 -1.8025
   40MOL   H24228400   4.778   5.993   5.018 -1.9048 -1.8939 -1.6081
   40MOL   H24328401   4.887   6.004   5.245 -1.3611  1.5548  3.0213
   40MOL   H24428402   4.732   5.926   5.314 -0.9699 -0.1203 -1.4681
   40MOL   H24528403   4.945   5.828   5.145 -1.5656  0.9710 -1.5016
   40MOL   H24628404   4.802   5.750   5.119  0.6183 -0.1035 -1.3264
   40MOL   H24728405   4.933   5.629   5.269 -0.0048 -0.3835 -0.2551
   40MOL   H24828406   4.784   5.677   5.356  0.0092 -0.3003 -2.0775
   40MOL   H24928407   5.216   5.608   5.685  2.0555  1.0355  0.2485
   40MOL   H25028408   5.078   5.675   5.775 -0.2485  2.3687  0.2531
   40MOL   H25128409   5.243   5.729   5.800  2.3349 -1.1214 -0.7039
   40MOL   H25228410   5.199   5.885   5.427  0.3400  0.2388  0.1485
   40MOL   H25328411   5.283   5.928   5.549  0.9961  0.2588 -1.5202
   40MOL   C25428412   5.442   5.945   4.466 -0.6051  0.2252  0.0752
   40MOL   C25528413   5.472   5.887   4.606 -0.0431  0.2630 -0.7507
   40MOL   C25628414   5.360   5.793   4.644 -0.2961 -0.4027  0.0381
   40MOL   C25728415   5.379   5.721   4.772 -0.1010  0.4947 -0.5689
   40MOL   C25828416   5.255   5.674   4.842  0.1548  0.4761  0.6114
   40MOL   C25928417   5.276   5.603   4.970  0.4257  0.5921 -0.6442
   40MOL   C26028418   5.150   5.579   5.053 -0.1205 -0.0752  0.3957
   40MOL   C26128419   5.182   5.536   5.199  1.0135  0.0755 -0.2032
   40MOL   O26228420   5.223   5.642   5.292 -0.0275  0.3247  0.2580
   40MOL   C26328421   5.307   5.615   5.397 -0.1005 -0.1698 -0.0613
   40MOL   O26428422   5.336   5.504   5.438  0.0348  0.1915  0.3981
   40MOL   C26528423   5.363   5.741   5.462 -0.2563 -0.3519  0.7234
   40MOL   C26628424   5.455   5.702   5.587 -0.0654  0.0702  0.0598
   40MOL   C26728425   5.442   5.825   5.352  0.4040  0.2160  0.5169
   40MOL   H26828426   5.343   5.987   4.446 -1.3926 -1.8326 -0.4641
   40MOL   H26928427   5.519   6.016   4.436 -0.7226  0.5472  0.5303
   40MOL   H27028428   5.447   5.861   4.396  0.2342 -1.6751  2.3611
   40MOL   H27128429   5.570   5.842   4.621 -0.2018 -0.1491 -0.9462
   40MOL   H27228430   5.467   5.965   4.683  1.2438 -0.4693  0.0938
   40MOL   H27328431   5.329   5.721   4.568  0.2683 -0.4781 -0.1223
   40MOL   H27428432   5.269   5.853   4.653 -0.5994 -0.7023 -0.9039
   40MOL   H27528433   5.428   5.791   4.840 -1.6219  1.7745 -0.7841
   40MOL   H27628434   5.437   5.631   4.752 -1.4933 -0.9825  1.8194
   40MOL   H27728435   5.190   5.759   4.867 -1.1968  0.0863 -1.4773
   40MOL   H27828436   5.192   5.611   4.779 -0.7921  0.0980  1.9092
   40MOL   H27928437   5.347   5.662   5.028 -0.4664 -1.8963  3.1141
   40MOL   H28028438   5.329   5.509   4.959 -0.7357 -0.0099 -1.1459
   40MOL   H28128439   5.081   5.662   5.047 -0.8578 -0.8009 -1.6743
   40MOL   H28228440   5.103   5.494   5.003 -0.0198  0.0447  0.0970
   40MOL   H28328441   5.105   5.479   5.253  1.0493  1.0442  0.9121
   40MOL   H28428442   5.266   5.467   5.203 -1.5021 -3.0383  1.0571
   40MOL   H28528443   5.437   5.605   5.633 -0.2882  0.1959  0.2413
   40MOL   H28628444   5.559   5.690   5.560 -0.0670  0.7845 -0.2825
   40MOL   H28728445   5.438   5.783   5.658 -1.4411  0.8230 -1.0845
   40MOL   H28828446   5.447   5.924   5.398  2.6844 -0.3323  1.5673
   40MOL   H28928447   5.380   5.845   5.265  2.6928  0.2847 -1.1531
   40MOL   C29028448   6.489   5.232   5.470 -0.2482  0.2430 -0.8496
   40MOL   C29128449   6.372   5.325   5.433 -0.1919  0.3062  0.5116
   40MOL   C29228450   6.422   5.465   5.395  0.2136  0.1691  0.2991
   40MOL   C29328451   6.321   5.573   5.402 -0.7628 -0.2218  0.1076
   40MOL   C29428452   6.198   5.564   5.313 -0.0405  1.2483  0.0471
   40MOL   C29528453   6.111   5.692   5.304  0.6056 -0.0424  0.3925
   40MOL   C29628454   6.053   5.739   5.440  0.4101  0.2474 -0.1610
   40MOL   C29728455   5.938   5.844   5.433  0.1449 -0.5655 -0.1805
   40MOL   O29828456   5.822   5.788   5.365 -0.0414 -0.1754  0.4774
   40MOL   C29928457   5.700   5.837   5.391 -0.1255  0.1091  1.1588
   40MOL   O30028458   5.667   5.900   5.494 -0.2484  0.3759  0.2444
   40MOL   C30128459   5.584   5.790   5.296  0.5862 -0.1629 -0.5116
   40MOL   C30228460   5.618   5.637   5.280 -0.5305 -0.3487 -0.6873
   40MOL   C30328461   5.590   5.861   5.149 -0.8525  0.5138 -0.3152
   40MOL   H30428462   6.464   5.136   5.517  1.9971  0.2079  0.3796
   40MOL   H30528463   6.567   5.276   5.532 -0.0754  0.7300 -1.4149
   40MOL   H30628464   6.535   5.203   5.376  1.3238 -0.3733  0.0832
   40MOL   H30728465   6.311   5.334   5.523  0.7520  2.4038  0.9616
   40MOL   H30828466   6.311   5.289   5.351 -1.8345 -2.0440  2.6906
   40MOL   H30928467   6.468   5.473   5.296 -0.1105  1.3391  0.2361
   40MOL   H31028468   6.499   5.498   5.465  0.1434 -0.2195  0.5611
   40MOL   H31128469   6.282   5.578   5.504 -1.5729  1.6045 -0.2685
   40MOL   H31228470   6.363   5.666   5.365 -1.1880 -0.2396 -0.4318
   40MOL   H31328471   6.234   5.544   5.212  2.2057 -1.0266  1.2215
   40MOL   H31428472   6.138   5.478   5.343  1.5653  0.9085  2.3960
   40MOL   H31528473   6.025   5.672   5.240 -1.5482  0.3044  3.0784
   40MOL   H31628474   6.178   5.763   5.256 -0.2850  0.1382 -0.6032
   40MOL   H31728475   6.127   5.795   5.497  0.5993  2.0074 -2.0544
   40MOL   H31828476   6.029   5.648   5.495 -1.4698  0.1841 -1.0468
   40MOL   H31928477   5.960   5.936   5.379 -0.7151 -0.1936  0.0867
   40MOL   H32028478   5.902   5.885   5.528  0.5158  1.0805 -0.7406
   40MOL   H32128479   5.718   5.626   5.239  0.7149  3.5845  1.0977
   40MOL   H32228480   5.559   5.590   5.201 -3.2296 -0.2821  1.2354
   40MOL   H32328481   5.612   5.583   5.375 -0.1346 -0.7256 -0.8745
   40MOL   H32428482   5.691   5.845   5.111 -1.4461  0.0513 -1.7510
   40MOL   H32528483   5.522   5.794   5.097  1.8776 -0.1915 -3.1133
   40MOL   C32628484   5.191   6.688   4.707 -0.1414  0.6843 -0.4038
   40MOL   C32728485   5.061   6.689   4.789 -0.6412  0.0786 -0.6801
   40MOL   C32828486   5.066   6.666   4.942 -0.1328  0.4915  0.2302
   40MOL   C32928487   5.079   6.519   4.977  0.0889  0.1398 -0.5834
   40MOL   C33028488   5.045   6.489   5.122  0.2076  0.1878 -0.2051
   40MOL   C33128489   5.050   6.339   5.162  0.0620 -0.2182 -0.0433
   40MOL   C33228490   5.190   6.283   5.171  0.3847 -0.5399 -0.1984
   40MOL   C33328491   5.214   6.140   5.229 -0.7147 -0.1322 -0.5945
   40MOL   O33428492   5.353   6.113   5.217  0.2526  0.1138 -0.8127
   40MOL   C33528493   5.404   6.043   5.116 -0.2938  0.0344 -0.0968
   40MOL   O33628494   5.331   6.007   5.024  0.2853  0.3865 -0.1907
   40MOL   C33728495   5.554   6.011   5.124 -0.6529 -0.6613 -0.2443
   40MOL   C33828496   5.614   6.098   5.235  0.0889  0.2537  0.0297
   40MOL   C33928497   5.606   6.046   4.976 -0.3394  0.8352 -0.3981
   40MOL   H34028498   5.236   6.591   4.724 -0.9881  0.4235  0.4416
   40MOL   H34128499   5.269   6.757   4.739  1.3484 -1.2443  0.2225
   40MOL   H34228500   5.187   6.702   4.599  2.6270 -1.0805 -0.7807
   40MOL   H34328501   5.011   6.612   4.730 -0.9670  1.4217 -2.1971
   40MOL   H34428502   5.022   6.787   4.763 -1.7952 -0.3237 -0.4555
   40MOL   H34528503   4.966   6.696   4.974 -0.4256  1.6831 -1.7251
   40MOL   H34628504   5.141   6.734   4.982  0.6396  0.0668 -0.4888
   40MOL   H34728505   5.187   6.502   4.979 -0.2927 -2.3294  2.1734
   40MOL   H34828506   5.033   6.441   4.916  0.3072  0.3945 -1.0745
   40MOL   H34928507   5.113   6.544   5.187  1.2657  0.2389 -1.3394
   40MOL   H35028508   4.941   6.519   5.134  0.5918  1.5089 -0.0911
   40MOL   H35128509   4.993   6.308   5.250 -0.9108  3.8493  0.8746
   40MOL   H35228510   4.992   6.288   5.086  0.0248  1.1789 -0.9559
   40MOL   H35328511   5.252   6.355   5.225 -1.2471 -0.6556  1.9246
   40MOL   H35428512   5.234   6.270   5.072 -0.8993 -0.0663 -0.8530
   40MOL   H35528513   5.200   6.146   5.337  0.7389  1.6620 -0.4770
   40MOL   H35628514   5.144   6.070   5.183 -3.4637  1.9841  0.2486
   40MOL   H35728515   5.573   6.074   5.333 -0.1971 -0.0941 -0.1770
   40MOL   H35828516   5.721   6.078   5.241 -0.1543 -1.0041  0.2777
   40MOL   H35928517   5.609   6.207   5.234  0.6812  0.2873  0.1505
   40MOL   H36028518   5.695   5.989   4.951  0.0804 -0.9775  4.6052
   40MOL   H36128519   5.538   5.998   4.905 -0.0965 -1.0810  0.6322
   40MOL   C36228520   6.529   6.562   4.800  0.2017 -0.0330  0.0077
   40MOL   C36328521   6.447   6.656   4.710  0.5061 -0.1596 -0.7997
   40MOL   C36428522   6.334   6.730   4.791  0.0655 -0.2157 -0.1892
   40MOL   C36528523   6.239   6.641   4.871 -0.6820 -0.0632 -0.0282
   40MOL   C36628524   6.124   6.720   4.937  0.0765  0.6119 -0.2122
   40MOL   C36728525   6.040   6.645   5.044 -0.4636  0.2445  0.0332
   40MOL   C36828526   5.951   6.532   4.986 -0.3160  0.2629  0.1012
   40MOL   C36928527   5.861   6.461   5.090  0.5766  0.4280  0.3070
   40MOL   O37028528   5.749   6.391   5.027 -0.0406  0.0457  0.0736
   40MOL   C37128529   5.760   6.259   4.997 -0.5162 -0.2410  1.0510
   40MOL   O37228530   5.868   6.201   5.001 -0.0941  0.0980 -0.1330
   40MOL   C37328531   5.632   6.198   4.930 -1.0075 -0.5178 -0.2259
   40MOL   C37428532   5.511   6.289   4.951 -0.6076 -1.0006 -0.2533
   40MOL   C37528533   5.672   6.185   4.775  0.1889 -0.5939  0.5262
   40MOL   H37628534   6.628   6.568   4.757  0.2067  2.9141  0.3129
   40MOL   H37728535   6.538   6.590   4.905  1.4032  1.7365 -0.5487
   40MOL   H37828536   6.490   6.460   4.795 -0.4116  0.0959  1.6823
   40MOL   H37928537   6.397   6.596   4.635 -2.7896  1.9880 -0.4459
   40MOL   H38028538   6.508   6.725   4.652  1.1579  1.0794  1.3190
   40MOL   H38128539   6.268   6.782   4.721 -0.5300  0.6661  1.0020
   40MOL   H38228540   6.390   6.806   4.845  0.6239 -0.1623 -0.8344
   40MOL   H38328541   6.298   6.584   4.943  2.5521  2.9269 -0.1733
   40MOL   H38428542   6.194   6.565   4.808 -2.9963  0.5386  0.8284
   40MOL   H38528543   6.166   6.809   4.984  0.8309  0.5411 -0.7429
   40MOL   H38628544   6.066   6.764   4.855 -0.4442 -0.3338 -0.3612
   40MOL   H38728545   5.971   6.714   5.093 -1.1107  0.0566 -0.6133
   40MOL   H38828546   6.105   6.605   5.121  0.5823  4.2042  1.3326
   40MOL   H38928547   6.001   6.452   4.931 -3.9711 -0.8556 -1.7787
   40MOL   H39028548   5.891   6.578   4.908 -1.1357  0.0702  0.6114
   40MOL   H39128549   5.914   6.398   5.161  0.0802 -0.0897  0.2238
   40MOL   H39228550   5.812   6.541   5.145 -1.4337 -0.0243 -0.7457
   40MOL   H39328551   5.506   6.387   4.905 -1.9856  0.4418  2.8362
   40MOL   H39428552   5.419   6.237   4.926 -1.4555  1.1025 -1.5985
   40MOL   H39528553   5.490   6.318   5.054  3.6463  0.6407  0.2603
   40MOL   H39628554   5.762   6.125   4.761  1.5528  1.5631 -0.2574
   40MOL   H39728555   5.593   6.122   4.735 -1.7765  1.8480  0.4343
   40MOL   C39828556   4.819   5.914   4.529 -0.1620 -0.5662 -0.1735
   40MOL   C39928557   4.851   5.982   4.666 -0.0582  0.0051 -0.2498
   40MOL   C40028558   4.971   5.926   4.750 -0.6857  0.2389  0.6580
   40MOL   C40128559   5.030   6.019   4.856 -0.2773  0.4677  0.2215
   40MOL   C40228560   5.066   6.163   4.804 -0.5204 -0.0458  0.0875
   40MOL   C40328561   5.174   6.163   4.703 -0.4002  0.9128  0.4686
   40MOL   C40428562   5.211   6.298   4.643  0.3809  0.5626  0.2105
   40MOL   C40528563   5.318   6.286   4.532  0.3625  0.6453 -0.0410
   40MOL   O40628564   5.448   6.248   4.580 -0.0161  0.2412 -0.5935
   40MOL   C40728565   5.522   6.349   4.636  0.7094  0.3260 -0.3265
   40MOL   O40828566   5.483   6.464   4.664 -1.0736  1.0581  0.4794
   40MOL   C40928567   5.667   6.308   4.672 -0.3567 -0.3673  0.6438
   40MOL   C41028568   5.743   6.428   4.722 -0.1390  0.1591  0.1999
   40MOL   C41128569   5.736   6.246   4.545  0.2492  0.4409  0.3123
   40MOL   H41228570   4.916   5.920   4.480  1.7446 -0.2994  3.4249
   40MOL   H41328571   4.736   5.968   4.483  1.2420  1.4113 -0.4734
   40MOL   H41428572   4.802   5.807   4.524 -0.2382 -0.4454 -4.1957
   40MOL   H41528573   4.758   5.981   4.724 -0.6465  2.7769 -1.0828
   40MOL   H41628574   4.880   6.085   4.647 -0.8552  0.4909  1.0506
   40MOL   H41728575   4.945   5.833   4.801 -0.0857  0.2867  1.0613
   40MOL   H41828576   5.051   5.887   4.686 -0.6199  0.5165  0.5715
   40MOL   H41928577   5.112   5.968   4.907 -0.4281 -0.3752 -0.3556
   40MOL   H42028578   4.951   6.033   4.930 -0.3466  2.8347 -0.2835
   40MOL   H42128579   4.980   6.218   4.766 -0.6775  0.7307  1.5532
   40MOL   H42228580   5.100   6.209   4.897  0.5421 -1.6029  0.4949
   40MOL   H42328581   5.144   6.095   4.623  4.1038 -0.2135 -0.4065
   40MOL   H42428582   5.259   6.118   4.754  1.4404  2.9980 -0.6660
   40MOL   H42528583   5.122   6.339   4.595 -0.0993 -1.7267 -0.9135
   40MOL   H42628584   5.226   6.372   4.722 -3.1774  0.4666  1.0510
   40MOL   H42728585   5.282   6.202   4.473  1.7361  0.4652 -0.6390
   40MOL   H42828586   5.326   6.378   4.474 -2.8710  0.2981 -1.1788
   40MOL   H42928587   5.759   6.515   4.658  0.3187 -0.5444 -0.6534
   40MOL   H43028588   5.846   6.405   4.748  0.5451  0.0030 -2.4798
   40MOL   H43128589   5.704   6.475   4.813  0.3876 -0.7764  0.9083
   40MOL   H43228590   5.657   6.183   4.503  0.6732 -0.8997  1.5030
   40MOL   H43328591   5.812   6.173   4.575 -1.4519 -0.7304  1.8910
   40MOL   C43428592   6.577   5.785   5.080 -0.0719 -0.4436 -0.2901
   40MOL   C43528593   6.448   5.862   5.043  0.4425 -0.2851  0.6273
   40MOL   C43628594   6.457   5.961   4.925  0.4948 -0.2957 -0.1039
   40MOL   C43728595   6.320   6.012   4.869 -0.2337 -0.3022 -0.0381
   40MOL   C43828596   6.343   6.118   4.758  0.0519  0.0500  0.2645
   40MOL   C43928597   6.214   6.201   4.732 -0.2738  0.5375  0.1556
   40MOL   C44028598   6.236   6.322   4.636  0.6864 -0.4704 -0.1178
   40MOL   C44128599   6.106   6.405   4.609  0.0322 -1.0526  0.6309
   40MOL   O44228600   6.018   6.336   4.532 -0.8268  0.4484 -0.5279
   40MOL   C44328601   5.917   6.406   4.474 -0.1781 -0.8082 -0.2921
   40MOL   O44428602   5.916   6.527   4.457 -0.0624 -0.0619 -0.0207
   40MOL   C44528603   5.796   6.327   4.426  0.1503  0.1008 -0.8899
   40MOL   C44628604   5.688   6.427   4.372 -1.0660 -0.8405  0.2664
   40MOL   C44728605   5.840   6.223   4.314  0.2274  0.1999  0.8037
   40MOL   H44828606   6.661   5.831   5.132 -0.4614 -1.9108  1.6873
   40MOL   H44928607   6.613   5.745   4.985 -3.2262 -3.0459 -0.4709
   40MOL   H45028608   6.555   5.693   5.134 -0.9578  0.0769  0.2367
   40MOL   H45128609   6.400   5.917   5.124 -2.1632 -0.1381 -0.9560
   40MOL   H45228610   6.371   5.789   5.017 -0.0779  1.0556 -1.7563
   40MOL   H45328611   6.513   5.923   4.839  1.6397  1.4062 -0.1443
   40MOL   H45428612   6.516   6.041   4.971  0.4898 -0.3398 -0.0222
   40MOL   H45528613   6.258   6.050   4.950  0.2387  0.6601 -0.1204
   40MOL   H45628614   6.259   5.932   4.827  1.6045 -1.1798 -1.0527
   40MOL   H45728615   6.417   6.186   4.802 -0.1305  1.1918 -1.1422
   40MOL   H45828616   6.382   6.077   4.666 -0.2291  1.3387 -0.4516
   40MOL   H45928617   6.175   6.231   4.829  0.5848 -0.2691  0.7561
   40MOL   H46028618   6.142   6.137   4.681 -1.0080 -0.9773  3.0126
   40MOL   H46128619   6.318   6.381   4.677 -0.3046  0.4487  0.5731
   40MOL   H46228620   6.265   6.283   4.538 -0.2323  0.9793 -0.9756
   40MOL   H46328621   6.131   6.507   4.577 -2.7944 -0.7019 -0.6535
   40MOL   H46428622   6.058   6.445   4.698 -1.8595 -0.5948 -0.5544
   40MOL   H46528623   5.663   6.500   4.449  0.1516  0.3014 -0.4083
   40MOL   H46628624   5.716   6.478   4.280 -0.7737  1.2517  1.4849
   40MOL   H46728625   5.597   6.371   4.348 -1.9795  0.8019 -0.1432
   40MOL   H46828626   5.881   6.134   4.362  0.6355 -1.3263 -2.2537
   40MOL   H46928627   5.742   6.188   4.281 -0.9386  3.0937  1.0973
   40MOL   C47028628   5.146   5.579   4.311 -0.7302  0.1443 -0.4825
   40MOL   C47128629   5.249   5.632   4.204 -0.6072  0.4552 -0.2522
   40MOL   C47228630   5.395   5.606   4.233  0.4505 -0.2566 -0.2487
   40MOL   C47328631   5.493   5.696   4.145  0.4246  0.4372 -0.4464
   40MOL   C47428632   5.643   5.692   4.198  0.5418  0.3269  0.4095
   40MOL   C47528633   5.722   5.778   4.103 -0.8755  0.1708  0.2836
   40MOL   C47628634   5.874   5.765   4.120  0.1554 -0.0573  0.0681
   40MOL   C47728635   5.955   5.880   4.070 -0.3008 -0.5535  0.3018
   40MOL   O47828636   5.950   5.994   4.149  0.0221 -0.0480  0.2647
   40MOL   C47928637   5.914   6.114   4.098 -0.0682  0.0243  0.0065
   40MOL   O48028638   5.859   6.114   3.989  0.2485 -0.2058 -0.2688
   40MOL   C48128639   5.934   6.241   4.190  0.5205 -0.0981 -0.3593
   40MOL   C48228640   5.872   6.365   4.109  0.0441 -0.2379  0.0044
   40MOL   C48328641   6.080   6.274   4.224 -0.6164  0.1312 -0.9775
   40MOL   H48428642   5.054   5.636   4.299 -0.0700  1.6629  1.4682
   40MOL   H48528643   5.195   5.586   4.408  4.1899  0.4631 -2.8617
   40MOL   H48628644   5.120   5.476   4.288 -2.1031  0.5810 -0.9704
   40MOL   H48728645   5.222   5.611   4.100 -0.1021  0.1236 -0.3147
   40MOL   H48828646   5.234   5.740   4.200  1.9087  0.8173 -0.9425
   40MOL   H48928647   5.418   5.602   4.340  0.7613  1.8907 -0.2091
   40MOL   H49028648   5.421   5.506   4.197 -1.4188  0.1718 -2.9218
   40MOL   H49128649   5.494   5.664   4.041 -1.4804 -0.9721 -0.0522
   40MOL   H49228650   5.451   5.796   4.152  0.5867  0.4478  0.3948
   40MOL   H49328651   5.643   5.725   4.302 -3.7382  0.4082  0.4877
   40MOL   H49428652   5.678   5.589   4.198 -1.1956 -0.3067  2.6739
   40MOL   H49528653   5.708   5.730   4.006 -1.3535 -5.3662  2.9011
   40MOL   H49628654   5.692   5.882   4.106  1.2404  0.7990  0.3519
   40MOL   H49728655   5.902   5.760   4.225 -1.5631 -0.9873  0.4883
   40MOL   H49828656   5.908   5.675   4.068 -1.8678 -0.7519 -0.0627
   40MOL   H49928657   5.914   5.900   3.970  0.0642 -1.4375 -0.0239
   40MOL   H50028658   6.055   5.839   4.058 -0.1525  0.1320 -0.9529
   40MOL   H50128659   5.912   6.375   4.008  2.2531  1.0344  0.9765
   40MOL   H50228660   5.890   6.457   4.164  1.4653 -1.8671  2.3757
   40MOL   H50328661   5.765   6.353   4.089 -0.3170  0.5186  1.4098
   40MOL   H50428662   6.072   6.380   4.250 -1.1619  0.4958 -2.5478
   40MOL   H50528663   6.118   6.219   4.309 -2.7158  1.3877  0.8343
   40MOL   C50628664   6.960   5.688   4.811 -0.0766 -0.2683  0.8446
   40MOL   C50728665   6.849   5.654   4.716  0.2123  0.5224  0.4555
   40MOL   C50828666   6.764   5.772   4.675 -1.4105  0.0422 -0.4110
   40MOL   C50928667   6.687   5.737   4.550  0.0247 -1.1839  0.1268
   40MOL   C51028668   6.592   5.855   4.508 -0.1979  0.4733  0.1187
   40MOL   C51128669   6.534   5.841   4.370 -0.3386 -0.8105 -0.3871
   40MOL   C51228670   6.434   5.949   4.344  0.0745 -0.4108  0.3048
   40MOL   C51328671   6.358   5.948   4.207  0.1375 -0.2217  0.6821
   40MOL   O51428672   6.285   6.070   4.206 -0.7100 -0.2139  0.2104
   40MOL   C51528673   6.244   6.128   4.094  0.2038  0.6901  0.0719
   40MOL   O51628674   6.253   6.075   3.983 -0.5496 -0.3546  0.2979
   40MOL   C51728675   6.200   6.273   4.116 -0.0456 -0.4923  0.2871
   40MOL   C51828676   6.164   6.341   3.975  0.7567  0.6710  0.8369
   40MOL   C51928677   6.315   6.355   4.184 -0.0107 -0.5352 -0.3665
   40MOL   H52028678   6.901   5.717   4.898  0.8711  1.2838  0.9919
   40MOL   H52128679   7.006   5.781   4.779 -2.8066  1.4564  1.7221
   40MOL   H52228680   7.033   5.613   4.842 -0.4894 -0.7465  0.6656
   40MOL   H52328681   6.790   5.569   4.750 -0.4216  0.1564 -1.4852
   40MOL   H52428682   6.899   5.619   4.626 -1.1026  1.8038 -0.8078
   40MOL   H52528683   6.699   5.789   4.761 -0.1619 -1.5915  0.9139
   40MOL   H52628684   6.826   5.860   4.663 -0.8826 -0.3583 -0.6555
   40MOL   H52728685   6.755   5.727   4.465 -1.7214 -0.3408 -1.4023
   40MOL   H52828686   6.628   5.647   4.571  0.6607 -2.3984 -3.0253
   40MOL   H52928687   6.515   5.890   4.577  1.4535  1.2493  1.5948
   40MOL   H53028688   6.638   5.954   4.499  0.8911 -0.1476 -1.3130
   40MOL   H53128689   6.488   5.742   4.362  0.3108 -1.5069  3.3105
   40MOL   H53228690   6.617   5.849   4.300  0.2858  3.6733  0.7112
   40MOL   H53328691   6.490   6.043   4.348 -0.1425 -0.2221 -0.9186
   40MOL   H53428692   6.355   5.958   4.418 -1.2909 -1.1110 -1.0478
   40MOL   H53528693   6.284   5.870   4.190  0.0928  0.3365 -1.8034
   40MOL   H53628694   6.418   5.952   4.116 -1.3680 -1.5729 -0.4024
   40MOL   H53728695   6.093   6.281   3.919 -0.7725  2.2542  1.0305
   40MOL   H53828696   6.241   6.348   3.899  0.1936  1.2142  0.3050
   40MOL   H53928697   6.123   6.442   3.984  0.7620  0.7245  0.2776
   40MOL   H54028698   6.276   6.454   4.209 -0.3072 -0.2513 -1.9436
   40MOL   H54128699   6.326   6.325   4.288 -0.6418 -0.6914 -0.3439
   40MOL   C54228700   7.039   5.940   5.106  0.3307 -0.3879 -0.0788
   40MOL   C54328701   6.962   6.065   5.052  0.9372  0.4085 -0.1786
   40MOL   C54428702   6.867   6.041   4.931 -0.1766 -0.4270 -0.2389
   40MOL   C54528703   6.844   6.164   4.848  0.1065 -0.4293  0.7153
   40MOL   C54628704   6.748   6.143   4.732  0.1774  0.5634 -0.0707
   40MOL   C54728705   6.735   6.269   4.654 -0.0594  0.1876 -0.4876
   40MOL   C54828706   6.655   6.252   4.521  0.6660 -0.1644  0.0585
   40MOL   C54928707   6.637   6.384   4.445  0.5607 -0.4040 -0.1160
   40MOL   O55028708   6.572   6.355   4.321 -0.1088 -0.3918  0.3538
   40MOL   C55128709   6.536   6.450   4.231  0.1909  0.0765  0.0604
   40MOL   O55228710   6.570   6.568   4.248  0.2832 -0.2000 -0.2361
   40MOL   C55328711   6.447   6.396   4.114  0.5354  0.2196 -0.2028
   40MOL   C55428712   6.435   6.511   4.018  0.4232  0.0726  0.5581
   40MOL   C55528713   6.517   6.275   4.041 -0.7634  0.1971 -0.5862
   40MOL   H55628714   7.097   5.912   5.019 -0.0902 -0.6241 -0.2839
   40MOL   H55728715   6.963   5.870   5.139  0.6910  0.2463  2.1813
   40MOL   H55828716   7.110   5.973   5.182 -0.1019 -0.8793  0.5417
   40MOL   H55928717   6.904   6.110   5.133  2.1104  2.0940 -0.2535
   40MOL   H56028718   7.039   6.139   5.030  1.5616 -0.7938 -2.1676
   40MOL   H56128719   6.768   6.008   4.964 -0.3668  0.5026  0.1524
   40MOL   H56228720   6.916   5.968   4.867  0.0646  1.1601 -1.8835
   40MOL   H56328721   6.820   6.245   4.918 -0.9053  1.0838 -1.3230
   40MOL   H56428722   6.937   6.199   4.803 -0.3788  0.0420  0.0645
   40MOL   H56528723   6.648   6.105   4.756 -0.3732  0.8344 -1.8054
   40MOL   H56628724   6.794   6.070   4.665 -2.7377  0.5673 -2.1912
   40MOL   H56728725   6.673   6.329   4.721 -0.6239 -0.5226 -0.3556
   40MOL   H56828726   6.833   6.313   4.636  0.5876 -1.0844 -0.1225
   40MOL   H56928727   6.717   6.185   4.462  0.2667 -0.4555 -0.0276
   40MOL   H57028728   6.555   6.209   4.531 -0.0182  1.4423  0.3531
   40MOL   H57128729   6.723   6.450   4.452 -0.7247  0.9759  3.4578
   40MOL   H57228730   6.564   6.442   4.501 -0.2790 -0.5794 -1.0096
   40MOL   H57328731   6.352   6.574   4.047 -2.0013 -2.5285 -0.5160
   40MOL   H57428732   6.420   6.478   3.915  0.4226 -3.8144  1.7303
   40MOL   H57528733   6.503   6.596   4.014 -0.8147  1.1352  1.9319
   40MOL   H57628734   6.458   6.265   3.950 -2.6925 -0.4702  0.7125
   40MOL   H57728735   6.493   6.189   4.103 -0.1324 -1.9251 -3.1601
   40MOL   C57828736   5.966   6.631   3.713  0.5334 -0.2292  0.4713
   40MOL   C57928737   6.011   6.656   3.565  0.2489 -0.1228 -0.7847
   40MOL   C58028738   6.167   6.635   3.544 -0.0783  0.1963 -0.2076
   40MOL   C58128739   6.217   6.489   3.523 -0.1631 -1.0519  0.6731
   40MOL   C58228740   6.360   6.487   3.481  0.1260  0.0217  0.2427
   40MOL   C58328741   6.455   6.524   3.599 -0.1554 -0.5960 -0.3613
   40MOL   C58428742   6.608   6.493   3.575  0.1587 -0.3501 -0.1780
   40MOL   C58528743   6.696   6.510   3.699 -0.0824 -0.3476  0.5242
   40MOL   O58628744   6.650   6.407   3.791 -0.1551 -0.0841 -0.1752
   40MOL   C58728745   6.715   6.390   3.907 -0.4932  0.3324 -0.4840
   40MOL   O58828746   6.808   6.463   3.955  0.2655  0.7189  0.0544
   40MOL   C58928747   6.670   6.263   3.994 -0.2739 -0.4145  0.0905
   40MOL   C59028748   6.677   6.139   3.901 -0.2753 -0.3182  0.1150
   40MOL   C59128749   6.760   6.242   4.127 -0.1695 -0.3152  0.1269
   40MOL   H59228750   5.881   6.696   3.734 -0.5480 -0.2835 -3.4206
   40MOL   H59328751   6.049   6.657   3.779  0.8841  0.6842 -0.3142
   40MOL   H59428752   5.944   6.528   3.741  1.6928 -0.7544 -0.5089
   40MOL   H59528753   5.987   6.758   3.537  0.6784 -0.2269 -1.5352
   40MOL   H59628754   5.957   6.589   3.499 -0.2460  1.4415 -1.9948
   40MOL   H59728755   6.212   6.672   3.637 -0.1328  1.0325 -0.5164
   40MOL   H59828756   6.203   6.693   3.459  2.6076 -1.0086  0.0426
   40MOL   H59928757   6.157   6.428   3.456  0.8688 -0.9411 -0.3678
   40MOL   H60028758   6.199   6.449   3.623 -1.7461 -1.0506  0.4028
   40MOL   H60128759   6.378   6.547   3.392  3.0834  1.7261  1.9019
   40MOL   H60228760   6.380   6.386   3.444 -2.1498 -0.8602  1.3254
   40MOL   H60328761   6.428   6.481   3.695 -0.1597  0.8316  0.3004
   40MOL   H60428762   6.454   6.631   3.623  0.5497 -0.3980 -1.1672
   40MOL   H60528763   6.646   6.554   3.493  1.0926  2.6098  2.3173
   40MOL   H60628764   6.620   6.391   3.540  2.3457 -0.6822  1.3846
   40MOL   H60728765   6.799   6.495   3.664  0.0217  1.4944 -0.0339
   40MOL   H60828766   6.687   6.612   3.735 -0.1821 -0.6206  1.2809
   40MOL   H60928767   6.589   6.144   3.836  0.1419  0.1905 -0.4078
   40MOL   H61028768   6.771   6.130   3.848 -0.5527 -1.8148 -0.1498
   40MOL   H61128769   6.665   6.046   3.957  1.8736 -0.7408 -0.1070
   40MOL   H61228770   6.699   6.191   4.201  0.0753 -0.3329  0.3152
   40MOL   H61328771   6.769   6.344   4.164 -2.8701 -0.2006  0.5618
   40MOL   C61428772   6.526   5.708   3.601  0.4822 -0.1831  0.2241
   40MOL   C61528773   6.501   5.591   3.681 -0.2716  1.1642 -0.2036
   40MOL   C61628774   6.374   5.608   3.771  0.6092 -0.2519  0.0702
   40MOL   C61728775   6.386   5.705   3.899  0.0819 -0.4531  0.3138
   40MOL   C61828776   6.459   5.635   4.013  0.4160  0.1403 -0.4423
   40MOL   C61928777   6.618   5.651   4.017  0.7989  0.9908 -0.4054
   40MOL   C62028778   6.671   5.794   4.012 -0.6858 -0.0797  0.5035
   40MOL   C62128779   6.814   5.807   4.052  0.0800  0.0202  0.7117
   40MOL   O62228780   6.861   5.941   4.046  0.3932 -0.5921  0.1231
   40MOL   C62328781   6.868   6.011   4.153  0.0116 -0.4242 -0.1571
   40MOL   O62428782   6.855   5.962   4.265 -0.2063  0.1073  0.2865
   40MOL   C62528783   6.897   6.166   4.143  0.1652  0.1233 -0.8489
   40MOL   C62628784   6.989   6.200   4.028 -0.0034  0.1944 -0.3262
   40MOL   C62728785   6.959   6.227   4.287 -0.2755 -0.0080 -0.0138
   40MOL   H62828786   6.630   5.738   3.615  0.4819 -0.3114  0.5004
   40MOL   H62928787   6.454   5.785   3.627 -1.5877 -0.9859 -2.8829
   40MOL   H63028788   6.507   5.693   3.495  1.9741  1.8586 -0.3482
   40MOL   H63128789   6.485   5.507   3.614  2.7858 -1.1782  1.8731
   40MOL   H63228790   6.593   5.571   3.736 -0.4680 -0.1573 -0.3389
   40MOL   H63328791   6.344   5.510   3.809 -0.8450  0.6500  1.3039
   40MOL   H63428792   6.296   5.638   3.700  0.9894 -1.9731 -1.1070
   40MOL   H63528793   6.287   5.736   3.933 -0.0173  0.1931 -0.5355
   40MOL   H63628794   6.425   5.799   3.859 -1.8353  0.3986  0.3829
   40MOL   H63728795   6.430   5.681   4.108 -0.9837 -1.0056 -0.3160
   40MOL   H63828796   6.437   5.529   4.014 -0.4957  0.3320 -0.1516
   40MOL   H63928797   6.634   5.605   4.114 -1.3772  1.2495  0.1010
   40MOL   H64028798   6.658   5.591   3.935 -1.8467 -0.1069 -0.9384
   40MOL   H64128799   6.610   5.870   4.061  2.2707  1.4844  1.8920
   40MOL   H64228800   6.663   5.818   3.906 -0.3711 -2.5258 -0.0977
   40MOL   H64328801   6.848   5.755   4.142 -3.6298  1.3409  2.9368
   40MOL   H64428802   6.863   5.744   3.977  1.8148  1.0276  0.9636
   40MOL   H64528803   7.001   6.308   4.031  2.0832  0.0380 -1.6041
   40MOL   H64628804   6.950   6.173   3.930  0.9398  0.5412 -0.8010
   40MOL   H64728805   7.080   6.142   4.042 -1.9145 -2.7184  0.5966
   40MOL   H64828806   6.900   6.175   4.363 -1.7555 -1.0363 -1.8290
   40MOL   H64928807   6.925   6.328   4.308 -0.0118  0.0945 -0.0857
   40MOL   C65028808   6.818   6.827   4.752 -0.5850 -0.0095 -0.9145
   40MOL   C65128809   6.831   6.728   4.636  0.2299  0.1663  0.0749
   40MOL   C65228810   6.973   6.728   4.589 -0.6148  0.2129 -0.1202
   40MOL   C65328811   7.014   6.844   4.489 -0.0479  0.0112 -0.2594
   40MOL   C65428812   7.167   6.835   4.448  0.7461 -1.0463 -0.4218
   40MOL   C65528813   7.227   6.706   4.378 -0.3212 -0.3427  0.2038
   40MOL   C65628814   7.183   6.675   4.233 -0.5595  0.4777  0.6253
   40MOL   C65728815   7.225   6.534   4.172 -0.1844  0.1398 -0.0101
   40MOL   O65828816   7.152   6.438   4.239  0.0612  0.2385 -0.5846
   40MOL   C65928817   7.194   6.306   4.241  0.3172 -0.1948 -0.1798
   40MOL   O66028818   7.284   6.260   4.165 -0.3381 -0.7215 -0.1933
   40MOL   C66128819   7.110   6.216   4.339 -0.2813 -0.6551  0.2211
   40MOL   C66228820   7.167   6.072   4.327 -0.4570 -0.2651  0.1260
   40MOL   C66328821   7.106   6.274   4.487 -0.8561  0.1361  0.2800
   40MOL   H66428822   6.867   6.785   4.839 -1.5016 -0.0397 -0.4143
   40MOL   H66528823   6.712   6.847   4.767 -0.3422  0.0349  0.7531
   40MOL   H66628824   6.864   6.926   4.742 -0.9815  0.3918  1.1787
   40MOL   H66728825   6.760   6.750   4.556 -0.2747  0.9215  0.7134
   40MOL   H66828826   6.798   6.625   4.651 -0.7949  0.3617 -0.7929
   40MOL   H66928827   6.991   6.634   4.539 -0.4347  1.0594 -1.6695
   40MOL   H67028828   7.045   6.720   4.670  0.6820  2.8748 -0.9450
   40MOL   H67128829   6.978   6.935   4.535  1.5093 -0.1708  1.3958
   40MOL   H67228830   6.949   6.840   4.402 -0.1259 -1.5093 -0.1526
   40MOL   H67328831   7.209   6.844   4.549 -0.6844  1.2682  0.0003
   40MOL   H67428832   7.192   6.930   4.401  1.1694 -0.0349  1.7450
   40MOL   H67528833   7.334   6.723   4.382 -0.6774  1.8225  1.0812
   40MOL   H67628834   7.206   6.621   4.443  0.5364 -0.3359  0.4879
   40MOL   H67728835   7.210   6.757   4.167  0.6085 -0.1450  0.3249
   40MOL   H67828836   7.074   6.675   4.229 -0.6268 -0.5377  2.1537
   40MOL   H67928837   7.332   6.517   4.182 -0.4318 -0.8230  1.0935
   40MOL   H68028838   7.198   6.514   4.069 -0.8327 -1.4860  0.4503
   40MOL   H68128839   7.098   5.994   4.362  1.5182 -1.4751  1.4249
   40MOL   H68228840   7.261   6.060   4.380 -0.0641  0.7678 -0.3413
   40MOL   H68328841   7.189   6.047   4.223  0.3365 -0.5605  0.3601
   40MOL   H68428842   7.085   6.380   4.472  1.8401  0.5805 -0.7853
   40MOL   H68528843   7.017   6.231   4.533 -0.8024  0.6852  0.9102
   40MOL   C68628844   7.451   6.535   5.191 -0.6633  0.2224 -0.9722
   40MOL   C68728845   7.449   6.402   5.117  0.2045  0.2118  0.0980
   40MOL   C68828846   7.394   6.285   5.193  0.0930  0.2925 -0.1429
   40MOL   C68928847   7.443   6.150   5.138  0.9610 -0.2970  0.0241
   40MOL   C69028848   7.400   6.123   4.991  0.1237  0.1203 -1.0122
   40MOL   C69128849   7.432   5.976   4.957  0.8410  0.2329  0.3206
   40MOL   C69228850   7.347   5.911   4.847 -0.1955 -0.4568 -0.4072
   40MOL   C69328851   7.391   5.935   4.699 -0.2137  0.1129 -0.0178
   40MOL   O69428852   7.369   6.075   4.665  0.7781 -0.6427  0.2780
   40MOL   C69528853   7.242   6.112   4.631  0.0347 -0.1772 -0.0839
   40MOL   O69628854   7.140   6.047   4.651 -0.4979 -0.8471 -0.1503
   40MOL   C69728855   7.222   6.263   4.592 -0.2711 -0.4198  0.0344
   40MOL   C69828856   7.190   6.340   4.725 -0.4147  0.1688  0.2526
   40MOL   C69928857   7.354   6.324   4.534 -1.0598  0.5507  0.2402
   40MOL   H70028858   7.502   6.552   5.286 -0.9905  0.9743 -0.9246
   40MOL   H70128859   7.352   6.569   5.221 -0.2174 -0.5625  1.4726
   40MOL   H70228860   7.491   6.618   5.132 -0.5459  1.0809  0.2722
   40MOL   H70328861   7.553   6.382   5.090 -0.4653 -3.0473 -0.4030
   40MOL   H70428862   7.400   6.413   5.020 -2.3415  4.1652  1.7677
   40MOL   H70528863   7.285   6.289   5.189  0.1321  0.8898 -0.7078
   40MOL   H70628864   7.419   6.293   5.299 -2.4244 -0.0749  0.5124
   40MOL   H70728865   7.388   6.080   5.200  2.6394 -1.2334  0.4881
   40MOL   H70828866   7.551   6.138   5.152  0.9877  1.1010  1.1469
   40MOL   H70928867   7.451   6.185   4.917  0.9112 -1.0656 -1.4862
   40MOL   H71028868   7.296   6.154   4.985 -0.3880 -1.0145  1.3376
   40MOL   H71128869   7.538   5.960   4.936  0.6861 -0.1084 -0.1979
   40MOL   H71228870   7.411   5.925   5.051  0.8668  0.1232  0.2666
   40MOL   H71328871   7.341   5.802   4.844 -0.1705 -0.4373 -1.8399
   40MOL   H71428872   7.243   5.943   4.862  0.6238  1.2077  1.9128
   40MOL   H71528873   7.345   5.866   4.629 -1.3068 -1.1259  1.8535
   40MOL   H71628874   7.496   5.922   4.676 -0.1768  0.4941 -0.0776
   40MOL   H71728875   7.087   6.320   4.756 -0.1252 -0.2739  0.9514
   40MOL   H71828876   7.263   6.316   4.803  1.2011  0.3663 -1.1733
   40MOL   H71928877   7.205   6.448   4.723  1.3845 -0.0414  1.1426
   40MOL   H72028878   7.337   6.424   4.493  0.8303  0.8228  0.0733
   40MOL   H72128879   7.401   6.265   4.455 -1.2862 -2.5886  2.3677
   40MOL   H72228880   7.430   6.328   4.612  0.3864 -1.4680 -0.9956
   41MOL     C128881   3.488   6.106   3.147  0.3761 -0.0147 -0.5180
   41MOL     C228882   3.594   6.020   3.078  0.3235 -0.4022  0.1026
   41MOL     C328883   3.637   6.068   2.942 -0.6076  0.1089  0.0504
   41MOL     C428884   3.542   6.059   2.823 -0.2672  0.0470  0.0095
   41MOL     C528885   3.617   6.108   2.695  0.4575 -0.3165  0.3682
   41MOL     C628886   3.531   6.113   2.573 -0.1885  0.5520  0.4884
   41MOL     C728887   3.530   5.973   2.510  0.0150  0.0731 -0.2084
   41MOL     C828888   3.478   5.955   2.364  1.1950  0.0951 -0.2251
   41MOL     O928889   3.339   5.994   2.385  0.2208 -0.2180 -0.3170
   41MOL    C1028890   3.269   6.023   2.275  0.1416  0.9371 -0.1436
   41MOL    O1128891   3.316   6.013   2.156 -0.1221  0.3055 -0.3174
   41MOL    C1228892   3.119   6.053   2.298  0.4602 -0.4817 -1.1402
   41MOL    C1328893   3.059   5.913   2.325  0.6097  0.4973 -0.0794
   41MOL    C1428894   3.068   6.152   2.403 -0.0859 -0.0261  0.0108
   41MOL    H1528895   3.454   6.050   3.234 -3.3780 -0.3486 -2.1453
   41MOL    H1628896   3.413   6.156   3.086  1.8558  3.3060  0.2233
   41MOL    H1728897   3.538   6.189   3.198 -1.9146  0.5213  0.8988
   41MOL    H1828898   3.558   5.919   3.061 -1.1689  0.2550 -0.7763
   41MOL    H1928899   3.684   6.018   3.140  1.7340  1.6461 -1.8204
   41MOL    H2028900   3.652   6.176   2.953  1.2838  0.2761 -3.2579
   41MOL    H2128901   3.735   6.027   2.919 -0.4120  0.6492 -0.0953
   41MOL    H2228902   3.508   5.956   2.815  0.8244 -0.3126 -0.0659
   41MOL    H2328903   3.454   6.120   2.844 -0.1037  1.0475 -2.0428
   41MOL    H2428904   3.707   6.050   2.676  0.8429  0.4043 -0.0292
   41MOL    H2528905   3.653   6.210   2.712  1.2177 -0.5075 -0.0869
   41MOL    H2628906   3.567   6.188   2.502  1.4052  1.2884  2.0265
   41MOL    H2728907   3.427   6.140   2.593  0.2339  1.8167  1.0555
   41MOL    H2828908   3.471   5.910   2.576 -0.1910 -0.1389 -0.5912
   41MOL    H2928909   3.630   5.931   2.493  0.2931  1.3548 -1.8178
   41MOL    H3028910   3.483   5.857   2.317  0.6511  1.4139 -3.0970
   41MOL    H3128911   3.544   6.016   2.303  0.6095  0.6925 -0.2659
   41MOL    H3228912   3.074   5.873   2.425 -0.0266 -1.4338 -0.7451
   41MOL    H3328913   2.951   5.929   2.319  0.3868 -0.8972  0.0123
   41MOL    H3428914   3.069   5.840   2.244  0.3125  1.9800 -1.4944
   41MOL    H3528915   3.087   6.102   2.499  0.9034 -2.4927 -1.4123
   41MOL    H3628916   2.959   6.148   2.403 -0.0884  0.0166 -0.8012
   41MOL    H3728917   3.098   6.089   2.198  0.6203  1.8357 -0.3777
   41MOL    C3828918   2.915   7.001   1.549 -0.5360 -0.5875  0.8441
   41MOL    C3928919   3.009   7.041   1.653 -0.0011  0.5831  0.0801
   41MOL    C4028920   2.984   6.982   1.795  0.1955  0.3573  0.6411
   41MOL    C4128921   2.981   6.827   1.799  0.6394 -0.3329  0.0174
   41MOL    C4228922   2.953   6.768   1.939  0.1626  0.0943  0.3227
   41MOL    C4328923   2.932   6.621   1.943 -0.0463 -0.0031 -0.1373
   41MOL    C4428924   2.942   6.555   2.083  0.1173 -0.1049 -0.3751
   41MOL    C4528925   2.950   6.400   2.086  0.6111  0.5875  0.4244
   41MOL    O4628926   2.970   6.372   2.224 -0.3098 -0.0906  0.4663
   41MOL    C4728927   3.098   6.362   2.266  0.0588  0.0951 -0.4907
   41MOL    O4828928   3.192   6.402   2.198  0.3646 -0.2318 -0.1412
   41MOL    C4928929   3.115   6.302   2.407  0.0773  0.9564  0.2991
   41MOL    C5028930   3.257   6.317   2.456  0.2593 -0.2807 -0.2126
   41MOL    C5128931   3.022   6.363   2.514 -0.0299 -0.1973 -0.2873
   41MOL    H5228932   2.912   6.893   1.535  1.6693 -0.3234 -2.0531
   41MOL    H5328933   2.949   7.041   1.454  1.7481 -1.0308  1.4477
   41MOL    H5428934   2.815   7.044   1.555 -2.1971 -3.8505 -1.7021
   41MOL    H5528935   3.014   7.148   1.672  0.9106  1.0986 -2.9711
   41MOL    H5628936   3.107   7.015   1.613  0.4774  2.2301  0.1233
   41MOL    H5728937   3.059   7.028   1.860  0.4744  0.9068 -0.0559
   41MOL    H5828938   2.888   7.026   1.819  0.1325 -0.2979  1.6258
   41MOL    H5928939   3.065   6.777   1.751  0.3883 -1.1697  0.4336
   41MOL    H6028940   2.892   6.815   1.738  0.1836  0.2951  0.5530
   41MOL    H6128941   3.042   6.790   1.997  1.2211 -1.2488 -0.7435
   41MOL    H6228942   2.864   6.819   1.976  1.0386  1.1354  1.0107
   41MOL    H6328943   2.833   6.608   1.899  0.3504  0.5478 -1.2117
   41MOL    H6428944   3.000   6.569   1.876 -0.7962 -1.0661 -0.1030
   41MOL    H6528945   2.853   6.584   2.140  0.4145  0.7520 -0.3365
   41MOL    H6628946   3.025   6.606   2.131 -0.4594  0.4584  0.0461
   41MOL    H6728947   3.033   6.359   2.028  0.4819  2.3173 -1.0046
   41MOL    H6828948   2.857   6.352   2.054 -0.0128  1.2500  1.2088
   41MOL    H6928949   3.298   6.418   2.447 -2.0521  0.8786  1.9516
   41MOL    H7028950   3.280   6.285   2.557  2.3782 -0.4596 -0.7124
   41MOL    H7128951   3.330   6.264   2.394  1.8825  1.6790 -0.0486
   41MOL    H7228952   3.016   6.302   2.604  1.0127  1.1302  0.7020
   41MOL    H7328953   2.919   6.352   2.480 -0.1082  0.3742 -0.2461
   41MOL    C7428954   3.174   7.066   3.412  0.0226  0.6419  0.0547
   41MOL    C7528955   3.101   6.982   3.299 -0.3918 -0.2114  0.0850
   41MOL    C7628956   3.156   6.840   3.298  0.0727 -0.3072  0.4945
   41MOL    C7728957   3.134   6.760   3.171  0.2393 -0.9464 -0.0667
   41MOL    C7828958   3.176   6.614   3.201 -0.9400 -0.5461  0.8645
   41MOL    C7928959   3.157   6.528   3.072 -0.1619 -0.3918  0.2138
   41MOL    C8028960   3.255   6.558   2.959 -0.1949 -0.1991 -0.2762
   41MOL    C8128961   3.263   6.449   2.847 -0.2242 -0.1736  0.7679
   41MOL    O8228962   3.148   6.451   2.770  0.1275  0.3165 -0.0702
   41MOL    C8328963   3.147   6.531   2.660  0.4551  0.2262  0.3668
   41MOL    O8428964   3.233   6.613   2.627 -0.2680  0.1499  0.1099
   41MOL    C8528965   3.021   6.509   2.572 -0.0218 -0.7147 -0.0037
   41MOL    C8628966   3.018   6.608   2.451  0.1066  0.4005  0.1698
   41MOL    C8728967   2.886   6.528   2.658  0.7088  0.1285  0.3584
   41MOL    H8828968   3.161   7.013   3.507 -0.0074  1.2158  0.3766
   41MOL    H8928969   3.150   7.172   3.424 -2.4278  0.0903  0.2517
   41MOL    H9028970   3.282   7.072   3.398  0.1020  3.3023  1.4035
   41MOL    H9128971   3.109   7.022   3.198  0.5428 -0.2938  0.1218
   41MOL    H9228972   2.997   7.007   3.323 -0.1052  0.5259  0.5966
   41MOL    H9328973   3.263   6.840   3.321  0.2141  1.4196 -0.1311
   41MOL    H9428974   3.109   6.789   3.382 -0.5534 -0.6710 -0.0754
   41MOL    H9528975   3.194   6.797   3.088  0.1691  1.0509  0.7454
   41MOL    H9628976   3.029   6.757   3.142 -0.0922  0.9202  0.8925
   41MOL    H9728977   3.282   6.601   3.225  0.2065  0.7472 -3.1055
   41MOL    H9828978   3.119   6.579   3.286 -2.0002  1.0158  0.8222
   41MOL    H9928979   3.186   6.427   3.100  0.9416 -0.0713  0.2505
   41MOL   H10028980   3.055   6.524   3.036  0.4710  0.1891 -1.6973
   41MOL   H10128981   3.232   6.653   2.911 -0.9221 -0.5687 -0.6695
   41MOL   H10228982   3.350   6.577   3.008  0.2900 -0.6651 -1.0469
   41MOL   H10328983   3.262   6.349   2.890 -1.2314 -1.0760 -1.2973
   41MOL   H10428984   3.344   6.461   2.776 -0.0633  1.8851  1.2581
   41MOL   H10528985   2.936   6.567   2.392 -1.6350  1.7331  1.6189
   41MOL   H10628986   3.109   6.604   2.392  1.3644 -1.7792  2.1673
   41MOL   H10728987   3.006   6.714   2.473  0.1688  0.1170  1.6611
   41MOL   H10828988   2.813   6.503   2.581  0.9480  1.5421 -0.3261
   41MOL   H10928989   2.876   6.441   2.724  2.3676  0.1303  0.6256
   41MOL   C11028990   2.195   6.437   1.801 -0.4504  0.4478 -0.2948
   41MOL   C11128991   2.295   6.547   1.848  0.4594  0.3860  1.0183
   41MOL   C11228992   2.353   6.537   1.982 -0.2780  0.2085 -0.2506
   41MOL   C11328993   2.423   6.659   2.019  0.5138 -0.3106  0.4709
   41MOL   C11428994   2.483   6.664   2.165  0.3661  0.8934  0.2822
   41MOL   C11528995   2.555   6.799   2.189  0.1051 -0.4616 -0.2784
   41MOL   C11628996   2.650   6.799   2.308 -0.2209 -0.1628  0.0235
   41MOL   C11728997   2.587   6.781   2.450 -0.6165 -0.4721 -0.3274
   41MOL   O11828998   2.669   6.698   2.533  0.5299  0.1789 -0.4654
   41MOL   C11928999   2.773   6.751   2.607 -0.3366 -0.0908  0.0722
   41MOL   O12029000   2.810   6.869   2.589 -0.2165 -0.1224 -0.1004
   41MOL   C12129001   2.830   6.664   2.712  0.0166  0.6320 -0.0420
   41MOL   C12229002   2.946   6.746   2.777 -0.1203 -0.5611  0.5916
   41MOL   C12329003   2.715   6.618   2.812 -0.0600  0.1370 -0.2326
   41MOL   H12429004   2.178   6.441   1.693 -0.2998  1.9874 -0.2746
   41MOL   H12529005   2.242   6.340   1.816 -1.6066 -0.0025  0.5199
   41MOL   H12629006   2.102   6.441   1.858  0.4435  0.4750  1.1864
   41MOL   H12729007   2.233   6.635   1.831 -0.0083 -0.2152 -0.5208
   41MOL   H12829008   2.387   6.556   1.790 -0.3762  3.4554  0.1025
   41MOL   H12929009   2.414   6.447   1.985 -0.6184 -0.0722 -1.4184
   41MOL   H13029010   2.275   6.516   2.055  1.3281  3.1143  2.4040
   41MOL   H13129011   2.485   6.683   1.932  1.1346  2.6851  1.7011
   41MOL   H13229012   2.354   6.743   2.027  0.3590 -0.2387 -1.3877
   41MOL   H13329013   2.565   6.592   2.171 -0.2138  0.1231 -0.8612
   41MOL   H13429014   2.403   6.644   2.235  0.9006  0.6538  0.8295
   41MOL   H13529015   2.603   6.834   2.097 -1.0185 -1.1218 -1.1159
   41MOL   H13629016   2.482   6.877   2.208  0.2041  0.4175 -3.2122
   41MOL   H13729017   2.717   6.885   2.302  0.9069 -1.0268  0.2078
   41MOL   H13829018   2.719   6.717   2.288  0.9766  1.3065 -2.0326
   41MOL   H13929019   2.563   6.875   2.501 -0.1878  0.2406 -1.4069
   41MOL   H14029020   2.499   6.717   2.455  0.8016 -2.4142  0.4169
   41MOL   H14129021   2.969   6.709   2.877 -4.5455  0.7995  2.2284
   41MOL   H14229022   3.026   6.749   2.703 -0.8156  2.9271 -0.0807
   41MOL   H14329023   2.915   6.848   2.801  1.4996  0.0802  0.0297
   41MOL   H14429024   2.746   6.538   2.879 -1.0008  0.5711  0.7426
   41MOL   H14529025   2.646   6.565   2.747  0.2267 -2.3514  1.4465
   41MOL   C14629026   2.662   7.737   2.653  0.3235 -0.2876 -0.6846
   41MOL   C14729027   2.695   7.591   2.688  0.0294  0.4314 -0.1882
   41MOL   C14829028   2.684   7.552   2.837  0.9498 -0.2169  0.3770
   41MOL   C14929029   2.699   7.401   2.859 -0.4695 -0.8516  0.3446
   41MOL   C15029030   2.687   7.365   3.012 -0.1445 -0.1726  0.4202
   41MOL   C15129031   2.685   7.216   3.031 -0.5253  0.7884 -0.0181
   41MOL   C15229032   2.817   7.148   2.996 -0.2460 -0.3596  0.2204
   41MOL   C15329033   2.817   6.999   3.034 -0.2445  0.4456 -0.8255
   41MOL   O15429034   2.723   6.924   2.960  0.1974 -0.5305  0.0407
   41MOL   C15529035   2.711   6.798   2.993 -0.5757 -0.5329 -0.2312
   41MOL   O15629036   2.764   6.746   3.099 -0.1022  0.0145 -0.3372
   41MOL   C15729037   2.620   6.708   2.900 -0.5327  0.3537 -0.4119
   41MOL   C15829038   2.533   6.795   2.811  0.1307  0.4576 -0.3876
   41MOL   C15929039   2.521   6.614   2.979 -0.3935  0.2864 -0.5088
   41MOL   H16029040   2.669   7.741   2.545 -2.1848  0.1185 -0.8476
   41MOL   H16129041   2.743   0.018   2.694 -0.8760  0.1317  1.1600
   41MOL   H16229042   2.558   7.765   2.669  0.6600 -0.1850  1.6172
   41MOL   H16329043   2.635   7.518   2.634 -0.2837  0.4795  0.0990
   41MOL   H16429044   2.798   7.572   2.658 -0.7194  0.2829 -2.8184
   41MOL   H16529045   2.596   7.589   2.890  0.5268  0.9197 -1.1144
   41MOL   H16629046   2.763   7.602   2.893  0.0730 -0.0031  1.4476
   41MOL   H16729047   2.636   7.347   2.788 -1.8585 -0.4352  1.2277
   41MOL   H16829048   2.797   7.369   2.825 -0.3888  0.3796 -0.5991
   41MOL   H16929049   2.586   7.399   3.039  0.4889  1.6921  0.5334
   41MOL   H17029050   2.756   7.422   3.074  1.1858 -0.2683 -0.9594
   41MOL   H17129051   2.610   7.183   2.958  0.5260  0.9719 -1.2075
   41MOL   H17229052   2.659   7.192   3.134  0.0725  0.4889  0.0684
   41MOL   H17329053   2.849   7.157   2.892 -0.2793  0.6976  0.2921
   41MOL   H17429054   2.899   7.195   3.049 -1.5495 -0.3620  2.2849
   41MOL   H17529055   2.917   6.960   3.017 -0.1503  0.9437 -1.4413
   41MOL   H17629056   2.785   6.994   3.138  2.3792 -0.6742 -0.0453
   41MOL   H17729057   2.595   6.857   2.747 -0.0936  2.1218  0.9841
   41MOL   H17829058   2.471   6.865   2.867 -0.2736  0.2119 -0.5230
   41MOL   H17929059   2.482   6.729   2.740  1.6516 -0.7362 -0.3962
   41MOL   H18029060   2.590   6.585   3.058 -1.1285  1.1230  0.4482
   41MOL   H18129061   2.502   6.525   2.919 -0.9038 -0.3185  0.5201
   41MOL   C18229062   1.410   6.902   3.276 -0.1011  0.4445 -0.6005
   41MOL   C18329063   1.396   6.898   3.130  0.2299  0.3895  0.4611
   41MOL   C18429064   1.518   6.959   3.055 -0.1139  0.2696 -0.0928
   41MOL   C18529065   1.649   6.884   3.070  0.2579  0.1654  0.1321
   41MOL   C18629066   1.765   6.957   2.992 -0.2280 -0.4620  0.9502
   41MOL   C18729067   1.888   6.867   2.967 -0.1082  0.2236  0.4734
   41MOL   C18829068   2.003   6.936   2.891  0.1929 -0.5247  0.7121
   41MOL   C18929069   2.111   6.833   2.856  0.4465 -0.0234  0.1906
   41MOL   O19029070   2.196   6.793   2.961 -0.4034  0.0302  0.3603
   41MOL   C19129071   2.285   6.694   2.934 -0.4850  0.0916  0.2889
   41MOL   O19229072   2.292   6.632   2.825  0.2386  0.1948  0.0710
   41MOL   C19329073   2.387   6.667   3.051 -0.0773 -0.3217  0.2057
   41MOL   C19429074   2.412   6.788   3.136  0.4688  0.2074 -0.8341
   41MOL   C19529075   2.331   6.551   3.131  0.0971 -0.3318  0.7531
   41MOL   H19629076   1.313   6.874   3.317 -2.1421  3.4318 -3.0636
   41MOL   H19729077   1.482   6.832   3.316 -2.5581 -1.9546 -0.1880
   41MOL   H19829078   1.429   7.005   3.309  0.0743  0.6307 -1.2732
   41MOL   H19929079   1.302   6.946   3.104 -0.6950 -1.6533 -0.0949
   41MOL   H20029080   1.381   6.794   3.101 -1.4808  0.6172  0.4876
   41MOL   H20129081   1.496   6.968   2.948 -2.4205  0.8623  0.4039
   41MOL   H20229082   1.527   7.064   3.079 -2.2422  0.4563 -0.0028
   41MOL   H20329083   1.674   6.838   3.165 -2.3798 -1.2693  0.1852
   41MOL   H20429084   1.619   6.796   3.012 -2.2437  0.8444  0.3193
   41MOL   H20529085   1.795   7.040   3.056 -0.3091  0.3379 -0.0519
   41MOL   H20629086   1.730   7.016   2.908  2.2790  2.4419  1.8751
   41MOL   H20729087   1.859   6.786   2.899  1.2908 -1.0858  1.4080
   41MOL   H20829088   1.926   6.819   3.057  0.3265  0.1379  0.2427
   41MOL   H20929089   1.976   6.990   2.801 -0.0368 -1.6004  0.1241
   41MOL   H21029090   2.051   7.010   2.955  2.3206 -1.6709  0.4966
   41MOL   H21129091   2.166   6.882   2.775  0.0113 -1.2451 -0.8620
   41MOL   H21229092   2.070   6.739   2.819 -0.4099 -1.0795  3.7164
   41MOL   H21329093   2.480   6.861   3.092  0.9271  0.7153  0.6589
   41MOL   H21429094   2.327   6.854   3.150  0.1199 -0.4384  0.1077
   41MOL   H21529095   2.457   6.764   3.233 -0.0852  0.4404 -0.5128
   41MOL   H21629096   2.337   6.460   3.073  0.8969  0.3113 -0.1878
   41MOL   H21729097   2.407   6.525   3.204  1.5585  1.1408 -0.1978
   41MOL   C21829098   1.439   7.297   3.585 -0.3649 -0.4059  0.2524
   41MOL   C21929099   1.507   7.195   3.667 -0.0451 -0.2302  0.6458
   41MOL   C22029100   1.590   7.091   3.590 -0.4350  0.1180 -0.4241
   41MOL   C22129101   1.682   7.009   3.677  0.2692  0.4696 -0.2394
   41MOL   C22229102   1.756   6.889   3.599 -0.0567 -0.3534 -0.0578
   41MOL   C22329103   1.865   6.935   3.502 -0.6624 -0.2540  0.2406
   41MOL   C22429104   1.915   6.826   3.400 -0.8100 -0.8690  0.0054
   41MOL   C22529105   2.045   6.869   3.322 -0.3954 -0.5091 -0.1885
   41MOL   O22629106   2.104   6.759   3.246  0.0760 -0.3381  0.2800
   41MOL   C22729107   2.164   6.652   3.307 -0.1246  0.1491  0.1389
   41MOL   O22829108   2.199   6.651   3.421  0.8792  0.0054  0.0261
   41MOL   C22929109   2.194   6.534   3.206  0.1218 -0.6888  0.0098
   41MOL   C23029110   2.216   6.404   3.292  0.4457  0.0368 -0.2684
   41MOL   C23129111   2.078   6.518   3.094 -0.6854 -0.2162 -0.6811
   41MOL   H23229112   1.512   7.359   3.533 -1.4712  0.0668 -0.7563
   41MOL   H23329113   1.374   7.358   3.649 -0.2702 -0.8732  0.8040
   41MOL   H23429114   1.366   7.249   3.521  2.3607 -1.6799 -1.9887
   41MOL   H23529115   1.438   7.136   3.726 -0.8434 -1.0146 -1.0514
   41MOL   H23629116   1.573   7.248   3.736 -0.1944 -1.6122  1.8814
   41MOL   H23729117   1.526   7.021   3.537 -0.9762 -0.0843  0.4890
   41MOL   H23829118   1.646   7.138   3.509  1.9594 -1.1103  0.4505
   41MOL   H23929119   1.754   7.059   3.742 -0.3491  0.3880  0.5223
   41MOL   H24029120   1.616   6.970   3.755  1.3455 -1.9612 -0.4985
   41MOL   H24129121   1.791   6.807   3.661 -1.6876 -1.6425 -0.8017
   41MOL   H24229122   1.681   6.849   3.531 -2.2062  3.4027 -0.0611
   41MOL   H24329123   1.822   7.004   3.429 -1.8337 -0.9233  0.2912
   41MOL   H24429124   1.943   6.993   3.551  1.2016 -2.1505 -0.4277
   41MOL   H24529125   1.834   6.813   3.328 -0.3927  1.3611 -0.9013
   41MOL   H24629126   1.922   6.726   3.443  0.5279 -0.7514  0.0877
   41MOL   H24729127   2.120   6.903   3.394 -2.5704 -1.8669  2.8505
   41MOL   H24829128   2.040   6.965   3.270  1.6096  0.0336  0.5586
   41MOL   H24929129   2.294   6.424   3.366  1.4165  1.8894 -1.7564
   41MOL   H25029130   2.243   6.319   3.229  1.0359  0.5295 -0.6909
   41MOL   H25129131   2.131   6.384   3.357 -1.5101 -0.3745 -2.8700
   41MOL   H25229132   2.052   6.612   3.044  0.7816  0.1493 -0.8003
   41MOL   H25329133   2.126   6.477   3.005  1.2466 -1.0717  0.7212
   41MOL   C25429134   2.636   6.291   2.295  0.8101 -0.2614  0.7533
   41MOL   C25529135   2.578   6.273   2.437 -0.0475  0.1296 -0.6100
   41MOL   C25629136   2.465   6.379   2.474  0.4632 -0.5746 -0.2255
   41MOL   C25729137   2.418   6.379   2.615 -0.1545 -0.5587 -0.0455
   41MOL   C25829138   2.343   6.256   2.651  0.4398  0.4860 -0.6185
   41MOL   C25929139   2.260   6.261   2.783  0.0667  0.2020 -0.6439
   41MOL   C26029140   2.180   6.132   2.806 -0.6782 -0.0509 -0.0702
   41MOL   C26129141   2.118   6.143   2.944  0.2256  0.3170 -0.9241
   41MOL   O26229142   2.024   6.247   2.963 -0.1704 -0.5330 -0.1864
   41MOL   C26329143   1.987   6.287   3.090 -0.4426 -0.2446 -0.3240
   41MOL   O26429144   1.989   6.213   3.178 -0.5978  0.2504 -0.1326
   41MOL   C26529145   1.945   6.438   3.106  0.0558 -0.0265 -0.4751
   41MOL   C26629146   1.856   6.481   2.981  0.0638  0.5328 -0.3099
   41MOL   C26729147   1.882   6.474   3.246 -0.1270  0.1882 -0.3405
   41MOL   H26829148   2.565   6.243   2.227  0.5644  0.1825  0.6993
   41MOL   H26929149   2.638   6.396   2.268  1.1679 -0.4280  0.1174
   41MOL   H27029150   2.732   6.243   2.277  0.5135 -0.6073  0.0363
   41MOL   H27129151   2.537   6.172   2.443  0.1672 -0.0321 -1.8522
   41MOL   H27229152   2.667   6.281   2.500  0.4280  2.1350 -1.5128
   41MOL   H27329153   2.398   6.365   2.389 -0.9824 -1.0947  0.9716
   41MOL   H27429154   2.519   6.473   2.464 -1.1698  0.3516 -0.4102
   41MOL   H27529155   2.354   6.468   2.616 -0.0385 -0.4752 -0.0282
   41MOL   H27629156   2.492   6.402   2.691  0.4156 -0.4593 -0.6295
   41MOL   H27729157   2.271   6.243   2.570 -0.9291  1.1422  0.4776
   41MOL   H27829158   2.413   6.172   2.650  0.7778  0.7644 -0.5332
   41MOL   H27929159   2.195   6.347   2.775 -0.8637 -0.5628 -1.4039
   41MOL   H28029160   2.319   6.283   2.872  1.4839  0.4948 -1.6509
   41MOL   H28129161   2.114   6.109   2.722  0.3920 -0.9540 -0.6813
   41MOL   H28229162   2.255   6.054   2.802 -1.3005 -0.7013  0.7284
   41MOL   H28329163   2.065   6.048   2.956  0.4088  0.0568 -2.0616
   41MOL   H28429164   2.201   6.164   3.011  0.6922 -0.6523 -1.1959
   41MOL   H28529165   1.784   6.404   2.956  0.7075 -0.5034  0.9604
   41MOL   H28629166   1.814   6.579   3.001  0.8533  0.3518  2.4935
   41MOL   H28729167   1.914   6.486   2.889  0.8829 -0.3385  0.1475
   41MOL   H28829168   1.884   6.582   3.263 -3.4404 -0.0064  1.7583
   41MOL   H28929169   1.942   6.441   3.331 -4.1127 -2.5648  1.5593
   41MOL   C29029170   1.585   6.881   4.261 -0.0827  0.0635 -0.2840
   41MOL   C29129171   1.453   6.813   4.212  0.4158  0.4460  0.4584
   41MOL   C29229172   1.482   6.670   4.171 -0.3766 -0.1406  0.0663
   41MOL   C29329173   1.577   6.672   4.049 -0.6879 -0.2979 -0.1868
   41MOL   C29429174   1.601   6.541   3.970  0.0968 -0.7217  0.4022
   41MOL   C29529175   1.706   6.556   3.860 -0.1893  0.0704 -0.1398
   41MOL   C29629176   1.693   6.449   3.747 -0.0138  0.8266  0.1211
   41MOL   C29729177   1.816   6.447   3.653 -0.6325  0.3425  0.4593
   41MOL   O29829178   1.783   6.409   3.522 -0.6156  0.6916 -0.0651
   41MOL   C29929179   1.726   6.484   3.430  0.2321  0.6675 -0.0249
   41MOL   O30029180   1.676   6.594   3.447 -0.6248 -0.2354 -0.5261
   41MOL   C30129181   1.732   6.437   3.285  0.4898 -0.4658  0.5044
   41MOL   C30229182   1.645   6.522   3.196 -0.9316 -0.0982  0.3208
   41MOL   C30329183   1.697   6.281   3.279  0.8392 -0.6320  0.1542
   41MOL   H30429184   1.651   6.905   4.178 -1.1431  1.0343 -0.8541
   41MOL   H30529185   1.639   6.809   4.323 -0.6385 -0.5031 -0.4506
   41MOL   H30629186   1.565   6.976   4.311  0.4695 -0.8368  1.7341
   41MOL   H30729187   1.400   6.872   4.138 -0.6916 -0.6279  0.3754
   41MOL   H30829188   1.382   6.804   4.294  0.1938 -2.0942  0.0249
   41MOL   H30929189   1.388   6.628   4.135 -0.2706 -1.4138  1.1879
   41MOL   H31029190   1.523   6.599   4.243  0.8061 -2.0632 -2.4184
   41MOL   H31129191   1.528   6.748   3.988  0.4385  2.1071  1.8048
   41MOL   H31229192   1.674   6.703   4.088 -1.5571  1.4680  0.6273
   41MOL   H31329193   1.624   6.460   4.039 -1.7503 -1.7297 -0.1371
   41MOL   H31429194   1.505   6.513   3.925  0.7173 -3.7287  0.8192
   41MOL   H31529195   1.810   6.552   3.895 -0.3565  2.4600  0.7257
   41MOL   H31629196   1.697   6.648   3.803 -0.0168 -0.7034 -1.4287
   41MOL   H31729197   1.604   6.468   3.688  0.2204  0.2436 -0.4221
   41MOL   H31829198   1.682   6.350   3.791  1.4801  0.5716 -0.0384
   41MOL   H31929199   1.894   6.385   3.698 -0.3407  1.2193  1.1552
   41MOL   H32029200   1.868   6.542   3.642  1.0767 -0.4709  1.2532
   41MOL   H32129201   1.620   6.485   3.097  0.0541 -1.8983  0.7265
   41MOL   H32229202   1.694   6.618   3.179  1.9079 -0.7682  4.1116
   41MOL   H32329203   1.546   6.546   3.235 -0.5308  0.3263  1.0867
   41MOL   H32429204   1.680   6.261   3.173 -0.6372  0.3506  0.1805
   41MOL   H32529205   1.786   6.225   3.307  0.4108  0.4050  3.8578
   41MOL   C32629206   2.323   5.879   3.022  0.4677  0.0349 -0.8140
   41MOL   C32729207   2.284   5.871   3.168  0.7440 -0.2059 -0.3791
   41MOL   C32829208   2.159   5.943   3.211  0.2054  0.0800  0.5427
   41MOL   C32929209   2.090   5.900   3.338 -0.1300 -0.2238 -0.8796
   41MOL   C33029210   2.019   6.013   3.416 -0.2412  0.3085  0.3717
   41MOL   C33129211   1.967   5.964   3.550  0.3965  0.1423  1.0470
   41MOL   C33229212   1.909   6.080   3.641  0.4531  0.0325  0.5429
   41MOL   C33329213   1.758   6.087   3.638 -0.6152 -0.4917  0.9710
   41MOL   O33429214   1.713   6.119   3.508 -0.0348 -0.2607 -0.1345
   41MOL   C33529215   1.596   6.181   3.493 -0.1336 -0.6152 -0.2008
   41MOL   O33629216   1.526   6.227   3.587 -0.3619  0.0189 -0.1563
   41MOL   C33729217   1.571   6.208   3.345 -0.0587 -0.1347  0.6501
   41MOL   C33829218   1.439   6.298   3.321 -0.4808 -0.5611 -0.5072
   41MOL   C33929219   1.557   6.070   3.266 -0.3697 -0.5602 -0.1583
   41MOL   H34029220   2.242   5.850   2.956  0.8565  1.6174 -2.0480
   41MOL   H34129221   2.411   5.819   2.998  0.4856 -0.8559  1.4125
   41MOL   H34229222   2.344   5.985   3.006  1.8980  0.0378  0.9178
   41MOL   H34329223   2.365   5.896   3.237  0.7244 -0.2304 -0.3469
   41MOL   H34429224   2.277   5.767   3.199  1.5973  0.3927  1.9355
   41MOL   H34529225   2.080   5.942   3.136  0.4368 -0.2290  0.2998
   41MOL   H34629226   2.182   6.050   3.208  1.0156 -0.1117 -2.4714
   41MOL   H34729227   2.145   5.833   3.404  0.2131 -1.0036 -1.9390
   41MOL   H34829228   2.011   5.830   3.310  0.5059 -0.8739 -1.0922
   41MOL   H34929229   2.078   6.103   3.430 -0.5226  0.8469 -1.6691
   41MOL   H35029230   1.932   6.052   3.362  0.5077  0.8520 -0.4544
   41MOL   H35129231   1.885   5.894   3.532 -0.0241  0.8064  0.3287
   41MOL   H35229232   2.048   5.918   3.606 -0.9768 -1.4021  1.8153
   41MOL   H35329233   1.954   6.175   3.614 -0.0845  0.2715  0.4863
   41MOL   H35429234   1.948   6.060   3.741 -0.9654 -0.0737  1.0871
   41MOL   H35529235   1.720   5.986   3.657  0.7942 -1.4535 -1.1521
   41MOL   H35629236   1.719   6.150   3.718 -0.7490 -0.3336  0.7801
   41MOL   H35729237   1.444   6.331   3.217  1.9242  0.0900 -0.2303
   41MOL   H35829238   1.350   6.240   3.342 -1.3537 -0.0469 -2.6586
   41MOL   H35929239   1.426   6.387   3.382 -0.2794  0.3070 -1.7111
   41MOL   H36029240   1.531   6.107   3.167  1.0735  0.1263 -0.2997
   41MOL   H36129241   1.659   6.033   3.252 -0.3135 -0.1305 -0.8968
   41MOL   C36229242   0.624   5.984   2.595 -0.4178 -0.9175 -0.2113
   41MOL   C36329243   0.757   5.939   2.653  0.1683 -0.2295  0.8350
   41MOL   C36429244   0.875   6.043   2.642  0.5428  0.3427  0.1021
   41MOL   C36529245   0.994   6.003   2.732  0.2156 -0.2090 -0.4367
   41MOL   C36629246   0.969   6.043   2.881 -0.6338  0.2441 -0.3103
   41MOL   C36729247   1.085   6.019   2.979 -0.0478  0.0461 -0.3068
   41MOL   C36829248   1.069   6.114   3.104 -0.9714  0.4583 -0.8195
   41MOL   C36929249   1.127   6.056   3.234  0.0901  0.3373  0.2464
   41MOL   O37029250   1.266   6.031   3.225 -0.3537  0.1972  0.0846
   41MOL   C37129251   1.325   5.978   3.325 -0.2455  0.1609  0.1063
   41MOL   O37229252   1.277   5.967   3.434  0.4023 -0.0507 -0.0723
   41MOL   C37329253   1.470   5.936   3.303  1.3076  0.3322  0.0384
   41MOL   C37429254   1.523   5.868   3.430 -0.3289  0.4075 -0.0293
   41MOL   C37529255   1.459   5.826   3.182 -0.4816  0.0130 -0.2000
   41MOL   H37629256   0.576   6.079   2.615 -2.0348 -2.0714  1.5331
   41MOL   H37729257   0.617   5.963   2.488 -0.9492  1.3118 -0.6360
   41MOL   H37829258   0.559   5.914   2.647 -0.2584 -1.3817 -0.6300
   41MOL   H37929259   0.792   5.842   2.621 -3.1779 -1.7219  1.4238
   41MOL   H38029260   0.739   5.932   2.760 -1.2167 -1.4728  0.5379
   41MOL   H38129261   0.831   6.139   2.671  0.3777  0.1482  0.4978
   41MOL   H38229262   0.901   6.050   2.537 -0.9299  0.1059 -0.2908
   41MOL   H38329263   1.091   6.047   2.708  0.4753 -0.5351  0.0109
   41MOL   H38429264   0.996   5.894   2.722 -0.2129 -0.0720 -2.2525
   41MOL   H38529265   0.943   6.148   2.890  1.4063  0.6619  1.0238
   41MOL   H38629266   0.881   5.986   2.910  0.4901 -1.0574  0.6264
   41MOL   H38729267   1.178   6.038   2.925 -0.4137  0.0951 -0.9132
   41MOL   H38829268   1.095   5.919   3.021  0.1998 -0.0137 -0.5102
   41MOL   H38929269   0.965   6.133   3.130 -0.6488  1.7921 -0.4504
   41MOL   H39029270   1.114   6.210   3.079  1.8039 -0.3019  0.9957
   41MOL   H39129271   1.109   6.124   3.318 -1.7547 -2.2556  2.0137
   41MOL   H39229272   1.068   5.967   3.255  1.2951 -0.6387 -0.5040
   41MOL   H39329273   1.617   5.818   3.409  0.2508  1.9391 -1.1448
   41MOL   H39429274   1.535   5.937   3.514 -0.7065 -1.4306  1.5552
   41MOL   H39529275   1.457   5.785   3.456  1.3590 -0.8234  0.3932
   41MOL   H39629276   1.431   5.734   3.233  0.8301 -0.6234 -0.6007
   41MOL   H39729277   1.367   5.843   3.125  1.3661  1.4961 -2.8284
   41MOL   C39829278   0.920   6.314   2.378  0.5271  0.2740  0.0383
   41MOL   C39929279   1.071   6.315   2.360  0.2953 -0.5778  0.4979
   41MOL   C40029280   1.133   6.194   2.427  1.0049 -0.6181  0.1856
   41MOL   C40129281   1.287   6.191   2.391  0.0239 -0.0648 -0.1623
   41MOL   C40229282   1.363   6.081   2.465  0.3668  0.2547 -0.3514
   41MOL   C40329283   1.402   6.131   2.605  0.3131  0.7769 -0.2096
   41MOL   C40429284   1.447   6.016   2.700  0.2400  0.4998 -0.4555
   41MOL   C40529285   1.476   6.068   2.845 -0.3697  0.2722 -0.8588
   41MOL   O40629286   1.475   5.949   2.925 -0.7962  0.1118  0.2310
   41MOL   C40729287   1.590   5.906   2.987 -0.0644  0.2865 -0.0550
   41MOL   O40829288   1.694   5.972   2.987 -0.6849 -0.6335  0.7342
   41MOL   C40929289   1.569   5.784   3.075  0.5050  0.2191  0.0143
   41MOL   C41029290   1.704   5.752   3.152  0.4729 -0.6187  0.1774
   41MOL   C41129291   1.512   5.659   3.001 -0.1007 -0.4248 -0.2045
   41MOL   H41229292   0.859   6.232   2.341 -0.3688  0.7291  0.4889
   41MOL   H41329293   0.883   6.401   2.323  2.2057  1.4307  0.6932
   41MOL   H41429294   0.906   6.327   2.485 -1.5392 -1.4689  0.0144
   41MOL   H41529295   1.108   6.405   2.410  0.0751 -0.3378  0.2328
   41MOL   H41629296   1.087   6.320   2.252 -0.5476  0.7827  0.4264
   41MOL   H41729297   1.109   6.200   2.533  0.9652  2.6896  0.0528
   41MOL   H41829298   1.094   6.100   2.389 -0.3125  0.4644 -1.2229
   41MOL   H41929299   1.327   6.291   2.407 -1.8181  0.3281  2.2758
   41MOL   H42029300   1.308   6.184   2.284  0.3205  3.1595 -0.3579
   41MOL   H42129301   1.292   5.999   2.480 -1.5933  2.1223  0.8463
   41MOL   H42229302   1.446   6.043   2.405 -0.3877  1.3653 -2.1669
   41MOL   H42329303   1.331   6.199   2.653 -3.5093 -1.4895 -2.4159
   41MOL   H42429304   1.492   6.193   2.598  1.0470 -0.5016 -2.6316
   41MOL   H42529305   1.359   5.953   2.704  0.9213 -0.5410 -1.6223
   41MOL   H42629306   1.524   5.950   2.661  1.2128  2.0623 -1.2377
   41MOL   H42729307   1.573   6.116   2.853 -0.4116  0.0729  1.3351
   41MOL   H42829308   1.399   6.130   2.891  0.7351  1.0935 -0.0981
   41MOL   H42929309   1.786   5.735   3.082 -1.1262 -0.5503 -1.7807
   41MOL   H43029310   1.687   5.667   3.218 -0.7698 -0.5942 -0.0911
   41MOL   H43129311   1.739   5.843   3.202 -0.2559 -0.3775  0.2550
   41MOL   H43229312   1.418   5.691   2.956  1.1094  0.0894 -2.4878
   41MOL   H43329313   1.488   5.576   3.067 -0.0014  0.8805  1.5015
   41MOL   C43429314   1.413   4.807   3.502 -0.0971  0.2802  0.3010
   41MOL   C43529315   1.423   4.886   3.375  0.4143 -0.2028 -0.8947
   41MOL   C43629316   1.537   4.842   3.280  0.2286  0.4559 -0.1618
   41MOL   C43729317   1.598   4.945   3.186  1.0479  0.5456 -0.4528
   41MOL   C43829318   1.668   5.065   3.240  0.0906 -0.1766 -0.1310
   41MOL   C43929319   1.748   5.142   3.132 -0.1934  0.1638  0.5471
   41MOL   C44029320   1.829   5.269   3.180 -0.2565 -0.0585 -0.1167
   41MOL   C44129321   1.841   5.367   3.059  0.5022  0.1787 -0.6573
   41MOL   O44229322   1.716   5.427   3.019 -0.0332 -0.3447 -0.4215
   41MOL   C44329323   1.722   5.526   2.925 -0.0234 -0.3269  0.7497
   41MOL   O44429324   1.835   5.561   2.869 -0.0580  0.4874 -0.4828
   41MOL   C44529325   1.591   5.590   2.883 -0.0082  0.2951  0.0905
   41MOL   C44629326   1.627   5.679   2.766  0.4482 -0.3249  0.1565
   41MOL   C44729327   1.490   5.474   2.845  0.4165 -0.3043 -0.7185
   41MOL   H44829328   1.504   4.804   3.562  0.5657 -2.8224 -0.7852
   41MOL   H44929329   1.391   4.702   3.481 -0.9073  0.4306  0.3769
   41MOL   H45029330   1.333   4.848   3.564  1.1651  0.2665  1.9475
   41MOL   H45129331   1.437   4.990   3.403 -2.8302 -0.0849  0.5160
   41MOL   H45229332   1.327   4.897   3.325 -0.5397  0.6285  1.0610
   41MOL   H45329333   1.498   4.761   3.217 -2.1060 -0.6071  2.5181
   41MOL   H45429334   1.623   4.819   3.342  0.1074  0.3947 -0.0148
   41MOL   H45529335   1.526   4.978   3.111  1.5318  0.5012 -0.9403
   41MOL   H45629336   1.673   4.896   3.124  0.5437  1.1574 -1.5833
   41MOL   H45729337   1.588   5.128   3.278  0.6283  1.4125 -1.5595
   41MOL   H45829338   1.729   5.024   3.321  0.7706  0.0859 -0.5086
   41MOL   H45929339   1.670   5.178   3.064  0.7764 -1.9148 -1.7381
   41MOL   H46029340   1.815   5.079   3.073 -0.4603  0.3349  0.0529
   41MOL   H46129341   1.786   5.317   3.269  3.5047  3.3199  0.0042
   41MOL   H46229342   1.935   5.260   3.203 -0.1799  1.2572  0.1268
   41MOL   H46329343   1.877   5.329   2.964  0.7736 -1.0882 -0.0563
   41MOL   H46429344   1.911   5.444   3.093  0.2160  0.1733 -0.0509
   41MOL   H46529345   1.694   5.762   2.789 -0.2382  0.1927  0.3037
   41MOL   H46629346   1.677   5.630   2.683  0.0121  0.2775 -0.4716
   41MOL   H46729347   1.537   5.728   2.728  0.4338  0.0542  0.6725
   41MOL   H46829348   1.479   5.420   2.940 -1.2633  1.4480  0.1149
   41MOL   H46929349   1.391   5.518   2.831 -0.3585 -1.8892 -0.3912
   41MOL   C47029350   1.323   5.595   3.695  0.1004 -0.6050  0.3342
   41MOL   C47129351   1.384   5.504   3.587  0.9061 -0.2320  0.0628
   41MOL   C47229352   1.295   5.458   3.464 -0.0478  1.1721 -0.8500
   41MOL   C47329353   1.364   5.355   3.368 -0.3164 -0.1890  0.4913
   41MOL   C47429354   1.284   5.335   3.239 -0.6753 -0.1290  1.2025
   41MOL   C47529355   1.339   5.232   3.137  0.2979 -0.4881  0.7944
   41MOL   C47629356   1.256   5.219   3.008  0.5254  0.4503  0.9043
   41MOL   C47729357   1.319   5.128   2.892 -0.0825  0.0363  0.5931
   41MOL   O47829358   1.428   5.200   2.838  0.3974 -0.3952  0.0585
   41MOL   C47929359   1.407   5.272   2.736  0.4684  0.6228  1.3398
   41MOL   O48029360   1.310   5.251   2.659 -0.0782 -0.4681 -0.3318
   41MOL   C48129361   1.505   5.378   2.717  0.4392 -0.6689 -0.7128
   41MOL   C48229362   1.472   5.459   2.593 -0.3517  0.1176  0.0979
   41MOL   C48329363   1.651   5.317   2.711  0.3006 -0.8737  0.2162
   41MOL   H48429364   1.293   5.696   3.668 -0.9793 -0.7185  1.0790
   41MOL   H48529365   1.394   5.604   3.776 -0.0271 -2.6609  0.7129
   41MOL   H48629366   1.232   5.546   3.730  0.3167 -2.6009 -1.7019
   41MOL   H48729367   1.472   5.555   3.548  0.6821  0.3243  0.2839
   41MOL   H48829368   1.433   5.425   3.644 -0.5623 -1.3007 -0.1335
   41MOL   H48929369   1.202   5.414   3.500 -1.4824  1.7784 -3.7148
   41MOL   H49029370   1.264   5.548   3.411  0.5425  1.7263 -0.2505
   41MOL   H49129371   1.460   5.398   3.342  0.1450 -1.5056 -0.0230
   41MOL   H49229372   1.390   5.261   3.417  1.3339 -0.4041 -0.7633
   41MOL   H49329373   1.187   5.297   3.271 -1.4194 -0.8678 -1.7962
   41MOL   H49429374   1.255   5.430   3.194 -3.5526 -0.0641  3.1003
   41MOL   H49529375   1.440   5.260   3.106 -0.6507  0.6529 -1.4468
   41MOL   H49629376   1.337   5.133   3.182  2.3968 -0.5214  0.8707
   41MOL   H49729377   1.153   5.190   3.026  0.0204 -0.4360 -2.8411
   41MOL   H49829378   1.244   5.320   2.969  3.7037  1.3517  2.1229
   41MOL   H49929379   1.235   5.109   2.826 -0.4304  0.4270  0.9229
   41MOL   H50029380   1.343   5.030   2.932 -0.2610 -0.5800 -0.7685
   41MOL   H50129381   1.440   5.396   2.510 -0.2676 -0.6648  0.6612
   41MOL   H50229382   1.557   5.523   2.567  0.1040  0.0441  1.3660
   41MOL   H50329383   1.382   5.516   2.615 -1.0191 -0.8990  0.0056
   41MOL   H50429384   1.723   5.396   2.691 -2.7675  1.8184 -0.6089
   41MOL   H50529385   1.687   5.293   2.812 -0.6972 -2.6904  0.1651
   41MOL   C50629386   2.404   4.916   1.961  0.1465  0.2704  0.5352
   41MOL   C50729387   2.316   5.031   2.013  0.0049  0.9674 -0.0956
   41MOL   C50829388   2.166   5.010   2.033  0.4962  0.2176 -0.5457
   41MOL   C50929389   2.099   5.139   2.091 -0.4841 -0.1074 -0.3570
   41MOL   C51029390   1.951   5.100   2.122 -0.1980  0.2452  0.2982
   41MOL   C51129391   1.866   5.221   2.163 -0.2835  0.4386  0.1205
   41MOL   C51229392   1.720   5.180   2.193  0.0164  0.3088  0.9136
   41MOL   C51329393   1.632   5.282   2.266 -0.1685 -0.0044  0.4592
   41MOL   O51429394   1.666   5.295   2.398  0.2052  0.0297  0.3553
   41MOL   C51529395   1.620   5.197   2.489 -0.0810  0.0602  0.9055
   41MOL   O51629396   1.534   5.108   2.468 -0.7810 -0.4667  0.1243
   41MOL   C51729397   1.702   5.197   2.624  0.3004 -0.0528 -0.1496
   41MOL   C51829398   1.848   5.218   2.603 -0.5477  0.1402  0.6452
   41MOL   C51929399   1.670   5.065   2.702 -0.0934  0.4237  0.5428
   41MOL   H52029400   2.369   4.884   1.863 -1.9419  0.4274  1.1951
   41MOL   H52129401   2.413   4.829   2.026 -2.4348 -1.3820 -1.2209
   41MOL   H52229402   2.507   4.947   1.947  1.3759 -3.7698  0.2432
   41MOL   H52329403   2.333   5.103   1.933 -1.0997  2.2435  0.8051
   41MOL   H52429404   2.371   5.060   2.102  0.4483 -1.8637  0.6005
   41MOL   H52529405   2.105   4.980   1.947 -2.9871 -1.2559  2.2877
   41MOL   H52629406   2.147   4.930   2.105 -2.2083 -0.1546 -1.5953
   41MOL   H52729407   2.152   5.183   2.176  0.5778 -2.1681  0.0761
   41MOL   H52829408   2.097   5.210   2.008  1.3428 -0.2153 -0.5235
   41MOL   H52929409   1.907   5.048   2.036 -0.4115 -0.0328  0.5737
   41MOL   H53029410   1.953   5.026   2.202  0.7276  0.9154  0.8985
   41MOL   H53129411   1.872   5.308   2.097  0.1047 -0.3968 -0.9590
   41MOL   H53229412   1.902   5.255   2.260  1.1077  0.5939 -0.4505
   41MOL   H53329413   1.721   5.083   2.242  0.3519 -0.2489 -0.1692
   41MOL   H53429414   1.666   5.160   2.100  0.9655  2.5503 -0.1602
   41MOL   H53529415   1.529   5.253   2.247  0.0244  0.6213 -1.7081
   41MOL   H53629416   1.614   5.377   2.215 -0.7473  0.6856  1.9262
   41MOL   H53729417   1.880   5.315   2.566 -2.8644 -0.1847 -2.4712
   41MOL   H53829418   1.890   5.151   2.529  0.9128 -1.0137  2.4831
   41MOL   H53929419   1.903   5.219   2.697  0.8932  2.2090 -0.2045
   41MOL   H54029420   1.678   5.081   2.809 -0.8513  1.6028  0.4274
   41MOL   H54129421   1.563   5.048   2.691  0.5987 -2.6817 -2.2891
   41MOL   C54229422   2.441   4.502   2.024 -0.1429 -0.8305  0.0971
   41MOL   C54329423   2.388   4.519   2.170  0.0263  0.5312  0.0880
   41MOL   C54429424   2.235   4.525   2.171  0.7136 -0.4558  0.7174
   41MOL   C54529425   2.179   4.559   2.306  0.3843  0.1792  0.3813
   41MOL   C54629426   2.213   4.699   2.355 -0.6347  0.9280  0.5898
   41MOL   C54729427   2.174   4.706   2.504  0.1512 -0.4557  0.4135
   41MOL   C54829428   2.212   4.836   2.586  0.3327 -0.3438  0.2748
   41MOL   C54929429   2.123   4.869   2.701 -0.1108 -0.3862  0.2099
   41MOL   O55029430   1.980   4.867   2.658 -0.0853  0.4139 -0.2735
   41MOL   C55129431   1.888   4.940   2.729 -0.0232  0.0808 -1.0007
   41MOL   O55229432   1.912   4.998   2.834  0.1607 -0.5710 -0.0581
   41MOL   C55329433   1.749   4.934   2.675 -0.3046  0.4506  0.4516
   41MOL   C55429434   1.750   4.893   2.528  0.4194  0.0200 -0.4110
   41MOL   C55529435   1.675   4.825   2.765 -0.4522 -0.1281 -0.7321
   41MOL   H55629436   2.442   4.600   1.975  3.0292 -1.5438 -1.4137
   41MOL   H55729437   2.385   4.428   1.967 -1.4907 -2.5432  3.4881
   41MOL   H55829438   2.546   4.475   2.025  0.1171  0.0240 -1.3626
   41MOL   H55929439   2.402   4.420   2.214 -1.1661 -0.4500 -1.6964
   41MOL   H56029440   2.441   4.590   2.234  1.9992 -1.4250  0.6882
   41MOL   H56129441   2.181   4.441   2.128 -2.0839  1.3727  0.4987
   41MOL   H56229442   2.210   4.608   2.104 -1.3672  0.5289  2.6550
   41MOL   H56329443   2.071   4.543   2.300  0.4155  0.2505 -0.4821
   41MOL   H56429444   2.221   4.491   2.381 -0.5895 -0.7870  0.0683
   41MOL   H56529445   2.166   4.773   2.291 -1.3414  0.7251  0.8670
   41MOL   H56629446   2.318   4.722   2.338 -1.0122  0.4927 -2.6869
   41MOL   H56729447   2.065   4.700   2.500  0.1008 -0.1906  1.1687
   41MOL   H56829448   2.217   4.618   2.552  2.2365  0.0068 -0.5706
   41MOL   H56929449   2.314   4.836   2.624 -0.5417 -1.3342  2.7242
   41MOL   H57029450   2.206   4.920   2.516  1.2821 -0.6586 -0.1802
   41MOL   H57129451   2.158   4.967   2.733  2.5718  0.0245 -3.5779
   41MOL   H57229452   2.115   4.796   2.781 -1.9889  0.3220  0.6786
   41MOL   H57329453   1.791   4.978   2.473 -1.6528  0.7095 -0.9155
   41MOL   H57429454   1.655   4.875   2.478 -0.3976 -0.2983  1.2347
   41MOL   H57529455   1.805   4.800   2.514  0.0337 -0.2337 -0.2607
   41MOL   H57629456   1.568   4.836   2.749 -0.5801  2.4640  1.4592
   41MOL   H57729457   1.690   4.850   2.870  1.8971  0.2374 -1.1239
   41MOL   C57829458   1.197   5.295   2.056  0.0161  0.3043  0.2908
   41MOL   C57929459   1.208   5.237   2.198  0.5831 -0.7025  0.3813
   41MOL   C58029460   1.256   5.091   2.187 -0.4136 -0.3760  0.3110
   41MOL   C58129461   1.226   5.014   2.314  0.1722 -0.2104  0.2730
   41MOL   C58229462   1.278   4.872   2.284  0.0666 -0.0472  0.2970
   41MOL   C58329463   1.319   4.799   2.403 -0.0494  0.1600 -0.8417
   41MOL   C58429464   1.400   4.667   2.387  0.2542 -0.8062  1.1494
   41MOL   C58529465   1.408   4.582   2.515 -0.4612 -0.1226  0.0877
   41MOL   O58629466   1.487   4.651   2.614  0.0336  0.4183 -0.0747
   41MOL   C58729467   1.620   4.620   2.622 -0.1634 -0.0260 -0.0318
   41MOL   O58829468   1.671   4.542   2.538  0.1426 -0.0346  0.6804
   41MOL   C58929469   1.691   4.661   2.751 -0.3149  0.7045 -0.6919
   41MOL   C59029470   1.603   4.601   2.869  0.5661  0.3842 -0.5000
   41MOL   C59129471   1.843   4.618   2.755 -0.1697 -0.1568 -0.4232
   41MOL   H59229472   1.171   5.400   2.064 -1.5246 -0.0577  0.3003
   41MOL   H59329473   1.117   5.242   2.003  0.2767 -0.0084  0.2086
   41MOL   H59429474   1.294   5.287   2.008  0.2209 -0.2333  0.7752
   41MOL   H59529475   1.111   5.251   2.246 -0.4962  1.7331 -2.3295
   41MOL   H59629476   1.289   5.288   2.250  0.4355 -0.3500  0.2727
   41MOL   H59729477   1.360   5.096   2.154 -1.1219  0.9354 -1.8112
   41MOL   H59829478   1.213   5.039   2.101  0.1312  0.9782 -0.7904
   41MOL   H59929479   1.118   5.025   2.322  0.3319  2.4843 -0.7252
   41MOL   H60029480   1.279   5.073   2.389 -1.3760  4.1288 -1.9145
   41MOL   H60129481   1.356   4.871   2.207 -0.2138 -0.1315  0.0133
   41MOL   H60229482   1.198   4.823   2.229  1.8052 -3.2984  0.5040
   41MOL   H60329483   1.226   4.768   2.450 -0.0581  1.7550  0.2487
   41MOL   H60429484   1.369   4.862   2.476 -0.4279 -0.7430  0.2118
   41MOL   H60529485   1.496   4.674   2.336 -0.5820  1.5921 -0.1505
   41MOL   H60629486   1.351   4.609   2.308  1.1736 -1.1114  0.7888
   41MOL   H60729487   1.305   4.556   2.538 -0.5692  1.1996  1.1565
   41MOL   H60829488   1.451   4.485   2.491 -0.5138 -0.7506  2.4877
   41MOL   H60929489   1.501   4.640   2.869  0.8522  1.1386 -0.4990
   41MOL   H61029490   1.601   4.492   2.876  1.3161  0.3423 -0.9671
   41MOL   H61129491   1.644   4.640   2.962 -0.4322 -0.4874  0.3238
   41MOL   H61229492   1.900   4.687   2.818  0.5631 -1.6312  0.5486
   41MOL   H61329493   1.882   4.615   2.653 -1.0204 -0.5109 -0.7456
   41MOL   C61429494   2.377   5.099   3.523  0.0948 -0.5144 -0.6069
   41MOL   C61529495   2.289   4.995   3.460  0.1897  0.4035 -0.1984
   41MOL   C61629496   2.244   5.037   3.323  0.0560 -0.5825  0.9014
   41MOL   C61729497   2.164   4.938   3.231  0.2228  0.0976 -0.0501
   41MOL   C61829498   2.028   4.900   3.295  0.3324  0.0966  0.8452
   41MOL   C61929499   1.952   4.789   3.218 -1.3620  0.2675 -0.2037
   41MOL   C62029500   2.010   4.645   3.238  0.5687  0.0292  0.5360
   41MOL   C62129501   1.924   4.532   3.176 -0.0258 -0.4788  0.1660
   41MOL   O62229502   1.923   4.549   3.035 -0.1906 -0.3538  0.4783
   41MOL   C62329503   1.862   4.455   2.956 -0.4482  0.2549 -0.4122
   41MOL   O62429504   1.793   4.360   2.991 -0.0411 -0.2774 -0.1663
   41MOL   C62529505   1.892   4.473   2.804  0.2659 -0.4451 -0.5611
   41MOL   C62629506   1.824   4.363   2.726 -0.1899 -0.1817  0.4437
   41MOL   C62729507   2.050   4.462   2.770 -0.1469 -0.1909 -0.2338
   41MOL   H62829508   2.316   5.183   3.556  0.1281 -0.3080 -1.0748
   41MOL   H62929509   2.438   5.150   3.448  0.2682  1.0657  0.5910
   41MOL   H63029510   2.436   5.059   3.606 -2.1763 -1.1373  0.7494
   41MOL   H63129511   2.355   4.912   3.434  0.1086  0.4778 -0.6411
   41MOL   H63229512   2.213   4.963   3.531  0.5345  0.2783  0.1171
   41MOL   H63329513   2.323   5.061   3.253 -1.8794 -0.2232 -1.1943
   41MOL   H63429514   2.188   5.130   3.321 -1.4171 -1.4659  0.3380
   41MOL   H63529515   2.225   4.851   3.207  0.1746 -0.1779  0.7947
   41MOL   H63629516   2.148   4.988   3.135 -0.2734 -0.9064 -0.5055
   41MOL   H63729517   2.034   4.863   3.397 -0.9956 -0.5308  0.7051
   41MOL   H63829518   1.978   4.996   3.309  0.1618  0.0123  0.8170
   41MOL   H63929519   1.847   4.783   3.247 -1.6814 -0.2798 -1.4810
   41MOL   H64029520   1.953   4.816   3.113  1.0899 -0.2357 -0.3552
   41MOL   H64129521   2.012   4.642   3.346 -0.8026  2.6640  0.6727
   41MOL   H64229522   2.110   4.641   3.194 -0.4906  3.2328 -2.4280
   41MOL   H64329523   1.969   4.437   3.203  0.5468 -0.2506  0.0028
   41MOL   H64429524   1.824   4.530   3.220 -0.1924 -0.8804 -0.2199
   41MOL   H64529525   1.845   4.348   2.620  1.5574  1.8938  0.4650
   41MOL   H64629526   1.716   4.378   2.737 -0.6693 -4.0663  1.7335
   41MOL   H64729527   1.842   4.266   2.772  1.5280 -1.0166 -1.9159
   41MOL   H64829528   2.104   4.541   2.824  1.1223 -2.0203  1.2384
   41MOL   H64929529   2.063   4.480   2.663  0.5415 -1.6668 -0.4097
   41MOL   C65029530   1.785   4.746   2.090 -0.0689  0.3214 -0.0700
   41MOL   C65129531   1.700   4.635   2.035 -0.4718  0.8251  0.3122
   41MOL   C65229532   1.771   4.497   2.044 -0.2754 -0.3739  0.4871
   41MOL   C65329533   1.787   4.444   2.187  0.2997  0.2389 -0.5119
   41MOL   C65429534   1.863   4.314   2.217 -0.5968  0.0017  0.3662
   41MOL   C65529535   1.881   4.282   2.364 -0.1931  0.3495  0.5160
   41MOL   C65629536   1.976   4.146   2.379  0.3365 -0.4810  0.1201
   41MOL   C65729537   2.024   4.110   2.523  0.8109 -1.0344  0.0405
   41MOL   O65829538   2.062   4.224   2.591  0.0275 -0.8674  0.1978
   41MOL   C65929539   2.092   4.210   2.721  0.2805  0.0402 -0.5429
   41MOL   O66029540   2.080   4.099   2.783  0.6350 -0.1092 -0.0701
   41MOL   C66129541   2.140   4.332   2.798 -0.0347  0.2470 -0.0312
   41MOL   C66229542   2.138   4.304   2.952 -0.0358  0.2174 -0.4982
   41MOL   C66329543   2.279   4.375   2.738  0.4111 -0.1113  0.4329
   41MOL   H66429544   1.800   4.734   2.197 -1.1635 -0.7722 -0.0188
   41MOL   H66529545   1.739   4.842   2.067  1.6752  1.3005  0.4342
   41MOL   H66629546   1.878   4.735   2.035  0.6270  1.1566  0.9282
   41MOL   H66729547   1.681   4.663   1.931  0.5651  0.4733  0.0241
   41MOL   H66829548   1.603   4.627   2.085 -0.8505 -0.4256 -0.6062
   41MOL   H66929549   1.870   4.501   1.998 -0.4594  0.9953  0.1670
   41MOL   H67029550   1.715   4.420   1.990 -0.9310 -0.9649  1.9873
   41MOL   H67129551   1.685   4.440   2.225 -0.2483  0.0516 -1.9865
   41MOL   H67229552   1.845   4.513   2.249 -0.0473 -1.2716  1.5189
   41MOL   H67329553   1.963   4.331   2.176 -0.6895 -0.6407 -0.1436
   41MOL   H67429554   1.833   4.221   2.169  0.9296 -0.0663 -0.4760
   41MOL   H67529555   1.928   4.372   2.404  0.2454  0.0439  0.6927
   41MOL   H67629556   1.778   4.280   2.399 -0.7130  0.5772 -0.9641
   41MOL   H67729557   2.066   4.179   2.328 -0.4939  2.3015  0.3233
   41MOL   H67829558   1.936   4.064   2.320 -0.7935  0.3718 -0.3383
   41MOL   H67929559   2.105   4.038   2.526  1.2221 -0.5868 -0.2195
   41MOL   H68029560   1.943   4.069   2.584 -0.3881  0.7380 -0.3187
   41MOL   H68129561   2.173   4.388   3.012  0.9329  0.6068 -1.5780
   41MOL   H68229562   2.210   4.229   2.981 -1.0333 -1.0818 -1.3275
   41MOL   H68329563   2.040   4.277   2.992 -0.1526  0.5000 -0.5840
   41MOL   H68429564   2.265   4.397   2.632  2.4080  2.9135  0.7191
   41MOL   H68529565   2.293   4.473   2.785 -1.2014 -0.6459  2.1168
   41MOL   C68629566   2.961   4.398   2.672 -0.0586  0.7889 -0.0463
   41MOL   C68729567   2.920   4.265   2.602 -0.0355 -0.0817 -0.2738
   41MOL   C68829568   2.858   4.294   2.467  0.5467  0.1938  0.0661
   41MOL   C68929569   2.821   4.159   2.405  0.1959 -0.7323 -0.2112
   41MOL   C69029570   2.758   4.198   2.269  0.2345 -0.7281  0.5032
   41MOL   C69129571   2.605   4.241   2.278 -0.3023  0.5442 -0.1755
   41MOL   C69229572   2.510   4.122   2.296 -0.3368 -0.3838 -0.5228
   41MOL   C69329573   2.373   4.147   2.370 -0.5851  0.3032  0.0229
   41MOL   O69429574   2.377   4.224   2.487  0.6509 -0.4563 -0.0688
   41MOL   C69529575   2.390   4.174   2.615 -0.5123  0.2863  0.0155
   41MOL   O69629576   2.390   4.049   2.641  0.7917 -0.5859 -0.1865
   41MOL   C69729577   2.403   4.278   2.728 -0.1229 -0.3409  0.2669
   41MOL   C69829578   2.436   4.209   2.861  0.2704  0.5824  1.3051
   41MOL   C69929579   2.524   4.368   2.694  0.2970 -0.1880 -0.5266
   41MOL   H70029580   3.022   4.461   2.607  0.6946 -1.2412 -1.3376
   41MOL   H70129581   3.027   4.368   2.753 -0.3420 -0.1184 -0.1474
   41MOL   H70229582   2.868   4.449   2.699  0.2074  1.8236 -1.0494
   41MOL   H70329583   2.849   4.211   2.665 -1.9431  1.3408 -1.1920
   41MOL   H70429584   3.006   4.197   2.597  0.0094 -0.1181  0.7355
   41MOL   H70529585   2.929   4.354   2.410 -0.6981  1.1111 -0.5147
   41MOL   H70629586   2.768   4.355   2.471  0.6850  0.3709  0.5092
   41MOL   H70729587   2.752   4.104   2.469 -0.0771  0.8415  0.8618
   41MOL   H70829588   2.911   4.105   2.378  0.0775 -0.1974 -1.7100
   41MOL   H70929589   2.773   4.112   2.203  1.5935  0.2235 -0.4419
   41MOL   H71029590   2.811   4.277   2.217 -0.2182  0.5034  1.8745
   41MOL   H71129591   2.585   4.314   2.357  0.5869 -1.3936  1.9160
   41MOL   H71229592   2.586   4.300   2.189 -0.1345  0.3378 -0.3465
   41MOL   H71329593   2.499   4.067   2.203 -0.3307  1.2296 -1.5004
   41MOL   H71429594   2.569   4.055   2.358  0.1656 -0.3375 -0.9455
   41MOL   H71529595   2.324   4.050   2.384  0.2737  0.0393  1.2817
   41MOL   H71629596   2.305   4.203   2.306  0.2136  1.9263  0.5829
   41MOL   H71729597   2.375   4.122   2.885  0.1143  0.1682 -0.5324
   41MOL   H71829598   2.535   4.168   2.880  0.0283 -0.3099  0.6439
   41MOL   H71929599   2.416   4.284   2.938  0.8580  1.8973  0.1826
   41MOL   H72029600   2.510   4.425   2.602 -1.7924 -0.0165 -0.1082
   41MOL   H72129601   2.612   4.308   2.668  0.7749  0.5439 -0.6307
   41MOL   H72229602   2.565   4.419   2.782  1.2178 -1.3006 -0.3056
   42MOL     C129603   6.697   7.725   0.904  0.2085  0.0635 -1.1588
   42MOL     C229604   6.804   0.027   0.984  0.4603  0.9296 -0.0219
   42MOL     C329605   6.822   7.756   1.125  0.2001 -0.3292 -0.1655
   42MOL     C429606   6.714   0.010   1.228 -0.3157 -0.1971 -0.4320
   42MOL     C529607   6.726   7.720   1.363 -0.1931  0.2716  0.1503
   42MOL     C629608   6.686   7.569   1.363 -0.7342  0.1361  0.3466
   42MOL     C729609   6.539   7.538   1.338 -0.1613 -0.0250  0.4146
   42MOL     C829610   6.493   7.395   1.374  0.1341  0.2608  0.0763
   42MOL     O929611   6.501   7.360   1.511 -0.4773 -0.1325  0.3289
   42MOL    C1029612   6.400   7.372   1.592  0.8291 -0.6416  0.0958
   42MOL    O1129613   6.284   7.393   1.568 -0.3209  0.3145  0.5342
   42MOL    C1229614   6.445   7.344   1.736 -0.4412 -0.3811 -0.3716
   42MOL    C1329615   6.514   7.210   1.740  0.1349  0.3093  0.1282
   42MOL    C1429616   6.551   7.456   1.791  0.1343  0.0779  0.1158
   42MOL    H1529617   6.711   7.619   0.920 -3.2134 -0.3702 -0.5319
   42MOL    H1629618   6.692   7.742   0.796 -1.8494 -1.4093 -1.3426
   42MOL    H1729619   6.596   7.739   0.943  1.0647 -1.1208  1.5660
   42MOL    H1829620   6.781   0.134   0.984  0.6900  0.9783 -0.5648
   42MOL    H1929621   6.905   0.039   0.945  0.3819 -0.5700 -0.7125
   42MOL    H2029622   6.826   7.648   1.115  0.4112 -0.2832 -0.5355
   42MOL    H2129623   6.921   7.777   1.164  1.1397 -0.2950 -2.5271
   42MOL    H2229624   6.722   0.118   1.239 -4.1594  0.1026  0.0112
   42MOL    H2329625   6.613   7.778   1.188  0.3366 -1.6205 -1.6817
   42MOL    H2429626   6.668   7.778   1.435 -0.3900 -0.9451  0.9754
   42MOL    H2529627   6.830   7.732   1.394  0.5081 -0.3030 -1.8815
   42MOL    H2629628   6.718   7.536   1.462  0.9137  1.7360  0.3662
   42MOL    H2729629   6.744   7.515   1.288 -1.1230  0.2624 -0.0463
   42MOL    H2829630   6.508   7.543   1.233  0.8007  0.1741  0.1314
   42MOL    H2929631   6.484   7.616   1.389  1.2164  1.0004  0.3499
   42MOL    H3029632   6.571   7.338   1.326  1.7992  1.8437  0.8132
   42MOL    H3129633   6.394   7.378   1.331 -0.3655  2.5953  0.2298
   42MOL    H3229634   6.445   7.135   1.702 -1.7273  1.7901  0.5070
   42MOL    H3329635   6.605   7.206   1.680 -0.9231  1.0674 -1.5711
   42MOL    H3429636   6.543   7.186   1.842 -0.8630  1.4395  0.6891
   42MOL    H3529637   6.584   7.518   1.707 -0.4268 -0.3712 -0.4453
   42MOL    H3629638   6.642   7.401   1.816 -0.7495 -1.3518  0.2415
   42MOL    H3729639   6.351   7.350   1.791  0.9032 -1.8564  2.1738
   42MOL    C3829640   6.898   6.897   2.886  0.4677 -0.0608 -0.1209
   42MOL    C3929641   6.811   6.909   2.765 -0.3645 -0.0968 -0.1048
   42MOL    C4029642   6.818   7.039   2.683 -1.1913 -0.2681  0.1750
   42MOL    C4129643   6.713   7.044   2.570 -0.6950  0.4430 -0.4991
   42MOL    C4229644   6.719   7.178   2.491  0.5642  0.1031 -0.4011
   42MOL    C4329645   6.628   7.170   2.370  0.5340  0.4550 -0.5475
   42MOL    C4429646   6.633   7.293   2.279  0.4004  0.5184  0.3385
   42MOL    C4529647   6.557   7.266   2.142 -0.0769  0.0299 -0.3235
   42MOL    O4629648   6.576   7.376   2.056 -0.1682 -0.1618  0.0439
   42MOL    C4729649   6.475   7.457   2.024  0.2314  0.0753  0.3410
   42MOL    O4829650   6.362   7.456   2.077 -0.2331  0.4135  0.0591
   42MOL    C4929651   6.502   7.553   1.907  0.1089 -0.2798 -0.3996
   42MOL    C5029652   6.377   7.626   1.862 -0.1969  1.0757 -0.2157
   42MOL    C5129653   6.620   7.652   1.944  0.2994 -0.0424 -0.5594
   42MOL    H5229654   7.005   6.906   2.867  0.1313  0.4450 -1.8700
   42MOL    H5329655   6.874   6.801   2.932  0.1810 -0.5166 -1.2017
   42MOL    H5429656   6.878   6.980   2.954 -2.3972  0.5763 -1.6655
   42MOL    H5529657   6.707   6.903   2.799 -0.2076  0.3837  0.4654
   42MOL    H5629658   6.827   6.826   2.696  2.2247  1.7792 -1.8729
   42MOL    H5729659   6.808   7.123   2.752  0.4398  0.2661 -0.2054
   42MOL    H5829660   6.917   7.040   2.637 -2.5197 -0.2938 -2.7660
   42MOL    H5929661   6.618   7.018   2.616 -0.0546 -0.3712  0.3878
   42MOL    H6029662   6.734   6.960   2.503 -2.6612  0.5578 -1.3013
   42MOL    H6129663   6.701   7.261   2.560  0.9148 -0.8786  0.9111
   42MOL    H6229664   6.819   7.195   2.451  0.8888  2.3889  1.2312
   42MOL    H6329665   6.651   7.081   2.311 -0.7656  0.6466 -1.3701
   42MOL    H6429666   6.525   7.146   2.399  0.2287  1.1855 -0.9975
   42MOL    H6529667   6.730   7.339   2.260  0.4575  0.7115  1.0776
   42MOL    H6629668   6.585   7.366   2.344  0.0899  0.2752  0.3832
   42MOL    H6729669   6.455   7.235   2.166 -0.1002  0.4765  0.1513
   42MOL    H6829670   6.603   7.180   2.092  1.0104  0.9636 -0.9414
   42MOL    H6929671   6.412   7.675   1.770  1.7436 -0.7691 -0.5052
   42MOL    H7029672   6.297   7.557   1.838  1.9350 -1.4373 -0.3213
   42MOL    H7129673   6.341   7.700   1.934  0.7400 -0.2055  1.5977
   42MOL    H7229674   6.671   7.689   1.855  0.1418 -1.3462 -1.2103
   42MOL    H7329675   6.688   7.591   2.004 -0.9665 -1.1904 -0.2571
   42MOL    C7429676   6.336   0.642   1.298  0.6096  0.3461 -0.5705
   42MOL    C7529677   6.287   0.498   1.274 -0.6090 -0.4938 -0.0140
   42MOL    C7629678   6.387   0.398   1.346 -0.2766 -0.0675  0.4634
   42MOL    C7729679   6.325   0.259   1.337 -0.0027  0.0773  0.8882
   42MOL    C7829680   6.408   0.134   1.393 -0.5419  0.0762  0.6115
   42MOL    C7929681   6.417   0.126   1.548  1.0110  0.1766  0.1099
   42MOL    C8029682   6.526   0.200   1.617 -0.5651 -0.4820  0.4652
   42MOL    C8129683   6.492   0.225   1.763 -0.4513 -0.0013  0.3103
   42MOL    O8229684   6.564   0.132   1.840  0.2646 -0.0710 -0.6531
   42MOL    C8329685   6.523   0.109   1.964  0.3272  0.1092 -0.0459
   42MOL    O8429686   6.427   0.160   2.012 -0.0811 -0.1830 -0.5421
   42MOL    C8529687   6.604   7.778   2.033 -0.5587 -0.0113  0.1263
   42MOL    C8629688   6.539   7.743   2.169 -0.3078  0.2687  0.3221
   42MOL    C8729689   6.748   0.051   2.072 -0.0208  0.0562  0.0305
   42MOL    H8829690   6.350   0.649   1.406 -2.3778 -1.0248 -0.0333
   42MOL    H8929691   6.260   0.718   1.278  1.0335  1.1663  0.8732
   42MOL    H9029692   6.423   0.670   1.238  0.5497 -0.1881 -0.9132
   42MOL    H9129693   6.265   0.483   1.168 -1.1804 -0.2916  0.0755
   42MOL    H9229694   6.190   0.487   1.322 -0.1597  0.5895  1.1546
   42MOL    H9329695   6.492   0.400   1.317 -0.3796  0.4302  0.1044
   42MOL    H9429696   6.386   0.424   1.451 -1.7343  0.9137  0.2231
   42MOL    H9529697   6.307   0.236   1.232 -0.6463  0.4501  0.9184
   42MOL    H9629698   6.231   0.261   1.392 -0.5691 -2.2212  0.0649
   42MOL    H9729699   6.371   0.038   1.358 -0.7517  0.3052  0.1932
   42MOL    H9829700   6.510   0.139   1.354 -1.4147  2.4035 -1.5535
   42MOL    H9929701   6.320   0.161   1.583  2.2743  1.7175  2.1613
   42MOL   H10029702   6.437   0.022   1.571 -0.9087 -0.2996 -0.3165
   42MOL   H10129703   6.623   0.151   1.605  0.5232  1.4839  1.0078
   42MOL   H10229704   6.540   0.298   1.572  0.2419 -0.2524  1.2039
   42MOL   H10329705   6.383   0.213   1.768 -0.4733  0.6694  1.3416
   42MOL   H10429706   6.510   0.326   1.798 -1.3736 -0.6867  2.8835
   42MOL   H10529707   6.542   0.048   2.238  0.8833 -0.0388  0.6523
   42MOL   H10629708   6.582   7.659   2.224 -1.6443 -1.6155 -1.4451
   42MOL   H10729709   6.432   7.723   2.170 -0.2611 -0.0037 -0.1263
   42MOL   H10829710   6.805   7.747   2.113  1.3137  1.9159  2.0202
   42MOL   H10929711   6.796   0.064   1.974  0.8514 -0.6954  0.3495
   42MOL   C11029712   7.626   0.200   2.484 -0.0530  0.3841  0.6336
   42MOL   C11129713   7.553   0.086   2.403 -0.0345  0.0214  0.2969
   42MOL   C11229714   7.407   0.070   2.439 -0.8568 -0.0719  0.7839
   42MOL   C11329715   7.337   7.740   2.366 -0.1912  0.3587 -0.0375
   42MOL   C11429716   7.196   7.736   2.410 -0.0883 -0.2856 -0.1993
   42MOL   C11529717   7.113   7.617   2.343  0.1335  0.1423  0.8769
   42MOL   C11629718   6.978   7.588   2.412  0.7663  0.0796  0.3272
   42MOL   C11729719   6.891   7.707   2.446  0.0265  0.0968 -0.2353
   42MOL   O11829720   6.870   7.779   2.328 -0.6750 -1.0544 -1.3949
   42MOL   C11929721   6.783   0.098   2.323  0.3619 -0.7826  0.1878
   42MOL   O12029722   6.711   0.132   2.415  0.0544  0.1224  0.1953
   42MOL   C12129723   6.781   0.162   2.180  0.3982 -1.0722  0.1539
   42MOL   C12229724   6.694   0.290   2.183 -0.1708  0.1613 -0.3612
   42MOL   C12329725   6.934   0.196   2.162 -0.1919 -0.0063  0.1794
   42MOL   H12429726   7.615   0.202   2.592  0.2339 -2.0699  0.7222
   42MOL   H12529727   7.731   0.191   2.457 -0.2779  2.1281 -1.0015
   42MOL   H12629728   7.594   0.300   2.452  2.2500  0.6833 -0.8527
   42MOL   H12729729   7.598   7.773   2.439  2.0917  1.0714  0.4653
   42MOL   H12829730   7.575   0.097   2.297 -3.9594 -1.9267 -0.8087
   42MOL   H12929731   7.368   0.170   2.421 -3.1770 -1.5147 -2.7859
   42MOL   H13029732   7.404   0.049   2.546 -0.3475  0.4478  0.9016
   42MOL   H13129733   7.337   7.765   2.260  1.0928 -0.6018 -0.2763
   42MOL   H13229734   7.398   7.650   2.378 -0.0792  0.4174 -0.1651
   42MOL   H13329735   7.140   0.049   2.396 -1.8728 -1.0490  1.6060
   42MOL   H13429736   7.190   7.732   2.519  0.5912  0.2323 -0.1444
   42MOL   H13529737   7.094   7.640   2.238  0.8683  1.3124  0.9832
   42MOL   H13629738   7.174   7.527   2.333 -0.5535 -0.2707  0.4130
   42MOL   H13729739   7.004   7.543   2.508 -3.4875 -1.3961  0.8965
   42MOL   H13829740   6.917   7.520   2.352 -1.1327  0.9616  1.2283
   42MOL   H13929741   6.797   7.671   2.490 -0.6053  0.4182 -1.3091
   42MOL   H14029742   6.928   7.775   2.524  0.6421 -0.1149 -0.3417
   42MOL   H14129743   6.590   0.263   2.198 -0.1249 -0.5745 -1.3001
   42MOL   H14229744   6.716   0.354   2.269 -1.2723  0.2077 -0.1145
   42MOL   H14329745   6.697   0.346   2.090 -2.1720 -0.2376 -0.6846
   42MOL   H14429746   6.981   0.101   2.135 -0.3953  0.3234 -1.3658
   42MOL   H14529747   6.962   0.228   2.263 -1.0786 -0.8370  0.7056
   42MOL   C14629748   7.330   7.677   1.053  0.7676  0.1976 -0.4322
   42MOL   C14729749   7.227   7.697   1.161  0.0304 -0.0542  0.1328
   42MOL   C14829750   7.282   7.730   1.301 -0.0970  0.0662 -1.0010
   42MOL   C14929751   7.171   7.757   1.401  0.4255 -0.4412  1.2562
   42MOL   C15029752   7.223   0.028   1.537  0.1570  0.6465  0.2017
   42MOL   C15129753   7.112   0.045   1.648 -0.1032  0.7155 -0.3460
   42MOL   C15229754   7.002   0.149   1.621 -0.5512  0.4908 -0.3216
   42MOL   C15329755   6.896   0.148   1.729 -0.6727 -0.7700 -0.2522
   42MOL   O15429756   6.964   0.193   1.849  0.5206 -0.4239  0.6000
   42MOL   C15529757   6.926   0.296   1.914  0.9947 -0.0296 -0.4186
   42MOL   O15629758   6.839   0.381   1.877 -0.5356  0.3988 -0.2989
   42MOL   C15729759   6.993   0.302   2.061  0.0333 -0.3412 -0.1892
   42MOL   C15829760   6.974   0.449   2.110  0.9502 -0.8780  0.0052
   42MOL   C15929761   7.149   0.274   2.064  0.5935 -0.1848 -0.2606
   42MOL   H16029762   7.296   7.677   0.950 -1.0301  0.2030  0.1480
   42MOL   H16129763   7.376   7.581   1.076 -0.6451 -0.5459 -0.6313
   42MOL   H16229764   7.404   7.756   1.063  0.5764  0.4185 -0.7500
   42MOL   H16329765   7.169   0.006   1.133 -0.1299 -1.3884 -4.1243
   42MOL   H16429766   7.146   7.624   1.164 -0.2048  0.0907 -1.8160
   42MOL   H16529767   7.353   0.033   1.298 -0.3422  0.4474  2.4405
   42MOL   H16629768   7.347   7.647   1.327 -0.9220  0.7696  3.6917
   42MOL   H16729769   7.106   0.054   1.358  1.2918 -0.3846  0.0475
   42MOL   H16829770   7.106   7.670   1.406 -0.1269 -0.1371 -0.3515
   42MOL   H16929771   7.277   0.122   1.525  1.9349 -0.4325 -0.4107
   42MOL   H17029772   7.300   7.739   1.570 -0.9332 -0.7638 -0.1186
   42MOL   H17129773   7.158   0.074   1.742 -2.5144  1.0240  0.7605
   42MOL   H17229774   7.077   7.723   1.668 -0.5516  0.9189 -0.1065
   42MOL   H17329775   7.045   0.249   1.627  1.3318 -0.2847 -0.5392
   42MOL   H17429776   6.959   0.146   1.521  1.9814  0.6697 -1.4580
   42MOL   H17529777   6.806   0.205   1.707 -1.6061 -1.9330  0.5174
   42MOL   H17629778   6.852   0.050   1.744 -1.4787 -0.1626  1.4882
   42MOL   H17729779   6.869   0.478   2.118  1.0290 -0.2404 -1.2599
   42MOL   H17829780   7.011   0.513   2.030 -1.5522  1.9857  1.0368
   42MOL   H17929781   7.021   0.474   2.206  1.2509  0.8741 -0.5794
   42MOL   H18029782   7.161   0.167   2.050 -2.1347 -0.4261 -1.2164
   42MOL   H18129783   7.172   0.286   2.170 -1.2728 -1.7117  0.3510
   42MOL   C18229784   0.180   1.321   1.874 -0.3047  0.3859  0.6290
   42MOL   C18329785   0.045   1.271   1.933 -0.0958 -0.0031  0.3035
   42MOL   C18429786   0.017   1.124   1.915  0.2898 -0.0810  0.2251
   42MOL   C18529787   7.689   1.071   2.005 -0.3072 -0.0115 -0.2320
   42MOL   C18629788   7.625   0.938   1.962  0.4319 -0.0908 -0.6388
   42MOL   C18729789   7.507   0.900   2.045  0.2558  0.2734  0.6028
   42MOL   C18829790   7.438   0.777   1.993 -0.5447 -0.1453  0.4640
   42MOL   C18929791   7.343   0.716   2.091  0.0528 -0.7635  0.0869
   42MOL   O19029792   7.280   0.603   2.035  0.1260 -0.2630 -0.0167
   42MOL   C19129793   7.302   0.481   2.091 -0.5461 -0.7390  0.0421
   42MOL   O19229794   7.352   0.460   2.201 -0.5446  0.3013 -0.2996
   42MOL   C19329795   7.261   0.361   2.002  0.6582  0.0051  0.3964
   42MOL   C19429796   7.207   0.409   1.863 -0.0382  0.5091  0.3700
   42MOL   C19529797   7.373   0.255   1.990  0.6521  0.7600  0.1583
   42MOL   H19629798   0.204   1.426   1.893 -0.6774  0.2492  1.9187
   42MOL   H19729799   0.261   1.265   1.921 -0.1317 -0.1916 -0.3556
   42MOL   H19829800   0.188   1.309   1.766 -2.4960  0.8329  0.4001
   42MOL   H19929801   7.738   1.334   1.917  0.5971  1.2282  1.2387
   42MOL   H20029802   0.064   1.280   2.040 -0.2122  1.8819  0.1747
   42MOL   H20129803   7.774   1.117   1.809 -1.3749 -1.0467  0.6387
   42MOL   H20229804   0.113   1.075   1.936  0.8342  0.4041 -1.0816
   42MOL   H20329805   7.730   1.051   2.104 -0.2060  0.5624 -0.1542
   42MOL   H20429806   7.617   1.152   2.018 -1.3102 -0.7301 -1.1505
   42MOL   H20529807   7.700   0.861   1.978 -0.1840 -0.2162  1.8141
   42MOL   H20629808   7.596   0.936   1.857  1.4326  2.1546 -0.9905
   42MOL   H20729809   7.437   0.983   2.048 -0.6579 -0.3972 -1.5980
   42MOL   H20829810   7.531   0.887   2.151  1.6103  2.7837  0.6203
   42MOL   H20929811   7.393   0.780   1.893 -1.6724 -0.0660  0.9635
   42MOL   H21029812   7.523   0.710   1.989 -0.3382  0.2219 -3.0691
   42MOL   H21129813   7.262   0.781   2.124  0.3834 -1.0705  1.5329
   42MOL   H21229814   7.416   0.696   2.170  1.5522  2.5500 -0.3397
   42MOL   H21329815   7.182   0.334   1.788  1.3171  0.0764  0.3252
   42MOL   H21429816   7.122   0.475   1.877 -0.7844 -0.0402 -1.4702
   42MOL   H21529817   7.286   0.464   1.811 -0.4853 -0.2383 -1.1275
   42MOL   H21629818   7.371   0.183   2.072  0.8012  0.0994 -0.4140
   42MOL   H21729819   7.333   0.186   1.916  0.0660 -0.6777  1.7697
   42MOL   C21829820   6.940   7.395   1.686 -0.0065  0.6796 -0.3399
   42MOL   C21929821   6.978   7.468   1.821 -0.3200 -0.2674 -0.4095
   42MOL   C22029822   7.126   7.449   1.853  0.3605 -0.2566  0.4496
   42MOL   C22129823   7.156   7.521   1.987  0.1856 -0.4040  0.4288
   42MOL   C22229824   7.297   7.504   2.043 -0.4817 -0.4072  0.2888
   42MOL   C22329825   7.395   7.614   1.997 -0.3026 -0.0689 -0.3112
   42MOL   C22429826   7.415   7.620   1.846  0.2960 -0.0675 -0.2712
   42MOL   C22529827   7.534   7.700   1.793  0.4470  0.6694 -0.3370
   42MOL   O22629828   7.504   0.058   1.816  0.0380 -0.1371 -0.4886
   42MOL   C22729829   7.573   0.129   1.908  0.3386 -0.1720  0.0952
   42MOL   O22829830   7.661   0.084   1.978  0.2442  0.1175 -0.3382
   42MOL   C22929831   7.524   0.275   1.944  0.0247 -0.2087  0.0878
   42MOL   C23029832   7.595   0.335   2.065 -0.8834  0.2208  0.4102
   42MOL   C23129833   7.541   0.370   1.822 -0.4202 -0.3674  0.0660
   42MOL   H23229834   6.839   7.401   1.644  0.3637  1.6959 -1.0990
   42MOL   H23329835   6.965   7.290   1.698  2.4651  1.2104 -0.5846
   42MOL   H23429836   7.008   7.430   1.609  1.1696 -0.2941  0.2501
   42MOL   H23529837   6.921   7.434   1.907 -1.1372  1.7390 -0.1380
   42MOL   H23629838   6.939   7.569   1.819  1.6433  0.5044 -3.7975
   42MOL   H23729839   7.168   7.349   1.862  1.2876 -0.1048 -1.8960
   42MOL   H23829840   7.185   7.492   1.772  0.4169 -2.9302 -0.9520
   42MOL   H23929841   7.135   7.628   1.977 -0.0029 -0.4954 -0.1745
   42MOL   H24029842   7.087   7.489   2.065 -0.7463 -1.3436 -0.7844
   42MOL   H24129843   7.291   7.517   2.151 -1.2474 -0.5414  0.2626
   42MOL   H24229844   7.342   7.407   2.021  1.0662 -0.0150  1.6896
   42MOL   H24329845   7.349   7.705   2.034 -0.6849 -0.9251  1.3539
   42MOL   H24429846   7.488   7.585   2.046 -2.1081 -2.4651  1.8696
   42MOL   H24529847   7.320   7.652   1.801 -0.8105 -1.4649  1.0259
   42MOL   H24629848   7.427   7.516   1.816  0.2635 -0.2172  0.2343
   42MOL   H24729849   7.527   7.686   1.685 -0.5150 -2.8106  0.1072
   42MOL   H24829850   7.622   7.653   1.836 -0.6967  0.5407  1.9511
   42MOL   H24929851   7.584   0.443   2.062 -1.1719  0.2058  0.9013
   42MOL   H25029852   7.703   0.320   2.063 -1.0576 -1.0798  0.4723
   42MOL   H25129853   7.564   0.283   2.156 -0.7948  0.1381  0.3936
   42MOL   H25229854   7.475   0.322   1.750 -0.0331  1.0208 -1.2348
   42MOL   H25329855   7.497   0.463   1.861 -0.4997 -0.0538 -0.7514
   42MOL   C25429856   7.709   0.337   0.648  0.1859 -0.1725  0.3657
   42MOL   C25529857   7.655   0.342   0.792 -0.7628 -0.0724  0.3250
   42MOL   C25629858   7.736   0.249   0.888  0.0949  0.2567  0.3022
   42MOL   C25729859   7.674   0.275   1.032 -0.2601  0.4952  0.0086
   42MOL   C25829860   7.742   0.190   1.140 -0.3013  0.0714 -0.1379
   42MOL   C25929861   7.675   0.211   1.280  0.1053  0.6428 -0.4001
   42MOL   C26029862   7.717   0.112   1.385  0.1868  0.1385 -0.1874
   42MOL   C26129863   7.626   0.110   1.507  0.1871  0.5531 -0.2692
   42MOL   O26229864   7.622   0.234   1.572  0.2330  0.2732 -0.6036
   42MOL   C26329865   7.718   0.269   1.661  0.7280 -0.0710  0.1644
   42MOL   O26429866   0.042   0.212   1.684 -0.0246 -0.4319 -0.1466
   42MOL   C26529867   7.674   0.395   1.743  0.0172  0.3098  0.3812
   42MOL   C26629868   0.003   0.422   1.845  0.2096 -0.6494  0.8402
   42MOL   C26729869   7.640   0.520   1.644  0.3770 -0.3565 -0.6054
   42MOL   H26829870   0.035   0.364   0.636 -0.0322 -0.3891 -2.5594
   42MOL   H26929871   7.691   0.239   0.604 -1.2645 -0.3162  1.2468
   42MOL   H27029872   7.652   0.412   0.593  0.9971  1.6818  1.9982
   42MOL   H27129873   7.645   0.441   0.835  1.7505  0.0079  0.7538
   42MOL   H27229874   7.555   0.298   0.788 -0.1526 -1.4629 -0.1218
   42MOL   H27329875   0.066   0.254   0.885  0.0739  0.3955 -0.3528
   42MOL   H27429876   7.719   0.143   0.872  0.9979  0.1717 -0.1314
   42MOL   H27529877   7.570   0.245   1.022  0.0890 -0.7051 -0.0678
   42MOL   H27629878   7.677   0.382   1.050  0.1797  0.1737  2.0011
   42MOL   H27729879   7.741   0.086   1.105  1.9043  0.1731 -0.6193
   42MOL   H27829880   0.067   0.221   1.143 -0.1785 -0.1537 -1.5317
   42MOL   H27929881   7.571   0.182   1.263 -0.0716  1.2533 -0.3729
   42MOL   H28029882   7.655   0.313   1.311 -2.2612 -0.0498  0.5046
   42MOL   H28129883   7.709   0.012   1.343  0.4310  1.3497 -3.2354
   42MOL   H28229884   0.039   0.127   1.420  0.4407  0.4625 -1.0677
   42MOL   H28329885   7.525   0.090   1.472  0.7068  1.7751 -2.5701
   42MOL   H28429886   7.648   0.032   1.580 -1.5713  1.6694  1.5030
   42MOL   H28529887   0.034   0.333   1.900 -1.6487 -0.1055  2.8370
   42MOL   H28629888   0.096   0.461   1.804 -0.6565  0.9036  0.2736
   42MOL   H28729889   7.756   0.490   1.926 -3.9583  1.0427 -1.7559
   42MOL   H28829890   7.605   0.598   1.712  2.2706 -1.7941  2.1013
   42MOL   H28929891   7.557   0.481   1.585  0.2429  1.1760 -1.4536
   42MOL   C29029892   0.817   1.085   2.272  0.4741  0.6146  0.0671
   42MOL   C29129893   0.760   1.090   2.127 -0.6396 -0.0376  0.2398
   42MOL   C29229894   0.641   0.998   2.088 -0.0667 -0.0421  0.2454
   42MOL   C29329895   0.585   1.021   1.943 -0.5491 -1.1303 -0.2520
   42MOL   C29429896   0.489   0.910   1.898 -0.3785 -0.1657 -0.0844
   42MOL   C29529897   0.409   0.949   1.777 -0.0321  0.9592 -0.3279
   42MOL   C29629898   0.329   0.834   1.712 -0.2720  0.2138  0.1674
   42MOL   C29729899   0.218   0.884   1.610  0.1225  0.2755  0.3453
   42MOL   O29829900   0.140   0.780   1.550 -0.1167  0.1077 -0.6244
   42MOL   C29929901   0.040   0.711   1.629 -0.5040 -0.3635  0.0778
   42MOL   O30029902   0.019   0.739   1.746 -0.0440  0.5405  0.0543
   42MOL   C30129903   7.736   0.601   1.547  0.0871 -0.4874 -0.0178
   42MOL   C30229904   0.069   0.506   1.484 -0.0589 -0.9898  0.1475
   42MOL   C30329905   7.657   0.669   1.429 -0.4363 -0.5721 -0.1417
   42MOL   H30429906   0.895   1.160   2.277  0.3350  0.6150  3.1808
   42MOL   H30529907   0.865   0.992   2.303 -0.2249 -0.3741 -1.6888
   42MOL   H30629908   0.739   1.098   2.348 -1.7275  0.6320 -2.1132
   42MOL   H30729909   0.841   1.084   2.054 -1.1856 -0.9592 -0.2968
   42MOL   H30829910   0.715   1.188   2.110  1.1485  0.6577 -0.6815
   42MOL   H30929911   0.557   1.009   2.157  0.9708  3.5461  1.0330
   42MOL   H31029912   0.676   0.895   2.096  2.1784  0.8284  2.4360
   42MOL   H31129913   0.545   1.122   1.933  0.6519 -0.5828  0.3386
   42MOL   H31229914   0.675   1.013   1.881 -0.7308 -0.9955 -0.5343
   42MOL   H31329915   0.541   0.816   1.886 -0.2759  0.2019 -2.6827
   42MOL   H31429916   0.422   0.887   1.981  1.9480 -1.0703  1.5765
   42MOL   H31529917   0.489   0.991   1.715  1.2523 -1.1463 -0.1529
   42MOL   H31629918   0.335   1.016   1.822 -0.2010  0.2156  0.5229
   42MOL   H31729919   0.278   0.774   1.786 -0.7705  0.6082  0.1457
   42MOL   H31829920   0.405   0.775   1.660  0.1942  1.8987 -1.1253
   42MOL   H31929921   0.239   0.956   1.531 -1.5573  0.9813  0.5089
   42MOL   H32029922   0.141   0.938   1.665 -1.1520 -0.7679 -0.3503
   42MOL   H32129923   0.119   0.449   1.563 -1.3486  0.1317  1.8269
   42MOL   H32229924   0.146   0.561   1.430 -1.3725  1.4234  0.6628
   42MOL   H32329925   0.028   0.425   1.425  0.1908 -1.7957  1.0613
   42MOL   H32429926   7.739   0.717   1.376 -1.9080  1.7958 -0.3919
   42MOL   H32529927   7.636   0.592   1.355 -0.8590 -0.5866 -0.0118
   42MOL   C32629928   7.186   0.138   0.664  0.5201  0.7211 -0.4588
   42MOL   C32729929   7.233   0.258   0.755 -0.1097 -0.1165 -0.3152
   42MOL   C32829930   7.233   0.227   0.905 -0.4811  0.1558 -0.4250
   42MOL   C32929931   7.266   0.346   1.000  0.0143 -0.4054  0.3659
   42MOL   C33029932   7.220   0.315   1.143  0.3714 -0.1079 -0.0004
   42MOL   C33129933   7.230   0.438   1.233 -0.5094  0.6915 -0.4189
   42MOL   C33229934   7.231   0.402   1.389 -0.0176 -0.3484  0.5166
   42MOL   C33329935   7.269   0.510   1.480  0.0734 -0.1826 -1.2176
   42MOL   O33429936   7.382   0.586   1.437 -0.7689  0.0089 -0.0313
   42MOL   C33529937   7.413   0.691   1.508  0.1927 -0.7314  0.4091
   42MOL   O33629938   7.356   0.719   1.613  0.2277  0.6328 -0.0492
   42MOL   C33729939   7.532   0.767   1.451 -0.2982  0.1344  1.2747
   42MOL   C33829940   7.564   0.881   1.546 -0.2767 -0.3461  0.5195
   42MOL   C33929941   7.503   0.820   1.301  0.0036 -0.5332 -0.7982
   42MOL   H34029942   7.250   0.050   0.669  1.3794  1.3719  0.0842
   42MOL   H34129943   7.173   0.161   0.558 -0.5951  0.0772 -0.4772
   42MOL   H34229944   7.086   0.104   0.691  0.8452  0.9276  1.0017
   42MOL   H34329945   7.170   0.343   0.729 -1.7318 -0.5122  2.1306
   42MOL   H34429946   7.335   0.290   0.733 -0.4945  0.5073 -1.2379
   42MOL   H34529947   7.296   0.140   0.927  0.0397  0.4125 -0.8651
   42MOL   H34629948   7.134   0.185   0.922  0.1683 -1.2465 -0.0434
   42MOL   H34729949   7.217   0.436   0.963  1.2321 -0.0267 -0.3525
   42MOL   H34829950   7.372   0.370   0.999  0.1920 -1.1571  0.3354
   42MOL   H34929951   7.118   0.278   1.149 -0.0844  1.2850  1.4779
   42MOL   H35029952   7.290   0.243   1.184  2.4693  1.0734 -1.4017
   42MOL   H35129953   7.325   0.487   1.211 -0.7868  0.8260 -1.3561
   42MOL   H35229954   7.147   0.504   1.206 -1.7971 -0.8091 -0.2148
   42MOL   H35329955   7.313   0.334   1.412  0.8210  0.6332  0.4668
   42MOL   H35429956   7.139   0.357   1.425 -1.2399  1.6852  0.0613
   42MOL   H35529957   7.192   0.587   1.485  1.3678  1.0852 -0.5443
   42MOL   H35629958   7.281   0.466   1.579 -1.6008 -1.1651 -1.4442
   42MOL   H35729959   7.475   0.943   1.560 -0.3189 -0.7051  1.9199
   42MOL   H35829960   7.585   0.846   1.647  2.0412 -0.4645  0.0054
   42MOL   H35929961   7.649   0.941   1.515  1.1363 -2.8333 -0.5643
   42MOL   H36029962   7.594   0.846   1.248 -0.0451  0.1606 -0.5524
   42MOL   H36129963   7.466   0.731   1.251 -1.2406 -1.4074  1.5651
   42MOL   C36229964   7.775   1.924   1.603  0.3749 -0.0204 -0.6239
   42MOL   C36329965   0.085   1.802   1.583  0.0073 -0.1762  0.4597
   42MOL   C36429966   0.013   1.671   1.544 -0.3609 -0.2926  0.0422
   42MOL   C36529967   0.112   1.553   1.515  0.2198  0.2362 -0.3423
   42MOL   C36629968   0.032   1.419   1.493  0.1292 -0.1981  0.1655
   42MOL   C36729969   7.764   1.399   1.341  0.1174  0.6899 -0.0063
   42MOL   C36829970   7.709   1.255   1.317 -0.1343 -0.2735  0.4048
   42MOL   C36929971   7.579   1.218   1.383 -0.1623 -0.4538  0.9342
   42MOL   O37029972   7.536   1.095   1.341  0.0346 -0.1704  0.0676
   42MOL   C37129973   7.407   1.060   1.350 -0.7891  0.0940  0.0394
   42MOL   O37229974   7.315   1.125   1.406 -0.0371  0.0125  0.6231
   42MOL   C37329975   7.388   0.928   1.274  0.0745 -0.4593 -0.3073
   42MOL   C37429976   7.243   0.885   1.317  0.2721 -0.1920  0.7795
   42MOL   C37529977   7.400   0.977   1.121  0.0626 -0.5514 -0.1590
   42MOL   H37629978   7.712   1.951   1.518 -1.3227 -1.9742 -0.0287
   42MOL   H37729979   7.708   1.910   1.687  1.8824 -2.8018  0.1755
   42MOL   H37829980   0.048   2.017   1.627  2.8007 -1.7521  1.0555
   42MOL   H37929981   0.142   1.785   1.675 -0.1425 -0.7135  0.4544
   42MOL   H38029982   0.163   1.830   1.513  2.0035 -2.8236  1.5695
   42MOL   H38129983   7.730   1.686   1.455 -1.0249 -0.2359  0.5135
   42MOL   H38229984   7.725   1.647   1.626  1.3441 -0.5042  1.4134
   42MOL   H38329985   0.164   1.543   1.610 -0.5638  0.2781  0.0960
   42MOL   H38429986   0.186   1.577   1.439  1.5381  1.1103  1.1824
   42MOL   H38529987   0.093   1.330   1.510  0.0654 -0.3572 -0.4230
   42MOL   H38629988   7.730   1.416   1.565 -0.4084 -1.6516 -0.4921
   42MOL   H38729989   0.071   1.398   1.275  0.5459 -0.2598  0.5681
   42MOL   H38829990   7.693   1.478   1.317  0.3292  0.7219 -0.5322
   42MOL   H38929991   0.009   1.187   1.345 -1.0820 -2.2151 -1.4639
   42MOL   H39029992   7.697   1.241   1.210  0.2688  2.8335 -0.1079
   42MOL   H39129993   7.582   1.217   1.492 -1.3567 -1.2589  0.9716
   42MOL   H39229994   7.497   1.287   1.363 -0.2777 -1.7218 -3.4098
   42MOL   H39329995   7.215   0.895   1.422  0.8096 -0.9332  0.9943
   42MOL   H39429996   7.173   0.953   1.268  0.9303 -1.2351 -1.6910
   42MOL   H39529997   7.230   0.780   1.294 -2.5361 -0.3299  2.7106
   42MOL   H39629998   7.344   1.068   1.103  0.4080 -0.4234 -0.6144
   42MOL   H39729999   7.494   1.029   1.103 -0.1562  1.5441  4.1418
   42MOL   C39830000   0.602   0.791   1.409 -0.4836  0.3061 -0.0643
   42MOL   C39930001   0.480   0.816   1.317 -0.4138  0.8719 -0.1731
   42MOL   C40030002   0.514   0.792   1.176  0.4559  0.3972  0.2825
   42MOL   C40130003   0.391   0.834   1.089 -0.3428 -0.4180  0.1514
   42MOL   C40230004   0.296   0.704   1.064  0.2390 -0.4926 -0.8596
   42MOL   C40330005   0.177   0.717   0.955  0.3979  0.2130 -0.0661
   42MOL   C40430006   0.052   0.782   1.022  0.1028  0.4774 -0.1023
   42MOL   C40530007   7.720   0.795   0.910 -0.4276 -0.1855 -0.5125
   42MOL   O40630008   7.609   0.864   0.954 -0.0955 -0.0338  0.1461
   42MOL   C40730009   7.496   0.794   0.962  0.3682 -0.3949  0.4407
   42MOL   O40830010   7.494   0.669   0.955  0.0012 -0.0050 -0.0319
   42MOL   C40930011   7.376   0.886   0.986 -0.3429 -0.6948 -0.2535
   42MOL   C41030012   7.242   0.799   0.995 -0.4626  0.4391 -0.5272
   42MOL   C41130013   7.363   0.996   0.868 -0.0689  0.9407 -0.7419
   42MOL   H41230014   0.645   0.693   1.391 -1.2748 -0.0673  0.0798
   42MOL   H41330015   0.582   0.790   1.516 -0.7399  1.3929 -0.0888
   42MOL   H41430016   0.689   0.850   1.378  0.7501 -1.6324 -0.4117
   42MOL   H41530017   0.452   0.920   1.335 -1.8156  0.5067 -0.1447
   42MOL   H41630018   0.400   0.752   1.354 -0.2063 -1.2232 -3.2186
   42MOL   H41730019   0.596   0.860   1.150 -0.0248  0.8586 -0.0235
   42MOL   H41830020   0.551   0.691   1.156 -0.8769 -0.2023  0.8254
   42MOL   H41930021   0.415   0.868   0.988 -0.2208 -2.8812 -0.6690
   42MOL   H42030022   0.345   0.920   1.137 -1.3878  0.1356 -1.7644
   42MOL   H42130023   0.362   0.628   1.023  0.9550  0.6128 -1.8007
   42MOL   H42230024   0.255   0.661   1.155 -0.3960 -0.5114 -1.1477
   42MOL   H42330025   0.159   0.616   0.918 -2.9193  0.3111  1.0735
   42MOL   H42430026   0.200   0.780   0.869  0.5569 -1.1918 -1.0898
   42MOL   H42530027   0.008   0.729   1.107 -0.2447  0.4948 -0.2688
   42MOL   H42630028   0.086   0.878   1.058 -0.8845  0.8792 -0.2155
   42MOL   H42730029   7.772   0.856   0.836 -2.8648  1.4757 -0.9305
   42MOL   H42830030   7.708   0.700   0.858 -0.1695  0.6153 -2.0673
   42MOL   H42930031   7.237   0.732   0.909  0.6397 -2.4925  1.6074
   42MOL   H43030032   7.158   0.868   0.988 -0.8806 -0.0453 -0.3206
   42MOL   H43130033   7.230   0.738   1.084  0.7760  1.6124  0.4589
   42MOL   H43230034   7.458   1.051   0.862  0.0506  0.8577  0.2360
   42MOL   H43330035   7.297   1.074   0.905  0.2678  0.0685  1.8073
   42MOL   C43430036   6.973   1.395   1.603 -0.0738  0.1510  0.8292
   42MOL   C43530037   7.008   1.276   1.508 -0.5849 -0.8221  0.5853
   42MOL   C43630038   6.944   1.292   1.371 -0.5929 -0.0787  0.1226
   42MOL   C43730039   7.012   1.207   1.264 -0.5852 -0.3575 -0.0171
   42MOL   C43830040   6.945   1.242   1.127 -0.2146  0.2599  0.4250
   42MOL   C43930041   6.961   1.131   1.023 -0.3876 -0.2066  0.1953
   42MOL   C44030042   6.926   1.172   0.882 -0.1019 -0.7585  0.2896
   42MOL   C44130043   6.953   1.056   0.790  0.6498  0.2668  0.4469
   42MOL   O44230044   7.096   1.052   0.780  0.1887 -0.7271  0.0320
   42MOL   C44330045   7.157   0.961   0.714 -0.0166  0.3598  0.1179
   42MOL   O44430046   7.096   0.876   0.649  0.0708 -0.3342  0.5473
   42MOL   C44530047   7.314   0.970   0.720  0.6097  0.4017 -0.4506
   42MOL   C44630048   7.373   0.838   0.660  0.2333 -0.5682  0.1224
   42MOL   C44730049   7.358   1.094   0.636 -0.1238  0.6462  0.2115
   42MOL   H44830050   6.866   1.401   1.625  0.2792  0.1148  2.5789
   42MOL   H44930051   7.017   1.490   1.573  1.6082 -0.8397  0.0976
   42MOL   H45030052   7.022   1.374   1.698  1.8254  1.9948  0.2881
   42MOL   H45130053   6.984   1.182   1.558 -0.7704 -1.1974 -0.1978
   42MOL   H45230054   7.117   1.279   1.505 -0.6075  1.6978  1.3218
   42MOL   H45330055   6.962   1.396   1.343  0.8844 -0.9313 -2.2693
   42MOL   H45430056   6.838   1.270   1.376 -0.7289  0.7045  0.9700
   42MOL   H45530057   6.999   1.101   1.288  0.3709 -0.7644 -1.2922
   42MOL   H45630058   7.118   1.233   1.263 -0.9905  1.2990 -0.5254
   42MOL   H45730059   6.837   1.252   1.141 -0.5029 -2.7821  0.6122
   42MOL   H45830060   7.000   1.330   1.094  1.2656 -0.8607 -0.1105
   42MOL   H45930061   6.899   1.044   1.046 -2.1039 -0.1816 -3.9871
   42MOL   H46030062   7.065   1.099   1.030 -1.0950 -2.7463 -0.4608
   42MOL   H46130063   6.820   1.195   0.870  0.3124  0.6895 -0.7199
   42MOL   H46230064   6.969   1.267   0.850 -0.6237 -0.5187  0.2881
   42MOL   H46330065   6.919   1.064   0.687  0.7318 -2.4292  0.1697
   42MOL   H46430066   6.922   0.961   0.835 -0.9667 -0.5775 -2.3312
   42MOL   H46530067   7.350   0.826   0.554  1.8269  2.5431 -0.6391
   42MOL   H46630068   7.481   0.836   0.678  0.1723  1.0881  0.8103
   42MOL   H46730069   7.332   0.748   0.705 -1.4610  0.2069  0.1545
   42MOL   H46830070   7.324   1.181   0.692 -1.1053  0.4552 -0.0721
   42MOL   H46930071   7.465   1.104   0.655 -0.2871  0.1143  1.4494
   42MOL   C47030072   0.351   0.482   7.770  0.1921 -0.9311 -0.0643
   42MOL   C47130073   0.199   0.516   0.021  0.3687 -0.0365  0.2692
   42MOL   C47230074   0.187   0.614   0.130 -0.2542  0.1231  0.3654
   42MOL   C47330075   0.140   0.544   0.258 -0.2321 -0.0586  0.2829
   42MOL   C47430076   0.068   0.646   0.350 -0.1494  0.1599  0.0460
   42MOL   C47530077   7.689   0.643   0.340  0.0661  0.0222  0.4633
   42MOL   C47630078   7.612   0.741   0.412 -0.5903 -0.4030 -0.6367
   42MOL   C47730079   7.634   0.887   0.368 -0.1934 -0.4184 -0.7466
   42MOL   O47830080   7.546   0.980   0.439  0.0267 -0.6492 -0.6865
   42MOL   C47930081   7.418   1.005   0.400  0.1860  0.0248  0.5777
   42MOL   O48030082   7.368   0.950   0.305  0.0544 -0.3594 -0.2206
   42MOL   C48130083   7.353   1.117   0.478 -1.0356  0.5755  0.1642
   42MOL   C48230084   7.204   1.128   0.445 -0.0347 -0.1489  0.3133
   42MOL   C48330085   7.422   1.259   0.464 -0.3504 -0.0899 -0.6609
   42MOL   H48430086   0.415   0.569   0.005 -0.7080  0.0804 -1.9733
   42MOL   H48530087   0.361   0.442   7.669 -0.0074 -0.6106 -0.2101
   42MOL   H48630088   0.391   0.397   0.046  0.8310 -1.0446 -0.6875
   42MOL   H48730089   0.158   0.562   7.711  3.1303  2.6019  0.3099
   42MOL   H48830090   0.140   0.425   0.031 -1.2328  0.7802 -1.4391
   42MOL   H48930091   0.272   0.683   0.135 -0.8030  0.8212  0.1573
   42MOL   H49030092   0.107   0.684   0.106  0.6927  0.7479 -1.0763
   42MOL   H49130093   0.065   0.468   0.240 -0.0401  0.0369 -0.9249
   42MOL   H49230094   0.224   0.494   0.308  2.4696  2.3139 -1.7140
   42MOL   H49330095   0.097   0.640   0.455  1.8326  2.2451 -0.3248
   42MOL   H49430096   0.105   0.742   0.314  0.4990 -0.4356 -0.9078
   42MOL   H49530097   7.661   0.653   0.235  0.6772 -0.9649  0.2033
   42MOL   H49630098   7.650   0.544   0.365  1.1484 -0.3894  0.5311
   42MOL   H49730099   7.505   0.718   0.409 -0.8266  0.8025 -2.0627
   42MOL   H49830100   7.640   0.726   0.516 -1.0137 -0.1488 -0.4815
   42MOL   H49930101   7.634   0.891   0.259 -0.3126  0.3939 -0.7154
   42MOL   H50030102   7.736   0.908   0.402 -0.0314  0.3458 -1.6994
   42MOL   H50130103   7.191   1.153   0.340  1.9872 -0.8566 -0.1184
   42MOL   H50230104   7.150   1.202   0.504  1.1517  1.9338 -1.1720
   42MOL   H50330105   7.163   1.027   0.448  2.5774 -1.2226  1.6660
   42MOL   H50430106   7.340   1.326   0.489 -0.5775 -1.1126  1.4851
   42MOL   H50530107   7.483   1.274   0.553 -0.8000 -0.3051 -0.3113
   42MOL   C50630108   0.348   1.263   1.243 -0.3678  0.0831 -0.1286
   42MOL   C50730109   0.327   1.247   1.096 -0.4982  0.2287  0.8614
   42MOL   C50830110   0.188   1.233   1.041  0.1278  0.1370  0.1339
   42MOL   C50930111   0.194   1.203   0.891 -0.5249  0.2444  0.1896
   42MOL   C51030112   0.046   1.210   0.835 -1.4747 -0.2027  0.3508
   42MOL   C51130113   0.026   1.147   0.700 -0.0004  0.8834  0.2060
   42MOL   C51230114   0.101   1.233   0.594  0.2261  0.4483  0.1533
   42MOL   C51330115   0.051   1.199   0.456  0.6060  0.3686  0.0239
   42MOL   O51430116   7.708   1.257   0.441  0.1013  0.4364  0.1661
   42MOL   C51530117   7.642   1.243   0.332  0.0340 -0.0714  0.4729
   42MOL   O51630118   7.676   1.171   0.243  0.0403  0.2724 -0.0049
   42MOL   C51730119   7.503   1.316   0.338  0.1212 -0.1056  0.1063
   42MOL   C51830120   7.418   1.290   0.211  0.4054  0.0470 -0.3669
   42MOL   C51930121   7.519   1.471   0.363 -0.3613 -0.4099 -0.3911
   42MOL   H52030122   0.454   1.250   1.265 -0.3103 -0.6920 -0.8261
   42MOL   H52130123   0.286   1.189   1.293 -4.2834  3.3561  0.0266
   42MOL   H52230124   0.333   1.368   1.269 -3.2126  0.0690 -1.5739
   42MOL   H52330125   0.384   1.158   1.068 -1.9781 -0.0523 -1.3100
   42MOL   H52430126   0.369   1.331   1.042 -1.4916 -1.7015 -3.0593
   42MOL   H52530127   0.142   1.151   1.095 -0.2235  1.2369  1.5295
   42MOL   H52630128   0.127   1.320   1.068  1.3340  0.7752  0.8453
   42MOL   H52730129   0.259   1.272   0.835 -1.1154  0.6267 -0.0345
   42MOL   H52830130   0.243   1.108   0.873  0.1278  0.1438  2.3539
   42MOL   H52930131   7.757   1.166   0.907 -0.8904  0.3264  1.2328
   42MOL   H53030132   0.018   1.315   0.836 -0.0502  0.1706  2.2444
   42MOL   H53130133   7.700   1.132   0.679 -0.0581  2.4482 -0.7063
   42MOL   H53230134   0.071   1.048   0.710 -0.0263  0.8559  0.0481
   42MOL   H53330135   0.209   1.220   0.599  0.0088 -1.3221  0.5227
   42MOL   H53430136   0.085   1.337   0.620  0.0095  0.5338 -0.3191
   42MOL   H53530137   0.047   1.090   0.466  2.7920  0.2843  0.2558
   42MOL   H53630138   0.124   1.227   0.381 -0.3248  0.1735 -0.9619
   42MOL   H53730139   7.456   1.328   0.117 -1.9709 -0.0832 -1.4252
   42MOL   H53830140   7.317   1.327   0.231 -0.4321 -2.4914  0.3289
   42MOL   H53930141   7.405   1.183   0.192  1.2107 -0.1863  0.3593
   42MOL   H54030142   7.427   1.515   0.401 -1.1294 -0.6507 -1.9464
   42MOL   H54130143   7.580   1.479   0.453 -1.0100  0.5880 -0.0272
   42MOL   C54230144   6.433   1.638   0.283  0.0420  0.1934  0.2374
   42MOL   C54330145   6.561   1.724   0.284 -0.0060  0.0387  0.4955
   42MOL   C54430146   6.639   1.717   0.150 -0.0443 -0.0042 -0.5476
   42MOL   C54530147   6.719   1.587   0.131 -0.2580  0.0624 -0.2912
   42MOL   C54630148   6.846   1.582   0.222  0.0457  0.8066 -0.0845
   42MOL   C54730149   6.972   1.631   0.142  0.1638 -0.3112 -0.6191
   42MOL   C54830150   7.102   1.618   0.221 -0.0500 -0.3793  0.7372
   42MOL   C54930151   7.225   1.647   0.139 -0.2281 -0.5796 -0.2130
   42MOL   O55030152   7.343   1.653   0.220 -0.2949  0.2375 -1.0007
   42MOL   C55130153   7.463   1.627   0.168 -0.2033 -0.1080  0.4661
   42MOL   O55230154   7.488   1.647   0.049  0.1349 -1.1267  0.2861
   42MOL   C55330155   7.575   1.579   0.265  0.2194  0.0152  0.3194
   42MOL   C55430156   7.690   1.529   0.176 -0.2061 -1.0655 -0.0835
   42MOL   C55530157   7.612   1.708   0.347 -0.6327  0.5756 -0.3490
   42MOL   H55630158   6.442   1.541   0.233 -2.4885 -0.1848  0.4132
   42MOL   H55730159   6.360   1.686   0.218  0.3514  0.1630 -0.1277
   42MOL   H55830160   6.399   1.631   0.387  2.6975 -0.0658  1.1214
   42MOL   H55930161   6.543   1.824   0.324 -0.9289  0.4669 -0.9766
   42MOL   H56030162   6.619   1.674   0.362 -1.3610 -0.0903  1.4463
   42MOL   H56130163   6.710   1.799   0.153  1.4709 -1.3478  1.4002
   42MOL   H56230164   6.585   1.736   0.057 -0.4954 -3.0935 -0.9904
   42MOL   H56330165   6.647   1.509   0.155  0.2414  0.1452  1.6348
   42MOL   H56430166   6.749   1.572   0.028 -0.5125  2.8231 -0.7962
   42MOL   H56530167   6.873   1.484   0.260  1.1139  0.8725 -0.6452
   42MOL   H56630168   6.837   1.645   0.311  0.4623 -1.9815  2.0163
   42MOL   H56730169   6.981   1.567   0.054  1.4679 -0.9083 -0.0603
   42MOL   H56830170   6.952   1.736   0.118 -3.4736 -0.9351 -0.6726
   42MOL   H56930171   7.104   1.678   0.312  1.9015 -0.4246  0.7433
   42MOL   H57030172   7.117   1.513   0.250 -2.2164 -1.4479 -1.8623
   42MOL   H57130173   7.220   1.741   0.084 -0.2256  1.3790  3.0002
   42MOL   H57230174   7.241   1.562   0.073 -2.3846 -1.5804  0.4867
   42MOL   H57330175   7.647   1.458   0.105  1.7147 -2.3086 -0.0297
   42MOL   H57430176   7.770   1.479   0.231  1.7923 -0.2345 -2.1969
   42MOL   H57530177   7.731   1.616   0.126  0.6129 -1.4824 -0.1511
   42MOL   H57630178   7.528   1.759   0.396  0.7672  3.3273 -0.7142
   42MOL   H57730179   7.641   1.775   0.266  0.1243  1.3038  0.5037
   42MOL   C57830180   6.617   1.463   0.680  0.1494 -0.3022 -0.3596
   42MOL   C57930181   6.764   1.454   0.637  0.3903  0.0558  0.0498
   42MOL   C58030182   6.854   1.556   0.700 -0.4512  0.5896 -0.0920
   42MOL   C58130183   7.008   1.556   0.645  0.3228  0.0477  0.1594
   42MOL   C58230184   7.092   1.679   0.683 -0.0377  0.6484 -0.4688
   42MOL   C58330185   7.242   1.653   0.668  0.3200 -1.0094 -0.4901
   42MOL   C58430186   7.320   1.761   0.745 -1.2217 -0.4897  0.2208
   42MOL   C58530187   7.467   1.713   0.757 -0.1245 -0.3243 -0.6498
   42MOL   O58630188   7.543   1.744   0.643  0.4667  0.2454 -0.3706
   42MOL   C58730189   7.646   1.670   0.606  0.5336  0.7388  0.5722
   42MOL   O58830190   7.694   1.582   0.678 -0.4177 -0.2996 -0.6313
   42MOL   C58930191   7.714   1.711   0.471 -0.4283  0.6354 -0.1596
   42MOL   C59030192   7.746   1.863   0.489  0.1855  0.6208 -0.3548
   42MOL   C59130193   0.071   1.636   0.441  0.0490  0.5818 -0.4064
   42MOL   H59230194   6.588   1.558   0.635  1.4614  0.5265  0.4778
   42MOL   H59330195   6.603   1.484   0.786 -0.6176  0.8184 -0.6718
   42MOL   H59430196   6.556   1.380   0.646  0.6237 -2.5387  3.9343
   42MOL   H59530197   6.763   1.445   0.529  0.1813 -2.5340  0.2252
   42MOL   H59630198   6.798   1.356   0.672  1.1179  0.8652  1.6517
   42MOL   H59730199   6.854   1.543   0.808 -1.4785 -0.1808 -0.1748
   42MOL   H59830200   6.802   1.650   0.684 -1.4700 -0.1099 -0.9400
   42MOL   H59930201   7.011   1.536   0.538  1.9842 -0.2565  0.2533
   42MOL   H60030202   7.061   1.474   0.693  0.6701  0.1110 -0.1143
   42MOL   H60130203   7.065   1.722   0.779 -0.7546 -1.0978  0.1297
   42MOL   H60230204   7.065   1.756   0.611  0.1693  2.0714  0.9589
   42MOL   H60330205   7.266   1.634   0.564 -1.1512 -2.4784 -0.5774
   42MOL   H60430206   7.264   1.559   0.718 -1.2876 -0.8040  0.6303
   42MOL   H60530207   7.277   1.788   0.841 -0.5661 -1.6086  0.8391
   42MOL   H60630208   7.323   1.857   0.693  2.7954 -0.1533  0.8894
   42MOL   H60730209   7.518   1.755   0.844  1.4589  1.8809 -2.6151
   42MOL   H60830210   7.472   1.606   0.780  3.7948  0.4618  2.7780
   42MOL   H60930211   0.020   1.898   0.401  0.3913 -1.0894 -0.9262
   42MOL   H61030212   7.657   1.926   0.477 -1.6998 -1.9106 -0.1804
   42MOL   H61130213   7.780   1.897   0.587 -0.8066 -0.6070  0.4284
   42MOL   H61230214   0.087   1.634   0.334  2.2147 -0.4974 -0.0776
   42MOL   H61330215   0.050   1.532   0.467 -0.2780  0.7273 -0.0714
   42MOL   C61430216   0.444   1.348   7.305 -0.8890  0.1121  0.1104
   42MOL   C61530217   0.510   1.306   7.444  0.7296 -0.0949  0.1098
   42MOL   C61630218   0.425   1.378   7.551 -0.1125 -0.0585  0.1700
   42MOL   C61730219   0.476   1.525   7.576 -0.3858 -0.3848  0.1051
   42MOL   C61830220   0.399   1.590   7.688 -0.4858  0.3970  0.2724
   42MOL   C61930221   0.442   1.571   0.054  0.1091 -1.1356  0.3850
   42MOL   C62030222   0.384   1.452   0.134  0.2267  0.0516 -0.1094
   42MOL   C62130223   0.405   1.460   0.283 -0.1968 -1.0721  0.1426
   42MOL   O62230224   0.329   1.564   0.340 -0.3250 -0.9291  0.2743
   42MOL   C62330225   0.295   1.562   0.471 -0.4065 -0.3259 -0.0242
   42MOL   O62430226   0.318   1.466   0.543  0.2291 -0.0463  0.8444
   42MOL   C62530227   0.211   1.680   0.513 -0.0191  0.7785 -0.1385
   42MOL   C62630228   0.274   1.807   0.449 -0.0400 -0.0475  0.4063
   42MOL   C62730229   0.202   1.690   0.667  0.0638  0.5766  0.6587
   42MOL   H62830230   0.462   1.455   7.299  1.1929 -0.2188 -0.0256
   42MOL   H62930231   0.339   1.318   7.298 -1.3433  1.4269  1.1255
   42MOL   H63030232   0.495   1.300   7.221 -2.0942 -1.6159  0.3397
   42MOL   H63130233   0.496   1.198   7.455 -2.0493  0.1697 -0.4267
   42MOL   H63230234   0.616   1.329   7.453  0.7609 -0.5179  0.8518
   42MOL   H63330235   0.428   1.325   7.647 -1.6163 -0.8237 -0.1848
   42MOL   H63430236   0.320   1.387   7.525 -0.1283  0.3901  0.3951
   42MOL   H63530237   0.464   1.579   7.482 -1.7351  0.1699  0.5854
   42MOL   H63630238   0.583   1.526   7.599 -0.5684 -1.1543  1.0345
   42MOL   H63730239   0.415   1.696   7.666  1.4117  0.0373 -0.2380
   42MOL   H63830240   0.292   1.576   7.675 -0.6684  0.6382  1.5255
   42MOL   H63930241   0.549   1.548   0.062  0.3503 -0.1178  0.1652
   42MOL   H64030242   0.413   1.660   0.110  0.2645 -1.5680  1.1599
   42MOL   H64130243   0.431   1.362   0.094 -0.0763 -0.4144  0.5668
   42MOL   H64230244   0.278   1.439   0.112  1.0297 -0.7222 -3.8228
   42MOL   H64330245   0.376   1.364   0.328 -2.4907 -0.3103  0.3747
   42MOL   H64430246   0.512   1.472   0.301 -0.1606 -0.4395 -0.4953
   42MOL   H64530247   0.381   1.825   0.462  0.2635 -0.6945 -1.0966
   42MOL   H64630248   0.221   1.897   0.478  0.1102 -0.4337  1.9013
   42MOL   H64730249   0.268   1.806   0.340  1.7494 -1.5674  0.3043
   42MOL   H64830250   0.183   1.593   0.712  1.2939 -0.5275 -1.1236
   42MOL   H64930251   0.107   1.744   0.672 -0.4181 -0.2396  0.4886
   42MOL   C65030252   7.241   1.971   1.213  0.0149 -0.3050 -0.0754
   42MOL   C65130253   7.324   1.939   1.095  0.0912 -0.1309  0.7829
   42MOL   C65230254   7.436   2.047   1.076 -0.4082 -0.1005  0.0543
   42MOL   C65330255   7.517   2.025   0.955 -0.4444  0.3280 -0.4127
   42MOL   C65430256   7.636   2.118   0.951  0.2320 -0.1097 -0.5135
   42MOL   C65530257   7.737   2.092   0.843 -0.0663  0.6658 -0.9206
   42MOL   C65630258   0.086   2.158   0.872  0.2394 -0.5535  0.4798
   42MOL   C65730259   0.211   2.113   0.783 -0.1412 -0.5006 -1.0518
   42MOL   O65830260   0.207   1.972   0.767  0.3200  0.8258  0.0875
   42MOL   C65930261   0.327   1.901   0.758  0.0271 -0.1403 -0.2172
   42MOL   O66030262   0.437   1.956   0.745 -0.2110 -0.5570 -0.9261
   42MOL   C66130263   0.312   1.747   0.770 -0.4118  0.6058  0.2609
   42MOL   C66230264   0.444   1.673   0.744 -0.1902  0.8326 -0.9416
   42MOL   C66330265   0.250   1.718   0.919 -0.6763  0.7776  0.4359
   42MOL   H66430266   7.242   2.076   1.241 -1.5049 -0.4313  0.4700
   42MOL   H66530267   7.277   1.917   1.301 -0.0461 -1.0941 -0.5255
   42MOL   H66630268   7.139   1.935   1.210 -0.1704  0.1341  0.7321
   42MOL   H66730269   7.262   1.947   1.006 -0.6519 -0.4767  1.2730
   42MOL   H66830270   7.367   1.839   1.093  2.7488  0.9633 -0.0153
   42MOL   H66930271   7.503   2.051   1.162 -2.2570 -1.5950  1.6035
   42MOL   H67030272   7.387   2.144   1.080  1.1713  0.6860  1.3758
   42MOL   H67130273   7.473   2.008   0.856 -1.8735  0.2070  0.2365
   42MOL   H67230274   7.566   1.928   0.959 -0.8062  0.1536 -0.2400
   42MOL   H67330275   7.687   2.112   1.047 -1.6666  1.4979  0.6137
   42MOL   H67430276   7.603   2.221   0.940 -1.2663 -0.4941  0.2703
   42MOL   H67530277   7.741   1.983   0.837 -0.2318  0.5832  0.4356
   42MOL   H67630278   7.704   2.132   0.747  1.3095 -0.1542 -1.7558
   42MOL   H67730279   0.104   2.133   0.976 -0.1778  1.9418  1.1862
   42MOL   H67830280   0.080   2.267   0.864  1.5258 -0.6302 -2.3212
   42MOL   H67930281   0.310   2.142   0.816 -0.5141 -0.5622  0.1441
   42MOL   H68030282   0.198   2.163   0.687  0.4529 -3.0598 -2.5223
   42MOL   H68130283   0.427   1.565   0.741 -3.2465  1.2659 -0.9059
   42MOL   H68230284   0.511   1.688   0.829 -0.4538  1.1804 -0.7959
   42MOL   H68330285   0.493   1.697   0.650  0.0873  0.0595 -0.9994
   42MOL   H68430286   0.150   1.761   0.917 -0.5270  1.0741 -0.8853
   42MOL   H68530287   0.247   1.610   0.928 -0.4501  0.8016  0.8490
   42MOL   C68630288   1.282   1.500   1.548  0.0641 -0.0305  0.2724
   42MOL   C68730289   1.179   1.500   1.431  0.1588 -0.6880 -0.2557
   42MOL   C68830290   1.028   1.507   1.486  0.3680 -0.0117  0.6865
   42MOL   C68930291   0.931   1.578   1.387  0.1566 -0.4415  0.6188
   42MOL   C69030292   0.781   1.577   1.423 -0.0654 -0.9741 -0.3993
   42MOL   C69130293   0.687   1.610   1.303 -0.2590  0.2418  0.0265
   42MOL   C69230294   0.667   1.500   1.196 -0.4641 -0.2751  0.1850
   42MOL   C69330295   0.621   1.562   1.059  0.0587  0.4507  0.6649
   42MOL   O69430296   0.486   1.607   1.068 -0.4502 -0.2129 -0.2192
   42MOL   C69530297   0.458   1.738   1.068 -0.6536  0.4014 -0.1460
   42MOL   O69630298   0.534   1.834   1.082  0.1155 -0.3189 -0.4815
   42MOL   C69730299   0.308   1.761   1.053 -0.7099  0.1575 -0.0523
   42MOL   C69830300   0.221   1.690   1.162  0.0809 -0.1359  0.6315
   42MOL   C69930301   0.292   1.916   1.072 -0.0532 -0.1466 -0.0274
   42MOL   H70030302   1.254   1.434   1.630 -2.4264  3.1500  2.0884
   42MOL   H70130303   1.303   1.600   1.586  0.3286 -0.0812  0.2616
   42MOL   H70230304   1.382   1.467   1.519  0.5013  0.7950  0.8346
   42MOL   H70330305   1.187   1.401   1.385 -1.4618 -0.4661 -1.0660
   42MOL   H70430306   1.200   1.569   1.350 -1.8093 -1.5876 -1.5903
   42MOL   H70530307   1.009   1.547   1.586  1.3770 -1.2252  1.3806
   42MOL   H70630308   0.998   1.403   1.486  0.8853 -0.1638  1.2277
   42MOL   H70730309   0.931   1.524   1.292  0.0581 -0.4974  0.6512
   42MOL   H70830310   0.965   1.680   1.369 -0.3455 -0.4327 -0.2842
   42MOL   H70930311   0.753   1.652   1.497  0.6168  0.0866 -1.2092
   42MOL   H71030312   0.758   1.483   1.475  0.4734 -0.0655  1.5171
   42MOL   H71130313   0.594   1.651   1.342  0.1184 -0.7676  2.0249
   42MOL   H71230314   0.725   1.699   1.253  0.0542 -0.1910 -0.5188
   42MOL   H71330315   0.762   1.448   1.183  0.3492  1.4643 -1.0839
   42MOL   H71430316   0.591   1.426   1.219 -0.8384  0.0095 -0.1309
   42MOL   H71530317   0.633   1.492   0.976  2.2910  1.6347 -0.0464
   42MOL   H71630318   0.692   1.643   1.040  1.4663 -0.7435  0.6864
   42MOL   H71730319   0.118   1.708   1.133  0.6478  3.1495  0.4726
   42MOL   H71830320   0.229   1.581   1.164 -2.0438 -0.2995  1.5487
   42MOL   H71930321   0.242   1.726   1.262 -0.6346 -0.3948  0.8743
   42MOL   H72030322   0.317   1.933   1.177  1.0777  1.7971 -0.5909
   42MOL   H72130323   0.189   1.950   1.059 -0.1608 -0.9337 -1.2795
   42MOL   H72230324   0.355   1.982   1.013  0.6137 -0.3664  0.4328
   43MOL     C130325   6.810   7.189   1.393  0.0809 -0.0727  0.0972
   43MOL     C230326   6.806   7.052   1.326  0.3568 -0.1994 -0.2969
   43MOL     C330327   6.916   7.012   1.221 -0.1675 -0.3237  0.1305
   43MOL     C430328   6.886   6.898   1.130  0.0862 -0.2066 -0.0740
   43MOL     C530329   6.934   6.763   1.182  0.1055  0.7855  0.8819
   43MOL     C630330   6.835   6.707   1.290 -0.1398 -0.4490  0.2683
   43MOL     C730331   6.875   6.565   1.341  0.0512  0.2688 -0.0114
   43MOL     C830332   6.790   6.512   1.455 -0.3487 -0.3676 -0.1337
   43MOL     O930333   6.825   6.373   1.470  0.2035  0.3073  0.2165
   43MOL    C1030334   6.932   6.331   1.536  0.6664 -0.1355 -0.4604
   43MOL    O1130335   6.992   6.399   1.618  0.2328 -0.2635  0.2118
   43MOL    C1230336   6.958   6.176   1.528  0.5583  0.1752 -1.0930
   43MOL    C1330337   6.828   6.095   1.564  0.4888 -0.4398  0.1382
   43MOL    C1430338   7.005   6.147   1.380 -0.2195  0.5001 -0.6018
   43MOL    H1530339   6.809   7.266   1.316  5.4227  1.0360  0.9092
   43MOL    H1630340   6.898   7.211   1.453  0.9929 -1.1625 -0.7989
   43MOL    H1730341   6.728   7.189   1.465 -0.9234 -1.0377 -1.0218
   43MOL    H1830342   6.709   7.037   1.279 -0.6472 -1.0354  1.9971
   43MOL    H1930343   6.803   6.984   1.411  1.3186  1.0278  0.7530
   43MOL    H2030344   6.931   7.106   1.169  0.0251 -0.5744 -0.2653
   43MOL    H2130345   7.014   6.992   1.264  0.5167  0.0857 -1.2019
   43MOL    H2230346   6.782   6.898   1.097 -0.1284  0.2298  0.6054
   43MOL    H2330347   6.933   6.920   1.034  0.3690  0.2642  0.1693
   43MOL    H2430348   7.031   6.759   1.230  1.3403  1.0379 -1.5030
   43MOL    H2530349   6.942   6.687   1.104  1.4902  0.5272  1.2729
   43MOL    H2630350   6.729   6.704   1.266 -0.0892 -1.3753  0.1579
   43MOL    H2730351   6.835   6.781   1.370  0.3997  2.7154 -2.5266
   43MOL    H2830352   6.981   6.562   1.366  0.3152  2.5146 -0.7363
   43MOL    H2930353   6.875   6.497   1.256  1.5934 -1.5616  1.3936
   43MOL    H3030354   6.682   6.519   1.443 -0.2768 -2.3955 -2.3475
   43MOL    H3130355   6.820   6.565   1.546  0.4401 -0.2404 -0.4595
   43MOL    H3230356   6.744   6.120   1.500  0.2796 -2.3921 -0.3941
   43MOL    H3330357   6.841   5.986   1.566 -1.3001 -0.6472  1.8710
   43MOL    H3430358   6.784   6.126   1.658 -1.7826 -1.3490 -0.6047
   43MOL    H3530359   6.951   6.223   1.324 -0.7583  1.5943  1.3428
   43MOL    H3630360   6.968   6.049   1.349 -0.4728 -0.4580  2.5760
   43MOL    H3730361   7.031   6.140   1.600 -0.1404  0.8535 -0.0375
   43MOL    C3830362   6.779   5.401   1.011 -0.6583  0.1876  0.2084
   43MOL    C3930363   6.672   5.464   1.094  0.1915  0.0404 -0.0937
   43MOL    C4030364   6.701   5.488   1.245  0.3266  0.3731 -0.2564
   43MOL    C4130365   6.828   5.573   1.264 -0.1237 -0.8353 -0.2484
   43MOL    C4230366   6.870   5.605   1.409  0.0407 -0.0167  0.6997
   43MOL    C4330367   6.991   5.700   1.425 -0.1343  0.9574  0.1971
   43MOL    C4430368   7.040   5.757   1.561 -0.1073 -0.1630 -0.1146
   43MOL    C4530369   7.176   5.836   1.551  0.0078 -0.2983 -0.2852
   43MOL    O4630370   7.172   5.930   1.446 -0.3540  0.4366  0.4942
   43MOL    C4730371   7.222   6.055   1.459 -0.6158  0.1224 -0.4894
   43MOL    O4830372   7.302   6.081   1.544 -0.3857  0.1806 -0.3068
   43MOL    C4930373   7.163   6.160   1.364  0.6961  0.4236  0.4293
   43MOL    C5030374   7.224   6.300   1.405  0.4663  0.8098 -0.5796
   43MOL    C5130375   7.193   6.110   1.209  0.1187  0.7714 -0.1357
   43MOL    H5230376   6.834   5.321   1.059 -0.2891  0.1793 -0.2247
   43MOL    H5330377   6.860   5.467   0.980 -0.8791 -0.3896 -1.6105
   43MOL    H5430378   6.740   5.364   0.917 -0.4113 -3.8798  1.6015
   43MOL    H5530379   6.585   5.399   1.091 -0.0383  0.3916 -1.3819
   43MOL    H5630380   6.646   5.563   1.055  2.2351  1.2648  1.5670
   43MOL    H5730381   6.613   5.532   1.294 -0.8088  0.4376 -2.3130
   43MOL    H5830382   6.717   5.402   1.310  2.8401  1.2070  0.2835
   43MOL    H5930383   6.810   5.666   1.210 -1.2371 -0.3781  0.8975
   43MOL    H6030384   6.905   5.515   1.212 -1.6560 -0.0553 -3.4734
   43MOL    H6130385   6.780   5.648   1.454 -1.3240 -0.2977 -1.6524
   43MOL    H6230386   6.900   5.514   1.461  0.5788  0.2389  0.8362
   43MOL    H6330387   7.074   5.638   1.391 -0.7062  1.1412 -1.6144
   43MOL    H6430388   6.974   5.776   1.348 -3.8482 -0.4314 -0.4756
   43MOL    H6530389   7.056   5.679   1.635 -0.7948 -0.4351 -0.2497
   43MOL    H6630390   6.954   5.816   1.592  0.3086 -0.0715  0.8873
   43MOL    H6730391   7.254   5.762   1.531 -0.0357 -0.2646 -0.5756
   43MOL    H6830392   7.195   5.875   1.651 -0.7632  0.7114 -0.5225
   43MOL    H6930393   7.333   6.306   1.404  0.5209 -0.2290 -1.8399
   43MOL    H7030394   7.186   6.381   1.343  0.0338  1.7511  0.8700
   43MOL    H7130395   7.200   6.314   1.511 -0.9031  0.4045 -0.8220
   43MOL    H7230396   7.110   6.146   1.148  0.6673 -0.5355 -1.6870
   43MOL    H7330397   7.179   6.002   1.208 -1.6050  0.9713 -1.6690
   43MOL    C7430398   0.382   5.675   0.954  0.0008 -0.2080  0.2986
   43MOL    C7530399   0.235   5.649   0.931  0.0265  0.1722 -0.1698
   43MOL    C7630400   0.155   5.673   1.063  0.5171  0.3848 -0.0955
   43MOL    C7730401   0.003   5.645   1.056 -0.0224 -0.9903  0.3577
   43MOL    C7830402   7.715   5.661   1.194 -0.0202  0.3028  0.2528
   43MOL    C7930403   7.681   5.805   1.226 -1.0556  0.0128 -0.2343
   43MOL    C8030404   7.603   5.834   1.354 -0.4812 -0.1907  0.8295
   43MOL    C8130405   7.569   5.979   1.359 -0.6835  0.0951  0.0649
   43MOL    O8230406   7.460   6.016   1.284  0.1631  0.6344 -0.3333
   43MOL    C8330407   7.447   6.142   1.232 -0.6819 -0.1963 -0.6587
   43MOL    O8430408   7.525   6.237   1.257  0.3577 -0.5841  0.1249
   43MOL    C8530409   7.329   6.148   1.139 -0.4762 -0.5377 -0.0205
   43MOL    C8630410   7.358   6.041   1.030 -0.2507  0.0861 -0.4733
   43MOL    C8730411   7.320   6.296   1.082  0.4475 -0.1193 -0.7878
   43MOL    H8830412   0.416   5.615   1.039  0.0752 -2.2016 -1.1014
   43MOL    H8930413   0.418   5.778   0.952  1.0126 -0.5832 -1.6573
   43MOL    H9030414   0.430   5.627   0.869  0.7436 -0.2288  0.7269
   43MOL    H9130415   0.219   5.550   0.890  1.2050 -0.4254  0.7869
   43MOL    H9230416   0.200   5.716   0.852 -0.1421 -0.3321 -0.5198
   43MOL    H9330417   0.206   5.606   1.132 -0.5323  1.1119  1.4241
   43MOL    H9430418   0.168   5.775   1.098  0.6693  0.2235  0.3255
   43MOL    H9530419   0.006   5.539   1.029 -1.0977 -0.6384 -1.1845
   43MOL    H9630420   7.739   5.698   0.972  1.0108  2.0155  1.6724
   43MOL    H9730421   7.619   5.611   1.180  0.5497 -0.8337  0.3500
   43MOL    H9830422   7.762   5.608   1.276 -1.2961 -0.6392  0.3967
   43MOL    H9930423   7.777   5.856   1.221 -0.4139 -1.2681 -1.2826
   43MOL   H10030424   7.635   5.844   1.136 -2.8509 -0.3435  0.5134
   43MOL   H10130425   7.519   5.766   1.369 -0.0080 -1.2742 -1.2561
   43MOL   H10230426   7.666   5.811   1.440 -1.2517  0.0125  1.4550
   43MOL   H10330427   7.648   6.053   1.342 -1.8476  0.9793 -1.6209
   43MOL   H10430428   7.534   5.998   1.460 -0.8114 -0.8114  0.1943
   43MOL   H10530429   7.424   5.960   1.062 -1.9492 -1.7450 -1.5132
   43MOL   H10630430   7.397   6.075   0.934 -1.0724  2.1094 -0.1099
   43MOL   H10730431   7.271   5.988   0.992 -0.0369 -0.5510 -0.0955
   43MOL   H10830432   7.331   6.370   1.161  2.7378 -0.7391 -0.4737
   43MOL   H10930433   7.418   6.316   1.037  1.5710 -0.6959  1.3467
   43MOL   C11030434   7.766   6.573   1.791  0.0273 -0.0198  0.4814
   43MOL   C11130435   7.659   6.529   1.693  0.0838  0.7984 -0.5589
   43MOL   C11230436   7.628   6.646   1.600 -0.0845  0.1371  0.1348
   43MOL   C11330437   7.521   6.607   1.500  0.8226 -0.1828 -0.4003
   43MOL   C11430438   7.474   6.721   1.406  0.2249 -0.3970 -0.2899
   43MOL   C11530439   7.384   6.676   1.290 -0.6037  0.3961 -0.6203
   43MOL   C11630440   7.348   6.781   1.181 -0.0901  0.0957 -0.3229
   43MOL   C11730441   7.306   6.718   1.047 -0.6785 -0.1950 -0.1148
   43MOL   O11830442   7.235   6.596   1.053  0.4679  0.1902 -0.5540
   43MOL   C11930443   7.262   6.502   0.959 -0.7944  0.1199  0.2580
   43MOL   O12030444   7.337   6.535   0.863  0.0714 -0.7336  0.4902
   43MOL   C12130445   7.209   6.360   0.984 -1.1971 -0.7644 -0.8429
   43MOL   C12230446   7.074   6.373   1.053 -0.8373  0.1915  0.3024
   43MOL   C12330447   7.204   6.269   0.853 -0.2225 -0.2054 -0.3545
   43MOL   H12430448   0.013   6.488   1.855 -2.5866 -0.3087  1.2474
   43MOL   H12530449   0.078   6.613   1.747 -0.5657 -0.4801 -1.2029
   43MOL   H12630450   7.733   6.643   1.867 -0.9170  1.1060 -0.9378
   43MOL   H12730451   7.572   6.501   1.752 -0.8766  1.3120 -1.7281
   43MOL   H12830452   7.685   6.436   1.642 -1.5681  0.4563 -0.8055
   43MOL   H12930453   7.712   6.666   1.534 -0.6081 -1.9245 -1.2186
   43MOL   H13030454   7.592   6.734   1.653 -0.5591  1.0174 -1.6087
   43MOL   H13130455   7.564   6.530   1.436  1.9359 -0.8001  1.0657
   43MOL   H13230456   7.442   6.556   1.555 -0.2484 -0.2832 -2.0059
   43MOL   H13330457   7.563   6.769   1.366  0.2111  0.9215  1.2338
   43MOL   H13430458   7.419   6.802   1.453  0.0834 -1.3242  1.1880
   43MOL   H13530459   7.435   6.597   1.235  1.3584  1.5153 -0.4840
   43MOL   H13630460   7.291   6.635   1.327 -1.6625  1.1917 -2.3173
   43MOL   H13730461   7.439   6.836   1.160  0.3750 -0.6698 -0.3424
   43MOL   H13830462   7.284   6.860   1.219 -1.1445 -0.7122 -0.4013
   43MOL   H13930463   7.232   6.786   1.006 -2.0272 -0.8667  1.1544
   43MOL   H14030464   7.391   6.708   0.980 -0.2816 -0.1633  0.3792
   43MOL   H14130465   7.016   6.454   1.009 -0.9883 -0.2460 -0.3105
   43MOL   H14230466   7.010   6.289   1.027 -0.8669  0.1483  0.5181
   43MOL   H14330467   7.085   6.385   1.161 -0.4323 -0.1295  0.2986
   43MOL   H14430468   7.191   6.165   0.884  0.3524  0.2483  1.4384
   43MOL   H14530469   7.296   6.280   0.796 -0.8567 -0.8561 -1.5464
   43MOL   C14630470   6.409   5.754   1.572 -0.1767 -0.6052  0.1322
   43MOL   C14730471   6.435   5.808   1.425 -0.0863 -0.4633 -0.3036
   43MOL   C14830472   6.570   5.859   1.393  0.1224 -0.7227  0.5950
   43MOL   C14930473   6.569   5.905   1.252 -0.2280  0.1797 -0.3506
   43MOL   C15030474   6.710   5.950   1.209  0.0451  0.5976  0.5231
   43MOL   C15130475   6.722   5.971   1.057  0.0979  0.6037 -0.1412
   43MOL   C15230476   6.857   6.009   1.011  0.3699  0.2473 -0.0745
   43MOL   C15330477   6.856   6.034   0.858 -0.0657 -0.3026  0.1105
   43MOL   O15430478   6.969   6.105   0.817 -0.1146  0.1826  0.1071
   43MOL   C15530479   6.963   6.235   0.788 -0.2894 -0.1188  0.2399
   43MOL   O15630480   6.865   6.306   0.810 -0.0678 -0.2944  0.5835
   43MOL   C15730481   7.098   6.300   0.735 -0.2469  0.2989 -0.0646
   43MOL   C15830482   7.078   6.453   0.707 -0.0181  0.0901 -0.3494
   43MOL   C15930483   7.145   6.220   0.606 -0.0919  0.4995  0.1032
   43MOL   H16030484   6.406   5.823   1.656 -0.0340  1.9749 -1.9308
   43MOL   H16130485   6.484   5.681   1.602  0.1765 -0.5734 -0.6436
   43MOL   H16230486   6.320   5.691   1.572  0.2191 -1.1797 -0.9747
   43MOL   H16330487   6.423   5.720   1.362  0.6887 -1.1346  0.4842
   43MOL   H16430488   6.355   5.878   1.400  0.0249 -0.2720 -0.1263
   43MOL   H16530489   6.643   5.778   1.397 -0.4773 -1.2949 -0.1557
   43MOL   H16630490   6.602   5.935   1.464 -0.4717  1.2893 -1.2409
   43MOL   H16730491   6.529   5.819   1.200 -1.4504 -0.4997  1.6606
   43MOL   H16830492   6.505   5.988   1.222 -0.8526 -0.2358 -0.1732
   43MOL   H16930493   6.774   5.864   1.229 -0.7654 -0.8392 -2.7517
   43MOL   H17030494   6.750   6.037   1.262 -2.3902  0.8935  1.9024
   43MOL   H17130495   6.650   6.047   1.027 -2.3534 -1.4578  0.3668
   43MOL   H17230496   6.690   5.880   1.008 -1.4860  1.6001 -1.0147
   43MOL   H17330497   6.891   6.093   1.072  2.8779 -2.3473  2.2764
   43MOL   H17430498   6.927   5.927   1.029  0.6952  0.2729 -1.1803
   43MOL   H17530499   6.852   5.938   0.806 -0.8548  0.9295 -2.2040
   43MOL   H17630500   6.769   6.091   0.825  0.0331 -1.6083 -2.5300
   43MOL   H17730501   7.051   6.505   0.799 -0.8107  0.6836 -0.9082
   43MOL   H17830502   6.985   6.472   0.653 -0.8093 -3.1099 -0.2184
   43MOL   H17930503   7.169   6.503   0.674 -1.3499  1.5806 -1.8966
   43MOL   H18030504   7.187   6.128   0.647  0.8201  1.1076  0.5474
   43MOL   H18130505   7.242   6.262   0.582  0.2649 -1.4236 -1.9952
   43MOL   C18230506   7.208   7.089   0.955 -0.9915 -0.4042 -0.1809
   43MOL   C18330507   7.244   7.021   0.815 -0.1583  0.3670 -0.0271
   43MOL   C18430508   7.138   6.986   0.718  0.4894  0.0060 -0.7622
   43MOL   C18530509   7.190   6.895   0.603  0.5765  0.5481  0.5158
   43MOL   C18630510   7.097   6.892   0.481 -0.4367 -0.3173  0.2183
   43MOL   C18730511   7.128   6.785   0.376 -0.0969  0.2121 -0.2070
   43MOL   C18830512   7.095   6.645   0.422 -0.9815  0.7243 -0.1076
   43MOL   C18930513   7.096   6.534   0.319 -0.2397 -0.0813  0.3394
   43MOL   O19030514   7.118   6.407   0.384 -0.1672 -0.0615 -0.3673
   43MOL   C19130515   7.015   6.328   0.422  0.4366 -0.4132 -0.1151
   43MOL   O19230516   6.898   6.363   0.423 -1.1098  0.1914  0.3239
   43MOL   C19330517   7.057   6.192   0.474  0.8231  0.0201  0.1624
   43MOL   C19430518   6.938   6.096   0.495  0.1110 -0.5491 -0.4620
   43MOL   C19530519   7.166   6.127   0.384  0.9011  0.2902  0.4858
   43MOL   H19630520   7.130   7.031   1.003 -0.3546 -1.3875 -0.3163
   43MOL   H19730521   7.295   7.077   1.019 -1.7324  0.3294  0.9752
   43MOL   H19830522   7.185   7.195   0.958  0.8935  0.0953 -2.1395
   43MOL   H19930523   7.282   6.921   0.837  0.1808  0.8488  1.6879
   43MOL   H20030524   7.326   7.071   0.764  0.1837 -1.2301 -1.0985
   43MOL   H20130525   7.053   6.932   0.760  1.1434 -0.2184  0.3102
   43MOL   H20230526   7.108   7.083   0.680 -1.6495  0.0756  0.9881
   43MOL   H20330527   7.288   6.928   0.569  1.2391  0.4490  2.2479
   43MOL   H20430528   7.191   6.794   0.643  1.8539 -0.6827 -2.5284
   43MOL   H20530529   7.082   6.989   0.435  0.5882 -0.0277  0.4809
   43MOL   H20630530   6.997   6.873   0.521  0.3473 -0.5326  2.1083
   43MOL   H20730531   7.228   6.793   0.334 -0.4640  0.6966 -1.0003
   43MOL   H20830532   7.074   6.808   0.284 -0.4375  1.6501  0.3341
   43MOL   H20930533   7.177   6.618   0.489 -2.4423  0.1712  1.4791
   43MOL   H21030534   7.002   6.635   0.478 -0.9745 -0.1229 -0.2435
   43MOL   H21130535   7.182   6.545   0.253 -0.3282 -0.7022  0.1126
   43MOL   H21230536   7.007   6.541   0.257 -0.3907 -2.4451  0.2330
   43MOL   H21330537   6.871   6.137   0.571  0.1296 -0.6074 -0.4137
   43MOL   H21430538   6.871   6.081   0.409 -0.4833 -2.7912  0.3517
   43MOL   H21530539   6.979   6.002   0.532 -2.0055 -0.3960  2.4473
   43MOL   H21630540   7.247   6.198   0.368  1.0541  0.2018  0.8600
   43MOL   H21730541   7.222   6.055   0.444  2.3538  0.6120 -0.4564
   43MOL   C21830542   7.351   5.629   1.137 -0.0573 -0.4474  0.3329
   43MOL   C21930543   7.284   5.707   1.028 -0.2008 -0.0189  0.4054
   43MOL   C22030544   7.194   5.612   0.937 -0.3978 -0.5176 -0.2466
   43MOL   C22130545   7.152   5.681   0.807 -0.0366  0.1961 -0.2363
   43MOL   C22230546   7.135   5.597   0.677 -0.3178 -0.0391 -0.1306
   43MOL   C22330547   7.098   5.704   0.573 -0.2376  0.4972 -0.8757
   43MOL   C22430548   7.061   5.650   0.433 -0.4280 -0.2964 -0.2604
   43MOL   C22530549   6.993   5.745   0.338  0.4774 -0.0622 -0.2420
   43MOL   O22630550   7.080   5.857   0.310 -0.2952  0.2423  0.0225
   43MOL   C22730551   7.038   5.961   0.242  0.1253  0.8191 -0.2603
   43MOL   O22830552   6.927   5.970   0.189  0.2996 -0.2833  0.5105
   43MOL   C22930553   7.145   6.071   0.240 -0.2268  0.9189 -0.1666
   43MOL   C23030554   7.281   6.005   0.204  0.4229  0.7849  0.3317
   43MOL   C23130555   7.110   6.188   0.138 -0.0410  0.1998  0.7852
   43MOL   H23230556   7.412   5.548   1.098 -1.9752 -1.6730 -0.1376
   43MOL   H23330557   7.276   5.590   1.205 -1.8691  1.2554 -0.6398
   43MOL   H23430558   7.408   5.703   1.194 -0.9003  0.3456  0.1714
   43MOL   H23530559   7.364   5.752   0.969 -0.3633  0.9852  0.9245
   43MOL   H23630560   7.223   5.789   1.067 -2.1253  0.7869 -3.9514
   43MOL   H23730561   7.247   5.526   0.897 -1.4389 -1.3205  0.0768
   43MOL   H23830562   7.107   5.573   0.990  0.0172  1.1668  1.7735
   43MOL   H23930563   7.073   5.754   0.825 -0.0531 -0.2230  1.3997
   43MOL   H24030564   7.238   5.741   0.780  1.8976 -2.6677 -0.6051
   43MOL   H24130565   7.218   5.533   0.647  1.2343  2.3389 -0.9730
   43MOL   H24230566   7.049   5.530   0.680  0.7007 -1.3203  1.8295
   43MOL   H24330567   7.021   5.772   0.609  1.0547  1.3787  0.2777
   43MOL   H24430568   7.180   5.773   0.556  0.6704 -0.2917  0.1821
   43MOL   H24530569   7.001   5.561   0.450 -1.1004  0.1050 -0.5084
   43MOL   H24630570   7.153   5.610   0.390 -0.6960 -0.2830 -0.8527
   43MOL   H24730571   6.906   5.787   0.388  0.6584 -2.2237  1.9785
   43MOL   H24830572   6.969   5.687   0.249  0.4995  1.6721 -1.3985
   43MOL   H24930573   7.357   6.082   0.198 -1.0505  2.2120 -0.5820
   43MOL   H25030574   7.283   5.958   0.106  1.7355  2.1859 -0.3319
   43MOL   H25130575   7.322   5.930   0.271 -0.0658 -0.2112 -0.4606
   43MOL   H25230576   7.005   6.217   0.148 -1.2826 -2.1456 -4.0581
   43MOL   H25330577   7.169   6.274   0.169  1.1133 -0.6570  1.0042
   43MOL   C25430578   7.676   7.070   7.471  0.0774 -0.2562  0.3486
   43MOL   C25530579   7.574   6.958   7.488 -0.1587  0.5130 -0.3568
   43MOL   C25630580   7.522   6.934   7.625  0.2088 -0.4373 -0.0849
   43MOL   C25730581   7.429   6.806   7.639 -0.5152 -0.3698  0.2185
   43MOL   C25830582   7.302   6.790   7.557  0.5060 -0.1223  0.5214
   43MOL   C25930583   7.218   6.665   7.580  0.2878 -0.3291  0.4231
   43MOL   C26030584   7.147   6.653   7.714 -0.4841 -0.2176 -1.1031
   43MOL   C26130585   7.039   6.539   7.715  0.4660 -0.5056 -0.3462
   43MOL   O26230586   7.099   6.416   7.744  0.0372 -0.5144 -0.2224
   43MOL   C26330587   7.030   6.307   7.720 -0.5308  0.1469  0.2990
   43MOL   O26430588   6.921   6.296   7.667  0.1195  0.0626 -0.3226
   43MOL   C26530589   7.111   6.182   7.763  0.2820 -0.1288  0.8432
   43MOL   C26630590   7.033   6.063   7.704 -1.0454 -0.1497 -0.6331
   43MOL   C26730591   7.259   6.187   7.700  0.0754  0.0329  0.0307
   43MOL   H26830592   7.728   7.090   7.565 -0.1025  1.1092  0.1621
   43MOL   H26930593   7.754   7.051   7.397  0.1491 -0.7674  0.5534
   43MOL   H27030594   7.622   7.160   7.441 -2.1480 -0.7986  2.5919
   43MOL   H27130595   7.489   6.963   7.419 -0.6525 -0.5567  0.1736
   43MOL   H27230596   7.630   6.870   7.456 -2.1141  0.2010 -3.0654
   43MOL   H27330597   7.479   7.024   7.671  0.9208 -0.0162 -0.2317
   43MOL   H27430598   7.606   6.913   7.690  0.2210  1.8731  0.7194
   43MOL   H27530599   7.399   6.775   7.739  0.3061  0.0365  0.5951
   43MOL   H27630600   7.501   6.728   7.611  1.9825  1.5557  1.1026
   43MOL   H27730601   7.236   6.874   7.576  0.7277  0.8772 -2.7567
   43MOL   H27830602   7.324   6.795   7.450 -0.3374 -0.6606  0.3198
   43MOL   H27930603   7.269   6.571   7.556 -1.6840 -0.5688 -3.0429
   43MOL   H28030604   7.143   6.668   7.502 -0.3584 -0.6496  1.0249
   43MOL   H28130605   7.221   6.634   0.012 -0.2684  0.1298 -1.2201
   43MOL   H28230606   7.110   6.752   7.740  1.0626  0.3589 -1.0317
   43MOL   H28330607   6.956   6.567   0.001  1.1696 -0.8804  0.7287
   43MOL   H28430608   6.989   6.542   7.619 -2.8243  4.0742  1.3565
   43MOL   H28530609   7.033   6.061   7.595  0.9012 -1.1201 -0.6302
   43MOL   H28630610   7.080   5.969   7.731 -0.9648  0.3028  0.8360
   43MOL   H28730611   6.933   6.064   7.746 -0.1845 -0.6595  1.5248
   43MOL   H28830612   7.318   6.107   7.745 -2.9538 -1.9712  0.6063
   43MOL   H28930613   7.297   6.284   7.732 -1.6937  1.1208 -1.0363
   43MOL   C29030614   6.590   6.265   6.890 -0.6918  0.0138 -0.9881
   43MOL   C29130615   6.744   6.269   6.905 -0.5260  0.0213 -0.0526
   43MOL   C29230616   6.802   6.131   6.954 -0.0933 -0.5031 -0.2177
   43MOL   C29330617   6.947   6.144   7.006 -0.6986  0.0286  0.6312
   43MOL   C29430618   6.992   6.020   7.081 -0.0701  0.1662  0.2347
   43MOL   C29530619   7.132   6.032   7.127 -0.9411 -0.5299  0.1348
   43MOL   C29630620   7.182   5.905   7.203  0.2850 -0.2576 -1.3236
   43MOL   C29730621   7.308   5.918   7.280 -0.4227  0.0740 -0.2343
   43MOL   O29830622   7.309   6.034   7.361  0.0940  0.3383  0.2751
   43MOL   C29930623   7.287   6.033   7.492 -0.3453 -0.1910  0.0161
   43MOL   O30030624   7.273   5.937   7.561  0.1578 -0.1379 -0.0013
   43MOL   C30130625   7.293   6.178   7.543 -0.3759  0.2798  0.1199
   43MOL   C30230626   7.191   6.256   7.459 -0.4924  0.1935 -0.3917
   43MOL   C30330627   7.440   6.245   7.512 -0.6995  0.6222  0.0031
   43MOL   H30430628   6.556   6.170   6.847  1.5458 -1.8533  1.2197
   43MOL   H30530629   6.559   6.342   6.820  1.2553  0.2050 -1.6708
   43MOL   H30630630   6.545   6.281   6.988  0.8314 -0.5122 -0.1993
   43MOL   H30730631   6.783   6.355   6.960  1.2625 -0.8245  0.0553
   43MOL   H30830632   6.787   6.292   6.807 -0.8616 -2.1509 -0.7444
   43MOL   H30930633   6.779   6.050   6.885 -1.4674 -1.5125  1.3843
   43MOL   H31030634   6.744   6.094   7.039  0.6576 -1.4413 -0.1017
   43MOL   H31130635   7.011   6.159   6.919  1.2957 -2.9796  1.5137
   43MOL   H31230636   6.961   6.229   7.073 -2.0085  0.2930  0.6018
   43MOL   H31330637   6.929   6.003   7.168  1.9857 -0.9038  1.5427
   43MOL   H31430638   6.978   5.931   7.019  0.4090 -0.1088  0.5230
   43MOL   H31530639   7.149   6.128   7.176  1.9187 -0.0598 -1.6237
   43MOL   H31630640   7.198   6.040   7.040 -2.3631  0.4631 -0.8687
   43MOL   H31730641   7.190   5.818   7.137  1.1010 -1.1520 -0.0608
   43MOL   H31830642   7.107   5.875   7.275  0.7266 -0.1855 -0.8281
   43MOL   H31930643   7.376   5.918   7.195  1.1735 -1.8247  1.0060
   43MOL   H32030644   7.339   5.827   7.331 -0.9464 -0.2299 -0.4486
   43MOL   H32130645   7.187   6.359   7.494  2.6506  1.4149 -3.3358
   43MOL   H32230646   7.089   6.217   7.456  0.5297 -2.4479 -1.6594
   43MOL   H32330647   7.221   6.262   7.354 -0.3657  2.3387 -0.2557
   43MOL   H32430648   7.463   6.239   7.405  1.2185  0.0400  0.4424
   43MOL   H32530649   7.429   6.352   7.523 -0.2044  0.5901  0.8070
   43MOL   C32630650   0.455   6.626   0.186  0.0243 -0.6102  0.1041
   43MOL   C32730651   0.419   6.708   0.058 -0.4762 -0.1406 -0.3459
   43MOL   C32830652   0.265   6.750   0.062 -1.1430 -0.2140  0.1293
   43MOL   C32930653   0.164   6.634   0.048 -0.4012  0.0616  0.8181
   43MOL   C33030654   0.025   6.698   0.020  0.1408  0.1973 -0.8705
   43MOL   C33130655   7.696   6.593   0.008 -0.1594 -0.0479 -0.6788
   43MOL   C33230656   7.670   6.496   0.120 -0.4068  0.4812 -0.3309
   43MOL   C33330657   7.537   6.424   0.094 -0.0037 -0.2240 -0.3157
   43MOL   O33430658   7.535   6.365   7.750  0.1587  0.7174 -0.6256
   43MOL   C33530659   7.572   6.240   7.734 -0.5290  0.2352 -0.0532
   43MOL   O33630660   7.609   6.167   0.048 -0.0319  0.2322 -0.0417
   43MOL   C33730661   7.570   6.194   7.585 -0.1573 -0.4933 -0.1556
   43MOL   C33830662   7.580   6.041   7.587 -0.5315 -0.8617  0.0095
   43MOL   C33930663   7.697   6.250   7.503  0.0335  0.0374 -1.0698
   43MOL   H34030664   0.448   6.520   0.162  0.5125 -0.7247  0.4828
   43MOL   H34130665   0.378   6.637   0.263  0.0978  1.7590 -0.1234
   43MOL   H34230666   0.558   6.637   0.218 -0.2136 -0.7701  0.9214
   43MOL   H34330667   0.446   6.662   7.743 -0.6052  0.4068 -0.6491
   43MOL   H34430668   0.482   6.797   0.061 -0.3301 -0.0982 -3.1535
   43MOL   H34530669   0.245   6.822   7.763  2.0662  0.4018 -0.1891
   43MOL   H34630670   0.255   6.803   0.157 -1.3019  0.3356 -0.1954
   43MOL   H34730671   0.165   6.581   0.143 -0.7210 -0.0407  0.7664
   43MOL   H34830672   0.190   6.559   7.752  0.6760 -2.1556  3.3224
   43MOL   H34930673   7.771   6.774   0.092 -1.4526 -1.2903 -0.0157
   43MOL   H35030674   0.036   6.754   7.707  0.7681 -1.3149 -1.7184
   43MOL   H35130675   7.599   6.642   0.000  0.5011  1.6958  1.7048
   43MOL   H35230676   7.703   6.545   7.690  3.3437 -0.4155 -0.3325
   43MOL   H35330677   7.661   6.544   0.217  0.9462  0.6317 -0.2723
   43MOL   H35430678   7.749   6.422   0.130  0.1500  1.4565  2.8306
   43MOL   H35530679   7.508   6.352   0.171  0.1179 -0.3909 -0.4241
   43MOL   H35630680   7.453   6.493   0.099 -0.4081 -0.8113  1.3844
   43MOL   H35730681   7.491   6.001   7.636 -1.3381  0.8067 -0.0621
   43MOL   H35830682   7.584   6.003   7.485 -3.2692  2.4136 -1.4278
   43MOL   H35930683   7.665   6.021   7.652 -0.6939 -1.0398  0.1691
   43MOL   H36030684   7.670   6.240   7.398  0.2542 -2.5671 -0.8935
   43MOL   H36130685   7.695   6.358   7.517  0.1159  0.4319 -3.8260
   43MOL   C36230686   7.253   5.460   7.140  0.3414  0.5210  0.4086
   43MOL   C36330687   7.381   5.489   7.221  0.3795  1.1251  0.2686
   43MOL   C36430688   7.518   5.448   7.165  0.1399  0.5929 -0.4026
   43MOL   C36530689   7.561   5.538   7.048 -0.0421 -0.3814  0.7221
   43MOL   C36630690   7.577   5.690   7.074  0.1672 -0.2720  0.1065
   43MOL   C36730691   7.694   5.722   7.174 -0.0579  1.1174 -0.2069
   43MOL   C36830692   7.713   5.864   7.209  0.6654 -0.3132 -0.3987
   43MOL   C36930693   0.031   5.873   7.334  0.2572  0.1028  0.4848
   43MOL   O37030694   0.016   6.011   7.383 -0.3869 -0.4383 -0.0246
   43MOL   C37130695   0.090   6.059   7.483  0.1038  0.6986  0.1526
   43MOL   O37230696   0.181   5.995   7.539 -0.1961  0.6710  0.2149
   43MOL   C37330697   0.068   6.205   7.514 -0.2559  0.1560 -0.2581
   43MOL   C37430698   0.117   6.225   7.654  0.9188 -0.6524 -0.9451
   43MOL   C37530699   0.167   6.292   7.426 -0.2119 -0.6011  0.1636
   43MOL   H37630700   7.253   5.376   7.071  1.3677  2.2789 -1.7744
   43MOL   H37730701   7.158   5.449   7.192 -1.4712 -0.3947 -3.0035
   43MOL   H37830702   7.222   5.547   7.082  1.5211  0.3876 -0.4459
   43MOL   H37930703   7.373   5.424   7.309 -1.6352 -0.0118 -0.7209
   43MOL   H38030704   7.370   5.593   7.253  0.1133  1.3160 -0.4430
   43MOL   H38130705   7.504   5.346   7.129 -0.1777 -0.1285  1.7048
   43MOL   H38230706   7.579   5.456   7.255  1.0433 -0.2124 -0.9322
   43MOL   H38330707   7.486   5.520   6.971  1.0095  1.0494 -0.6711
   43MOL   H38430708   7.650   5.491   7.007  0.5543  1.5463 -0.2759
   43MOL   H38530709   7.580   5.729   6.973  0.1247 -1.6100 -0.4248
   43MOL   H38630710   7.484   5.730   7.114 -0.1813 -0.9064 -0.0534
   43MOL   H38730711   0.010   5.690   7.133 -0.1048  0.7483 -0.0387
   43MOL   H38830712   7.677   5.668   7.267 -0.2285  0.3974 -0.6534
   43MOL   H38930713   7.615   5.902   7.235 -0.7467 -3.4432 -0.9461
   43MOL   H39030714   7.760   5.920   7.127 -1.0144  0.6286 -0.7263
   43MOL   H39130715   7.775   5.808   7.413 -1.1799  0.2627 -0.0242
   43MOL   H39230716   0.139   5.861   7.323  0.1785 -0.1935  0.0126
   43MOL   H39330717   0.226   6.219   7.659  1.2665  3.6220 -1.4615
   43MOL   H39430718   0.081   6.316   7.703 -0.7562 -1.7440 -0.0844
   43MOL   H39530719   0.075   6.151   7.723  2.3233 -1.1964 -0.6638
   43MOL   H39630720   0.145   6.392   7.464  0.5490 -1.3021  2.5395
   43MOL   H39730721   0.272   6.275   7.449  0.0322 -2.3432 -2.0602
   43MOL   C39830722   7.039   6.416   6.710  0.1841  0.2500 -0.0094
   43MOL   C39930723   7.086   6.502   6.827 -0.1812  0.3979  1.0998
   43MOL   C40030724   7.216   6.456   6.890  0.0824 -0.0610  0.2379
   43MOL   C40130725   7.243   6.523   7.029 -0.4409 -0.1345 -0.3322
   43MOL   C40230726   7.373   6.477   7.106  0.3284 -0.2429 -0.3788
   43MOL   C40330727   7.416   6.568   7.218  0.4769  0.3993  0.2460
   43MOL   C40430728   7.545   6.529   7.291  0.1818  0.0846 -0.2661
   43MOL   C40530729   7.670   6.576   7.215 -0.3358 -0.0223  0.2001
   43MOL   O40630730   0.011   6.508   7.249  0.0544 -0.0131 -0.2755
   43MOL   C40730731   0.028   6.374   7.218  0.0373  0.4213 -0.2608
   43MOL   O40830732   7.726   6.309   7.152  0.2559 -0.6331  0.7547
   43MOL   C40930733   0.163   6.314   7.269 -1.3465  0.2357  0.3529
   43MOL   C41030734   0.278   6.425   7.241  0.3484 -0.3073  0.4584
   43MOL   C41130735   0.205   6.177   7.205  0.6099  0.8576 -0.7524
   43MOL   H41230736   7.114   6.396   6.633 -0.5055  2.1693 -1.2090
   43MOL   H41330737   6.953   6.469   6.669  1.3945  2.5317  0.3487
   43MOL   H41430738   7.011   6.317   6.744 -1.0869  0.3994 -0.5900
   43MOL   H41530739   7.012   6.508   6.906  0.4918 -2.6948  2.0298
   43MOL   H41630740   7.098   6.604   6.790  1.6257 -0.2230 -0.1094
   43MOL   H41730741   7.203   6.349   6.909 -2.6253  0.0930 -0.5101
   43MOL   H41830742   7.305   6.462   6.828  0.5752 -1.4678  0.7966
   43MOL   H41930743   7.157   6.508   7.094  0.8453 -1.1899  1.1816
   43MOL   H42030744   7.250   6.631   7.021  1.3418 -0.3667 -2.1444
   43MOL   H42130745   7.361   6.375   7.142 -0.6848  0.8026  2.3415
   43MOL   H42230746   7.459   6.475   7.038 -0.9432  0.5233 -2.0518
   43MOL   H42330747   7.347   6.573   7.303  1.8267  0.0949  1.3736
   43MOL   H42430748   7.415   6.675   7.194 -2.2706  0.2740 -0.3768
   43MOL   H42530749   7.544   6.581   7.386 -1.4322 -2.2026  1.0252
   43MOL   H42630750   7.557   6.428   7.329  0.1760  0.0407 -0.3785
   43MOL   H42730751   7.652   6.558   7.108 -0.3078  0.0979  0.1747
   43MOL   H42830752   7.681   6.684   7.221 -0.2027 -0.0000 -0.3734
   43MOL   H42930753   0.260   6.469   7.144 -0.1031 -1.8589 -0.1851
   43MOL   H43030754   0.378   6.383   7.252 -0.3894 -2.0378  0.8130
   43MOL   H43130755   0.275   6.510   7.310  0.7004 -0.0542  0.1595
   43MOL   H43230756   0.117   6.112   7.207  0.4427  1.0818  1.5937
   43MOL   H43330757   0.272   6.125   7.273 -0.1722 -2.7616 -2.6371
   43MOL   C43430758   0.446   6.609   6.086 -0.3173 -0.1363 -0.0193
   43MOL   C43530759   0.387   6.578   6.222 -0.3674 -0.2119  0.0806
   43MOL   C43630760   0.497   6.512   6.319  0.2235  0.7428  0.8646
   43MOL   C43730761   0.453   6.440   6.440 -0.0403  0.0692  0.2443
   43MOL   C43830762   0.560   6.359   6.517 -0.2102  0.1658  0.1675
   43MOL   C43930763   0.523   6.303   6.661 -0.0070 -0.0590  0.1033
   43MOL   C44030764   0.502   6.421   6.761  0.2283  0.3626 -0.3985
   43MOL   C44130765   0.518   6.375   6.908  0.7090 -0.4445  0.1016
   43MOL   O44230766   0.408   6.289   6.932 -0.6464 -0.4807 -0.5896
   43MOL   C44330767   0.396   6.221   7.046  0.0841  0.5986 -0.8453
   43MOL   O44430768   0.481   6.212   7.133  0.4702 -0.1020 -0.6235
   43MOL   C44530769   0.262   6.153   7.058  0.2476  0.0938 -0.3505
   43MOL   C44630770   0.158   6.212   6.963 -0.2822  0.0801 -0.1077
   43MOL   C44730771   0.276   5.999   7.044 -0.3120  0.1814 -0.4934
   43MOL   H44830772   0.542   6.656   6.107 -0.4994  0.3030 -0.1809
   43MOL   H44930773   0.377   6.664   6.023 -1.5282 -0.3018  1.1189
   43MOL   H45030774   0.455   6.522   6.021 -0.6192 -1.0588  1.1354
   43MOL   H45130775   0.313   6.501   6.199 -2.4199  2.3563 -2.2228
   43MOL   H45230776   0.343   6.669   6.263 -0.2808 -0.9433  1.8382
   43MOL   H45330777   0.570   6.586   6.352 -0.6969  0.1293  4.5308
   43MOL   H45430778   0.544   6.437   6.255 -1.7424  0.3454 -0.1534
   43MOL   H45530779   0.366   6.382   6.406  1.3550 -2.2431  0.5403
   43MOL   H45630780   0.418   6.525   6.499  1.4037  1.9467 -1.5260
   43MOL   H45730781   0.601   6.269   6.472  0.5956  1.3424 -1.4751
   43MOL   H45830782   0.652   6.417   6.529 -0.0453  0.2778 -1.5198
   43MOL   H45930783   0.611   6.241   6.679  0.6963  0.7301 -0.4983
   43MOL   H46030784   0.432   6.244   6.657 -0.3262  0.5048 -1.5602
   43MOL   H46130785   0.573   6.503   6.751 -1.4099  1.9559  0.7774
   43MOL   H46230786   0.403   6.463   6.745 -0.5033 -1.5198 -0.9200
   43MOL   H46330787   0.511   6.459   6.977 -1.0648  0.0540 -0.6421
   43MOL   H46430788   0.608   6.318   6.927  1.8147  0.0459 -3.2836
   43MOL   H46530789   0.189   6.198   6.860  0.7283 -2.5489  0.5078
   43MOL   H46630790   0.060   6.165   6.972  0.5133 -1.3304  1.5370
   43MOL   H46730791   0.149   6.319   6.982  1.3659  0.4254 -1.1656
   43MOL   H46830792   0.320   5.960   7.136 -1.0760  0.8876  0.1854
   43MOL   H46930793   0.178   5.957   7.063  0.1849 -0.0446  1.7034
   43MOL   C47030794   7.469   5.230   6.828  0.5913 -0.0614 -0.2271
   43MOL   C47130795   7.585   5.188   6.721  0.4452 -0.0048 -0.7725
   43MOL   C47230796   7.634   5.300   6.625  0.5017 -0.5068  0.5014
   43MOL   C47330797   7.694   5.415   6.700  0.7774  0.1735  0.2823
   43MOL   C47430798   7.746   5.514   6.607  0.1342 -0.1029  0.6260
   43MOL   C47530799   7.765   5.651   6.683 -0.1168 -0.4732 -1.0378
   43MOL   C47630800   0.055   5.759   6.599 -0.2828 -0.2050  0.5952
   43MOL   C47730801   0.057   5.898   6.662  0.6770  0.2484 -0.2852
   43MOL   O47830802   0.128   5.907   6.783 -0.8481 -0.7081  0.0946
   43MOL   C47930803   0.260   5.948   6.780  0.6688 -0.2042 -0.8913
   43MOL   O48030804   0.315   5.989   6.678 -0.1660 -0.3425 -0.0982
   43MOL   C48130805   0.338   5.926   6.915  0.0641  0.3470  0.2915
   43MOL   C48230806   0.492   5.956   6.904 -0.0650 -0.3539 -0.3132
   43MOL   C48330807   0.309   5.774   6.933 -0.2665  0.6080  0.4821
   43MOL   H48430808   7.480   5.186   6.927 -0.6778 -0.4586 -0.2564
   43MOL   H48530809   7.369   5.197   6.798  0.0459  0.8356  0.5941
   43MOL   H48630810   7.462   5.338   6.828 -1.3127 -0.1579 -1.5041
   43MOL   H48730811   7.665   5.153   6.787 -1.2942  2.4481  2.7713
   43MOL   H48830812   7.547   5.110   6.655 -0.7805  1.5249 -1.8858
   43MOL   H48930813   7.716   5.261   6.564  2.2253  1.7082  1.3430
   43MOL   H49030814   7.554   5.327   6.556  1.4063  0.3105 -0.2532
   43MOL   H49130815   7.620   5.463   6.765  0.0499 -0.3250 -0.1787
   43MOL   H49230816   7.771   5.377   6.768  2.2077  1.2498 -0.7121
   43MOL   H49330817   0.061   5.479   6.567  0.8944  2.3994  0.1602
   43MOL   H49430818   7.669   5.524   6.530  1.2971 -0.7287 -0.6385
   43MOL   H49530819   7.677   5.701   6.724  2.1234  1.4032  1.6310
   43MOL   H49630820   0.048   5.634   6.770  2.3503 -0.4082 -2.7590
   43MOL   H49730821   0.157   5.729   6.579  1.0591  2.3231  3.2800
   43MOL   H49830822   7.778   5.761   6.506  0.4856  0.6177  0.1439
   43MOL   H49930823   7.736   5.937   6.673  0.2428 -0.8911 -0.2448
   43MOL   H50030824   0.103   5.949   6.577 -0.6083 -0.1812 -1.2518
   43MOL   H50130825   0.541   5.969   7.001 -0.2762 -3.8759  0.3444
   43MOL   H50230826   0.517   6.050   6.855 -1.7610 -0.4397 -1.3929
   43MOL   H50330827   0.546   5.875   6.854  1.5851 -0.7334  1.9901
   43MOL   H50430828   0.203   5.755   6.950 -0.1624  1.0505  1.6901
   43MOL   H50530829   0.306   5.730   6.834  0.0910 -1.1616  1.2501
   43MOL   C50630830   0.676   6.632   7.514  0.0018  0.2062 -0.7011
   43MOL   C50730831   0.629   6.492   7.461  0.0729  0.3519  0.4126
   43MOL   C50830832   0.669   6.378   7.543 -0.2952  0.2572 -0.6676
   43MOL   C50930833   0.559   6.265   7.532  1.3982 -0.4725 -0.6923
   43MOL   C51030834   0.617   6.129   7.560  0.1542 -0.5444 -0.8835
   43MOL   C51130835   0.529   6.013   7.526 -0.2274  0.0105  0.6325
   43MOL   C51230836   0.566   5.946   7.385 -0.0287 -0.3172  0.4403
   43MOL   C51330837   0.464   5.835   7.347  0.5449  0.3229 -0.0377
   43MOL   O51430838   0.481   5.783   7.217 -0.2114 -0.3656  0.3093
   43MOL   C51530839   0.385   5.703   7.177 -0.3451  0.1175  0.2805
   43MOL   O51630840   0.294   5.663   7.254 -0.2711 -0.0408 -0.0537
   43MOL   C51730841   0.388   5.672   7.026 -0.1453 -0.3781 -0.4093
   43MOL   C51830842   0.304   5.544   7.007 -0.7930  1.4955  0.7523
   43MOL   C51930843   0.537   5.649   6.978  0.1600 -0.0002 -0.0735
   43MOL   H52030844   0.780   6.632   7.549 -0.2376  1.2085  0.0368
   43MOL   H52130845   0.619   6.669   7.599 -2.1515 -2.2053 -1.0690
   43MOL   H52230846   0.660   6.705   7.435 -0.5367  3.4154  2.2423
   43MOL   H52330847   0.671   6.475   7.362 -2.1708 -1.0335 -0.3495
   43MOL   H52430848   0.520   6.497   7.454  0.0262 -0.6702  0.2505
   43MOL   H52530849   0.773   6.351   7.522  0.3863  1.4770  0.9982
   43MOL   H52630850   0.667   6.403   7.649 -1.9650 -1.2175 -0.3334
   43MOL   H52730851   0.477   6.295   7.597  1.3411 -0.5388 -0.7339
   43MOL   H52830852   0.516   6.261   7.431  0.6884 -1.2856 -0.3587
   43MOL   H52930853   0.717   6.119   7.517  0.9005 -2.4113  1.2457
   43MOL   H53030854   0.630   6.127   7.668  1.1712  1.9951 -0.9132
   43MOL   H53130855   0.431   6.056   7.509  0.3089  0.9217 -0.2430
   43MOL   H53230856   0.512   5.943   7.607  1.0255  0.2515  1.1265
   43MOL   H53330857   0.667   5.911   7.364 -0.3451  0.5798 -2.9065
   43MOL   H53430858   0.561   6.025   7.310  1.4858 -1.2566 -0.6569
   43MOL   H53530859   0.361   5.867   7.360  0.7864  1.6365 -1.2475
   43MOL   H53630860   0.482   5.752   7.416  0.0658 -0.3538 -0.7259
   43MOL   H53730861   0.335   5.470   7.081 -0.1755  1.4851  0.4839
   43MOL   H53830862   0.326   5.501   6.909 -2.6601  1.8989  0.1332
   43MOL   H53930863   0.197   5.561   7.017 -0.6872  1.8127  1.3416
   43MOL   H54030864   0.532   5.653   6.870  1.0557 -1.5830 -0.1941
   43MOL   H54130865   0.581   5.746   6.996 -0.3186  0.1324  0.4219
   43MOL   C54230866   1.138   4.986   6.986 -0.4993  0.0545 -0.6473
   43MOL   C54330867   1.037   5.101   6.954  0.2462  0.5151  0.2014
   43MOL   C54430868   0.944   5.076   6.840  0.3208  0.0229  0.7461
   43MOL   C54530869   0.864   5.197   6.791 -0.2740 -1.0433 -0.0217
   43MOL   C54630870   0.780   5.162   6.662  0.1904 -0.2504 -0.2971
   43MOL   C54730871   0.691   5.274   6.608 -0.3745  0.0832  0.4641
   43MOL   C54830872   0.542   5.258   6.649 -0.3933  0.2534  0.1329
   43MOL   C54930873   0.533   5.265   6.801 -0.4353 -0.1877 -0.2430
   43MOL   O55030874   0.586   5.389   6.849 -0.1312 -0.2320 -0.0516
   43MOL   C55130875   0.607   5.407   6.977  0.0353 -0.3260  0.5897
   43MOL   O55230876   0.596   5.311   7.052 -0.0554 -0.6763 -0.1369
   43MOL   C55330877   0.648   5.548   7.019 -0.4503 -0.1519 -0.0487
   43MOL   C55430878   0.668   5.537   7.169 -0.5149  0.1027 -0.0530
   43MOL   C55530879   0.786   5.584   6.938  0.8909 -0.0373  0.2294
   43MOL   H55630880   1.081   4.897   7.012 -0.4329 -0.0294 -0.7844
   43MOL   H55730881   1.191   5.019   7.075  0.5487 -0.5088 -1.0534
   43MOL   H55830882   1.208   4.976   6.903  1.3099  1.4279  0.6654
   43MOL   H55930883   0.970   5.101   7.040 -0.7764 -1.3194 -0.5696
   43MOL   H56030884   1.097   5.190   6.933 -1.2329  1.2273 -1.0520
   43MOL   H56130885   0.880   4.988   6.851 -0.3769  0.5004  0.4938
   43MOL   H56230886   1.013   5.042   6.764 -1.4552 -0.7624 -0.5567
   43MOL   H56330887   0.805   5.236   6.874 -0.1491  0.8508 -0.8056
   43MOL   H56430888   0.940   5.273   6.770  2.5305 -4.0153 -1.0018
   43MOL   H56530889   0.731   5.066   6.676  0.0947  0.0291  1.3346
   43MOL   H56630890   0.856   5.139   6.587  0.0625 -2.5965  0.2503
   43MOL   H56730891   0.736   5.368   6.639  0.4971 -0.1375 -0.0959
   43MOL   H56830892   0.690   5.263   6.499  0.6348 -0.1446  0.4732
   43MOL   H56930893   0.486   5.334   6.596  0.0181 -0.1486 -0.9055
   43MOL   H57030894   0.507   5.162   6.611 -1.3796  0.6424  0.0398
   43MOL   H57130895   0.582   5.181   6.850 -1.3230  0.0478  1.0739
   43MOL   H57230896   0.430   5.277   6.835  0.3843  2.0930  1.5683
   43MOL   H57330897   0.700   5.633   7.208 -1.0938  0.4952 -0.5393
   43MOL   H57430898   0.740   5.460   7.196  0.8800  1.3883 -0.0479
   43MOL   H57530899   0.582   5.520   7.235  2.0750  1.0624  3.7404
   43MOL   H57630900   0.758   5.613   6.837  0.1365 -1.0981  0.1244
   43MOL   H57730901   0.851   5.498   6.927  2.5489  1.3639 -1.3687
   43MOL   C57830902   0.883   6.306   7.190 -0.2506 -0.2229 -0.5438
   43MOL   C57930903   0.950   6.227   7.305 -0.0980  0.6151 -0.3660
   43MOL   C58030904   1.085   6.180   7.266 -0.3252  0.6376  0.0933
   43MOL   C58130905   1.180   6.145   7.387 -0.1096 -0.0589 -0.0441
   43MOL   C58230906   1.136   6.016   7.453  0.1108  0.4309  0.0249
   43MOL   C58330907   1.155   5.883   7.363  0.1650  0.2753 -0.3823
   43MOL   C58430908   1.078   5.767   7.414 -0.3355  0.1045 -0.3964
   43MOL   C58530909   1.075   5.640   7.329 -0.2522  0.1780  0.4949
   43MOL   O58630910   0.995   5.683   7.215  0.0270 -0.2179  0.0055
   43MOL   C58730911   0.978   5.606   7.108  0.3809  0.5286  0.5926
   43MOL   O58830912   1.023   5.492   7.097  0.0382 -0.5673  0.4474
   43MOL   C58930913   0.904   5.676   6.990 -0.2608  0.2217  0.1419
   43MOL   C59030914   0.837   5.813   7.026 -0.1334 -0.0101 -0.5692
   43MOL   C59130915   1.014   5.682   6.873  0.2509  0.0319  0.3520
   43MOL   H59230916   0.930   6.404   7.195 -0.2448 -0.0402 -3.5218
   43MOL   H59330917   0.775   6.311   7.204 -0.1616  0.0187  0.0854
   43MOL   H59430918   0.910   6.266   7.092  0.3422  0.7976 -0.8023
   43MOL   H59530919   0.888   6.141   7.330  0.9291 -0.5946 -1.9036
   43MOL   H59630920   0.946   6.291   7.393 -0.9081  1.2619 -0.8603
   43MOL   H59730921   1.133   6.266   7.219  2.2152 -0.6116  0.3176
   43MOL   H59830922   1.069   6.110   7.185 -1.6794  0.8174  0.1840
   43MOL   H59930923   1.184   6.223   7.463 -0.7610  0.6085 -0.6684
   43MOL   H60030924   1.280   6.131   7.346  0.4151 -0.0947  1.2197
   43MOL   H60130925   1.031   6.035   7.475 -0.4166 -0.6689 -1.4018
   43MOL   H60230926   1.180   6.001   7.552 -0.9371  1.0658  0.5907
   43MOL   H60330927   1.259   5.850   7.361 -0.2752 -1.1853  0.2547
   43MOL   H60430928   1.119   5.903   7.262  1.0906 -0.1941 -0.8105
   43MOL   H60530929   0.974   5.792   7.431  0.7260  3.4991  1.6908
   43MOL   H60630930   1.113   5.733   7.511 -2.6491  0.4603  0.5748
   43MOL   H60730931   1.177   5.620   7.297 -0.4546  3.4218 -2.5526
   43MOL   H60830932   1.015   5.560   7.371  1.2651 -1.0726  0.3550
   43MOL   H60930933   0.914   5.886   7.052  0.9481 -1.2762 -0.1784
   43MOL   H61030934   0.790   5.842   6.933  0.2266 -0.7416 -0.9810
   43MOL   H61130935   0.763   5.805   7.106  0.5892 -1.8727 -0.0632
   43MOL   H61230936   0.966   5.678   6.775 -2.1894 -0.5408  1.5384
   43MOL   H61330937   1.061   5.584   6.866  1.5909  0.6348  0.7815
   43MOL   C61430938   0.905   6.542   6.061 -0.4898 -0.8798 -0.2758
   43MOL   C61530939   0.897   6.491   6.200 -0.3419 -0.4234  0.1142
   43MOL   C61630940   0.927   6.337   6.208 -0.3440 -0.9107  0.3133
   43MOL   C61730941   0.964   6.289   6.344  0.4730 -0.4130  0.0181
   43MOL   C61830942   0.967   6.137   6.347 -0.3466 -0.1977  0.1032
   43MOL   C61930943   1.007   6.085   6.487  0.5073  0.3567 -0.2107
   43MOL   C62030944   0.878   6.086   6.578 -0.1036  0.1235 -0.3016
   43MOL   C62130945   0.900   6.062   6.730  0.5532 -0.6457 -0.0221
   43MOL   O62230946   0.973   5.932   6.751 -0.6215  0.3832  0.2047
   43MOL   C62330947   1.071   5.924   6.843 -1.0809 -0.2805  0.2246
   43MOL   O62430948   1.096   6.022   6.914 -0.1638 -0.3786  0.4807
   43MOL   C62530949   1.134   5.783   6.858  0.6218 -0.2541  0.3847
   43MOL   C62630950   1.229   5.785   6.977  0.1084  0.1286 -0.5987
   43MOL   C62730951   1.210   5.752   6.722 -0.5800 -1.0012  0.1124
   43MOL   H62830952   0.908   6.651   6.067 -0.2054 -0.8555 -0.8048
   43MOL   H62930953   0.816   6.505   6.011 -1.3206  0.9464 -0.1876
   43MOL   H63030954   0.986   6.499   6.002 -0.3043 -0.6948 -0.1561
   43MOL   H63130955   0.976   6.544   6.253  0.2911  0.4696 -1.6674
   43MOL   H63230956   0.805   6.513   6.255 -0.5432  2.1352 -1.1470
   43MOL   H63330957   1.009   6.315   6.139 -0.8242 -2.5577  0.2522
   43MOL   H63430958   0.849   6.269   6.175 -2.3933  0.6421  1.8228
   43MOL   H63530959   0.888   6.331   6.409  2.3752  2.2536  0.6280
   43MOL   H63630960   1.061   6.332   6.370  0.4047 -1.3327  1.8538
   43MOL   H63730961   0.864   6.111   6.321 -0.4671 -2.6116  2.7936
   43MOL   H63830962   1.041   6.101   6.276 -1.2166  0.2141 -1.0310
   43MOL   H63930963   1.046   5.985   6.464  1.3111  0.0867  2.1448
   43MOL   H64030964   1.081   6.153   6.530 -0.8589  0.8317  1.4269
   43MOL   H64130965   0.808   6.012   6.539 -1.0305 -0.3539  2.1668
   43MOL   H64230966   0.823   6.176   6.551 -0.3879  0.0978  0.1838
   43MOL   H64330967   0.958   6.147   6.767  0.3423 -0.4151 -0.2231
   43MOL   H64430968   0.809   6.069   6.789  0.8777 -0.3836  0.4487
   43MOL   H64530969   1.282   5.690   6.988 -2.0059 -0.8237  1.6654
   43MOL   H64630970   1.174   5.805   7.068 -0.6720  3.5308 -1.7318
   43MOL   H64730971   1.298   5.869   6.983 -1.0800  1.0066  0.9781
   43MOL   H64830972   1.136   5.775   6.645 -1.2183 -0.9809  0.7243
   43MOL   H64930973   1.221   5.644   6.714  1.3591 -0.9055  1.2712
   43MOL   C65030974   1.250   5.084   7.466  0.0015 -0.2481  0.3231
   43MOL   C65130975   1.227   5.109   7.318 -0.0785 -0.2648 -0.0944
   43MOL   C65230976   1.297   5.245   7.298 -0.2669 -0.0318 -0.4136
   43MOL   C65330977   1.301   5.283   7.152 -0.6455  0.1387  0.0556
   43MOL   C65430978   1.385   5.397   7.123 -0.3537  0.1979 -0.4174
   43MOL   C65530979   1.422   5.423   6.975  1.0068 -0.3727 -0.3424
   43MOL   C65630980   1.550   5.513   6.962 -0.2745 -0.5950  0.3481
   43MOL   C65730981   1.581   5.556   6.815 -0.8391 -0.5811  0.4621
   43MOL   O65830982   1.477   5.618   6.747  0.1076 -0.5428 -0.0093
   43MOL   C65930983   1.458   5.748   6.766 -0.0949 -0.1140  0.3923
   43MOL   O66030984   1.530   5.809   6.850 -0.1482  0.0170 -0.2643
   43MOL   C66130985   1.347   5.812   6.680 -0.3391  0.1592  0.2653
   43MOL   C66230986   1.345   5.971   6.694  0.9040 -0.0889  0.2067
   43MOL   C66330987   1.370   5.759   6.528 -0.1873 -0.4095 -0.4317
   43MOL   H66430988   1.190   5.154   7.523  0.5934  0.7359 -0.2531
   43MOL   H66530989   1.354   5.065   7.492 -0.0352 -0.5543  0.2538
   43MOL   H66630990   1.204   4.990   7.495  2.5278 -1.1726  1.5199
   43MOL   H66730991   1.122   5.099   7.293 -0.8053  0.8190  2.3272
   43MOL   H66830992   1.274   5.030   7.259  0.2295  0.0323 -0.2486
   43MOL   H66930993   1.398   5.241   7.339 -0.6031  0.0010  0.4275
   43MOL   H67030994   1.250   5.320   7.362  1.7361  1.9993 -1.2663
   43MOL   H67130995   1.199   5.293   7.115 -0.4458 -2.8279 -1.5468
   43MOL   H67230996   1.333   5.194   7.097  0.7671  0.4040  0.4530
   43MOL   H67330997   1.480   5.410   7.175 -0.0764 -2.7179 -0.1152
   43MOL   H67430998   1.324   5.485   7.145  0.0996  0.7362 -1.3018
   43MOL   H67530999   1.436   5.328   6.924 -0.4347 -1.9437  2.0730
   43MOL   H67631000   1.338   5.462   6.918  0.0858 -0.2641  1.0638
   43MOL   H67731001   1.637   5.463   7.005  0.0186 -0.3781  0.0130
   43MOL   H67831002   1.530   5.597   7.028 -0.3733 -2.5495  2.8851
   43MOL   H67931003   1.606   5.471   6.752  0.5343  0.3452 -0.2743
   43MOL   H68031004   1.671   5.617   6.820 -1.4700  0.1886  3.0559
   43MOL   H68131005   1.436   6.021   6.661 -0.5701  0.9484 -2.4799
   43MOL   H68231006   1.337   5.989   6.801  1.2431 -1.6014  0.5014
   43MOL   H68331007   1.260   6.018   6.645  0.2032 -2.0670 -0.5402
   43MOL   H68431008   1.354   5.651   6.529 -1.1381 -0.2712 -0.5363
   43MOL   H68531009   1.288   5.805   6.473  2.1660  2.3186 -1.8242
   43MOL   C68631010   1.398   6.649   5.617 -0.6898  0.4946  0.1734
   43MOL   C68731011   1.271   6.619   5.691 -0.2991 -0.0378  0.7422
   43MOL   C68831012   1.246   6.480   5.733 -0.4717 -0.4979  0.1378
   43MOL   C68931013   1.300   6.447   5.874  0.5619 -0.4219  0.0440
   43MOL   C69031014   1.308   6.294   5.914  0.8382  0.3294 -0.2222
   43MOL   C69131015   1.346   6.274   6.062  0.1256 -0.4030  0.8980
   43MOL   C69231016   1.360   6.133   6.126 -0.3628 -0.5772  0.7805
   43MOL   C69331017   1.407   6.117   6.271  0.5014  0.0732  0.4583
   43MOL   O69431018   1.401   5.984   6.326  0.3512 -0.4603  0.6059
   43MOL   C69531019   1.507   5.941   6.408 -0.1074 -0.2164  0.5174
   43MOL   O69631020   1.597   6.023   6.441  0.6986  0.3847  0.4497
   43MOL   C69731021   1.494   5.791   6.444  0.1290  0.0945  0.5457
   43MOL   C69831022   1.468   5.714   6.309 -1.0688  0.5369  0.0918
   43MOL   C69931023   1.626   5.748   6.510  0.8396 -0.0368  0.2686
   43MOL   H70031024   1.483   6.620   5.678  0.3388  3.1023  0.0418
   43MOL   H70131025   1.407   6.758   5.607  0.9210  0.1734 -2.3650
   43MOL   H70231026   1.395   6.593   5.523 -1.3111 -1.1985  1.1949
   43MOL   H70331027   1.186   6.641   5.627  0.6411  2.1189  0.1938
   43MOL   H70431028   1.254   6.692   5.770 -3.3973  1.9621 -1.6675
   43MOL   H70531029   1.279   6.405   5.660  2.1191 -1.1391  1.8902
   43MOL   H70631030   1.141   6.457   5.751 -1.2621  0.9062 -2.4020
   43MOL   H70731031   1.244   6.506   5.946  1.4994  3.1338 -2.0046
   43MOL   H70831032   1.402   6.484   5.881  0.5705 -0.4596  0.1174
   43MOL   H70931033   1.385   6.247   5.852  1.9353 -0.9462  2.0231
   43MOL   H71031034   1.228   6.230   5.878  1.9949 -0.2083 -1.9048
   43MOL   H71131035   1.444   6.320   6.077  0.7787 -1.4505 -0.0376
   43MOL   H71231036   1.284   6.338   6.125 -0.9156  0.2672 -0.7736
   43MOL   H71331037   1.266   6.078   6.120 -1.2458  0.9666  0.3416
   43MOL   H71431038   1.426   6.080   6.057 -1.3658  1.1037 -1.5682
   43MOL   H71531039   1.373   6.185   6.349  0.7761 -0.7021  1.2519
   43MOL   H71631040   1.512   6.146   6.263  0.6863 -0.4539  0.9740
   43MOL   H71731041   1.552   5.739   6.245  0.4613  1.1190  2.2715
   43MOL   H71831042   1.460   5.606   6.318 -0.0605  0.2623 -2.0297
   43MOL   H71931043   1.372   5.749   6.270 -0.7947  2.8541  1.3632
   43MOL   H72031044   1.707   5.747   6.437 -0.1639 -0.3053 -0.8572
   43MOL   H72131045   1.625   5.648   6.553  0.2824 -0.5582 -0.9511
   43MOL   H72231046   1.655   5.819   6.588 -0.8258  1.3074 -0.3035
   44MOL     C131047   3.319   4.341   2.538  0.3755 -0.4456 -0.1515
   44MOL     C231048   3.336   4.287   2.398 -0.3777  0.0656  0.2565
   44MOL     C331049   3.230   4.336   2.308  0.1026  0.6066 -0.0522
   44MOL     C431050   3.226   4.290   2.159  0.0947  0.6786 -0.3038
   44MOL     C531051   3.100   4.350   2.093  0.3388  0.1964  0.3277
   44MOL     C631052   3.059   4.294   1.958 -0.4675 -1.3432 -0.1062
   44MOL     C731053   2.939   4.364   1.904 -0.2625 -0.1616  0.2179
   44MOL     C831054   2.888   4.284   1.785  0.5302  0.0027 -0.4127
   44MOL     O931055   2.968   4.295   1.669 -0.7472  0.0535 -0.0571
   44MOL    C1031056   2.931   4.222   1.563  0.5003 -0.6903  0.0724
   44MOL    O1131057   2.826   4.161   1.558 -0.0097 -0.5119  0.1313
   44MOL    C1231058   3.019   4.228   1.440  0.2037  0.1127 -0.2862
   44MOL    C1331059   3.033   4.083   1.384  0.3559 -0.5487  0.2758
   44MOL    C1431060   2.969   4.331   1.338 -0.2936 -0.1849 -0.2458
   44MOL    H1531061   3.387   4.293   2.609  0.3445 -0.1252  0.0942
   44MOL    H1631062   3.219   4.323   2.579 -0.4822  2.0508 -1.0669
   44MOL    H1731063   3.350   4.445   2.535  0.0153 -0.4046 -3.5065
   44MOL    H1831064   3.337   4.178   2.403 -0.0789  0.0766  0.4881
   44MOL    H1931065   3.433   4.304   2.350 -0.3754 -1.0811 -0.1757
   44MOL    H2031066   3.136   4.312   2.357  1.5629  0.0850  2.5804
   44MOL    H2131067   3.238   4.444   2.320 -0.0014  0.4380  1.6065
   44MOL    H2231068   3.319   4.315   2.108 -1.3879 -0.1422 -3.5836
   44MOL    H2331069   3.221   4.181   2.156 -0.9265  0.7097  0.1185
   44MOL    H2431070   3.101   4.458   2.107  0.0048  0.2435 -0.0092
   44MOL    H2531071   3.018   4.321   2.159 -0.9871 -0.7108 -1.6757
   44MOL    H2631072   3.053   4.186   1.972 -0.8221 -1.3093  0.0108
   44MOL    H2731073   3.143   4.307   1.890  0.0093  0.0637  0.7345
   44MOL    H2831074   2.956   4.470   1.881 -0.5777 -0.7580 -2.9237
   44MOL    H2931075   2.866   4.371   1.985  1.5071 -1.4732  1.9580
   44MOL    H3031076   2.784   4.306   1.761  0.2102 -1.0447 -0.0122
   44MOL    H3131077   2.885   4.181   1.821  0.9154 -0.3382 -1.3414
   44MOL    H3231078   2.945   4.066   1.322  0.9017  1.9581 -1.2824
   44MOL    H3331079   3.123   4.059   1.327  1.5486  0.6758  1.5765
   44MOL    H3431080   3.029   4.009   1.463 -0.6542  0.4068  1.1406
   44MOL    H3531081   2.862   4.312   1.333 -0.1840 -1.0957  0.7001
   44MOL    H3631082   3.007   4.315   1.238 -0.4892  1.9398 -0.6991
   44MOL    H3731083   3.121   4.251   1.473  0.4716 -2.1405  0.4926
   44MOL    C3831084   1.886   4.387   1.622 -0.2972  0.4413 -0.0297
   44MOL    C3931085   2.021   4.450   1.581  0.0333 -0.4145  0.6034
   44MOL    C4031086   2.113   4.465   1.701 -0.3863  0.6131  0.1651
   44MOL    C4131087   2.266   4.477   1.671  0.7665 -0.2855  0.5753
   44MOL    C4231088   2.310   4.613   1.616  0.6365 -1.1693  0.1272
   44MOL    C4331089   2.452   4.642   1.627  1.6337  0.5026 -0.2969
   44MOL    C4431090   2.538   4.567   1.526 -0.5739  0.4641 -0.3068
   44MOL    C4531091   2.688   4.604   1.527 -0.3593  0.0193 -0.5593
   44MOL    O4631092   2.775   4.528   1.444 -0.1904  0.3131 -0.3275
   44MOL    C4731093   2.911   4.533   1.480 -0.2894  0.0413 -0.0669
   44MOL    O4831094   2.957   4.580   1.585  0.2940  0.7838  0.0055
   44MOL    C4931095   3.008   4.474   1.368 -0.0217 -0.5991 -0.4327
   44MOL    C5031096   2.969   4.556   1.243  0.1939 -0.0953 -0.6271
   44MOL    C5131097   3.162   4.483   1.408 -0.1433  0.4795  0.0494
   44MOL    H5231098   1.894   4.278   1.628  0.4286  0.4731 -0.4090
   44MOL    H5331099   1.830   4.418   1.534 -2.1137  2.3462  1.7086
   44MOL    H5431100   1.834   4.420   1.712 -0.7163  1.3499 -0.6003
   44MOL    H5531101   2.028   4.542   1.523 -0.7574 -1.1604 -0.7159
   44MOL    H5631102   2.060   4.378   1.509  0.3025  2.1719 -1.9406
   44MOL    H5731103   2.081   4.548   1.763 -0.6370  1.4224 -1.0192
   44MOL    H5831104   2.097   4.374   1.759 -3.3753  1.4860  0.7972
   44MOL    H5931105   2.296   4.401   1.599 -0.7368  0.4791 -0.9285
   44MOL    H6031106   2.322   4.459   1.762  1.3287  1.5417  0.6134
   44MOL    H6131107   2.287   4.625   1.511 -2.1817  0.3705  0.8596
   44MOL    H6231108   2.255   4.696   1.661 -2.3642 -3.9677  1.8126
   44MOL    H6331109   2.459   4.750   1.614  0.1406  0.7949  1.1483
   44MOL    H6431110   2.481   4.622   1.730 -2.9247  2.0904  1.3969
   44MOL    H6531111   2.510   4.571   1.421 -0.5851 -2.6339 -0.4751
   44MOL    H6631112   2.522   4.461   1.545 -0.1692  0.4735  0.1006
   44MOL    H6731113   2.727   4.614   1.629  1.3160 -1.2567 -1.0470
   44MOL    H6831114   2.699   4.705   1.487  2.0935 -0.5643 -1.4522
   44MOL    H6931115   2.962   4.663   1.260  0.0777 -0.3723  1.1627
   44MOL    H7031116   3.028   4.534   1.154 -1.2954  1.3930 -2.0107
   44MOL    H7131117   2.866   4.537   1.213 -0.3683  1.7365  0.0616
   44MOL    H7231118   3.207   4.418   1.333 -2.6237  0.2072 -1.2465
   44MOL    H7331119   3.186   4.429   1.500  2.0056 -3.0027 -2.4138
   44MOL    C7431120   3.182   4.772   2.663  0.3480 -0.5216 -0.5261
   44MOL    C7531121   3.168   4.848   2.536  0.4050 -0.7518 -0.2277
   44MOL    C7631122   3.213   4.757   2.414  0.1371 -0.2623  0.1939
   44MOL    C7731123   3.249   4.830   2.283 -0.4188  0.1269 -0.0637
   44MOL    C7831124   3.245   4.736   2.157  0.1748  0.2001 -0.3095
   44MOL    C7931125   3.241   4.802   2.016 -0.2788  0.1633 -0.0694
   44MOL    C8031126   3.263   4.696   1.903  0.7021 -0.5774  0.2779
   44MOL    C8131127   3.217   4.753   1.770  0.0512 -0.5478 -0.9802
   44MOL    O8231128   3.244   4.672   1.651  0.6924  0.7852 -0.2698
   44MOL    C8331129   3.203   4.710   1.531 -0.2568 -0.0509  0.0476
   44MOL    O8431130   3.131   4.808   1.508  0.0673  0.5597 -0.0857
   44MOL    C8531131   3.254   4.611   1.415 -0.2284 -0.1404  0.3235
   44MOL    C8631132   3.390   4.564   1.452 -0.4424  0.7039  0.2917
   44MOL    C8731133   3.255   4.685   1.280 -0.1473 -0.3922 -0.1413
   44MOL    H8831134   3.282   4.730   2.677  0.6957  0.8212  1.1221
   44MOL    H8931135   3.120   4.682   2.667  0.4693 -0.6816 -2.0273
   44MOL    H9031136   3.161   4.843   2.743  0.8208 -0.0677 -0.8086
   44MOL    H9131137   3.236   4.933   2.536  1.1365 -1.3199 -1.5402
   44MOL    H9231138   3.063   4.878   2.527  0.8728  0.5254 -1.6887
   44MOL    H9331139   3.295   4.690   2.440  1.9862  1.0117 -2.1941
   44MOL    H9431140   3.135   4.688   2.380 -0.1442 -0.1692  0.6456
   44MOL    H9531141   3.343   4.884   2.285  0.2372 -0.6912 -4.4207
   44MOL    H9631142   3.175   4.907   2.262 -0.0282  0.2900 -0.8178
   44MOL    H9731143   3.335   4.675   2.162 -1.0325 -1.8827 -2.5440
   44MOL    H9831144   3.153   4.677   2.157  0.7788 -0.7629 -1.1475
   44MOL    H9931145   3.149   4.859   2.007  0.7061  1.2130 -4.2264
   44MOL   H10031146   3.312   4.884   2.008  0.8204 -0.5319  2.0361
   44MOL   H10131147   3.372   4.685   1.899  0.7264 -0.5498  0.8941
   44MOL   H10231148   3.216   4.600   1.927 -0.1377 -0.7486 -1.9621
   44MOL   H10331149   3.255   4.854   1.757  0.9972 -0.5474  1.4952
   44MOL   H10431150   3.110   4.772   1.773  0.4560  1.6038  2.0103
   44MOL   H10531151   3.392   4.499   1.540  1.6704 -1.2622 -1.1125
   44MOL   H10631152   3.462   4.645   1.458  0.3390  0.2850 -2.3448
   44MOL   H10731153   3.425   4.487   1.383  1.2686  0.8452  0.9684
   44MOL   H10831154   3.267   4.598   1.215  1.3504  0.0899 -0.5402
   44MOL   H10931155   3.155   4.725   1.269 -0.0131  0.3352  1.1519
   44MOL   C11031156   3.745   5.499   1.296  0.0883 -0.4651  0.6067
   44MOL   C11131157   3.860   5.405   1.253  0.3600  1.0789 -0.2904
   44MOL   C11231158   3.832   5.255   1.278  0.4353 -0.7252  0.3628
   44MOL   C11331159   3.939   5.159   1.230 -0.0658  0.4617 -0.9003
   44MOL   C11431160   3.891   5.013   1.211  0.4839 -0.5800  0.1303
   44MOL   C11531161   3.834   4.951   1.342  0.2514  0.0162 -0.4717
   44MOL   C11631162   3.835   4.795   1.342 -0.0515  0.1248  0.7116
   44MOL   C11731163   3.733   4.729   1.250 -0.0758  0.0318  0.0129
   44MOL   O11831164   3.607   4.780   1.274  0.1154  0.1739  0.3328
   44MOL   C11931165   3.498   4.733   1.196 -0.6952  0.3408  0.2185
   44MOL   O12031166   3.501   4.649   1.107 -0.3685 -0.2715  0.8033
   44MOL   C12131167   3.366   4.796   1.240  0.5324  0.0068  0.5454
   44MOL   C12231168   3.389   4.899   1.352  0.5690 -0.0774 -0.1071
   44MOL   C12331169   3.304   4.858   1.106 -0.3067 -0.4401 -0.0903
   44MOL   H12431170   3.779   5.601   1.310  1.0959 -1.1280  3.2525
   44MOL   H12531171   3.667   5.501   1.219  1.1984  1.9924 -0.5077
   44MOL   H12631172   3.698   5.473   1.391 -1.9661 -1.0804 -0.5456
   44MOL   H12731173   3.947   5.424   1.316  1.0899  1.2687 -1.3363
   44MOL   H12831174   3.898   5.428   1.153  1.3644  3.2870  0.5709
   44MOL   H12931175   3.745   5.234   1.215  0.2736  0.7701  0.0735
   44MOL   H13031176   3.792   5.228   1.376  1.0293 -2.5580  0.1205
   44MOL   H13131177   3.982   5.191   1.135  0.0568  2.4453 -0.1932
   44MOL   H13231178   4.017   5.162   1.306  0.9161 -2.3234 -1.7183
   44MOL   H13331179   3.970   4.955   1.162  1.5426  1.3709 -0.5400
   44MOL   H13431180   3.813   5.018   1.135  1.4095  1.1787 -0.7339
   44MOL   H13531181   3.890   4.981   1.431 -0.4277 -0.3610  0.0897
   44MOL   H13631182   3.732   4.975   1.372  0.3562 -0.0001 -0.1017
   44MOL   H13731183   3.829   4.765   1.446 -0.1915 -1.1274  0.3538
   44MOL   H13831184   3.931   4.755   1.311 -0.0842 -0.4320  1.3131
   44MOL   H13931185   3.750   4.759   1.147 -1.9414  0.2121 -0.2609
   44MOL   H14031186   3.742   4.622   1.272  0.2171 -0.5130 -2.5983
   44MOL   H14131187   3.289   4.937   1.376  0.0554 -0.7021 -1.2279
   44MOL   H14231188   3.416   4.863   1.452 -1.3798 -2.1705 -0.2806
   44MOL   H14331189   3.455   4.981   1.324  1.2800  0.3065  2.5622
   44MOL   H14431190   3.205   4.893   1.134 -0.6135 -1.7892  0.5534
   44MOL   H14531191   3.278   4.772   1.044  0.0468 -0.4997 -0.1572
   44MOL   C14631192   3.715   5.992   1.300  0.2330  0.5763 -0.1630
   44MOL   C14731193   3.588   5.975   1.213  0.2764 -0.1865  0.4622
   44MOL   C14831194   3.612   5.859   1.117  0.1434  0.3473 -0.6849
   44MOL   C14931195   3.494   5.833   1.019 -0.3210  0.1488  0.0549
   44MOL   C15031196   3.503   5.702   0.950 -0.5627  0.0310 -0.6314
   44MOL   C15131197   3.403   5.605   1.018  0.6084 -0.2748 -0.1816
   44MOL   C15231198   3.428   5.462   0.972  0.1010 -1.0420 -0.4493
   44MOL   C15331199   3.376   5.348   1.070  0.4368 -0.7192 -0.7304
   44MOL   O15431200   3.387   5.218   1.012 -0.0801  0.2263  0.4197
   44MOL   C15531201   3.334   5.119   1.085  0.4994  0.2202 -0.0597
   44MOL   O15631202   3.278   5.136   1.191 -0.0655 -0.3693 -0.0885
   44MOL   C15731203   3.358   4.977   1.017  0.5031  0.3049 -0.3804
   44MOL   C15831204   3.511   4.973   0.984 -0.2159 -0.2206 -0.0796
   44MOL   C15931205   3.299   4.962   0.872 -0.4276 -0.7115  0.2606
   44MOL   H16031206   3.723   5.915   1.377 -0.2353  1.3019  0.6156
   44MOL   H16131207   3.721   6.089   1.350  1.1756  0.1836  0.5100
   44MOL   H16231208   3.802   5.987   1.234 -1.4401 -3.1632 -2.2395
   44MOL   H16331209   3.496   5.969   1.272 -1.1588 -1.4834 -1.8256
   44MOL   H16431210   3.580   6.064   1.150  0.6646 -1.7405 -1.8077
   44MOL   H16531211   3.629   5.768   1.174 -1.4542 -0.6256 -1.7445
   44MOL   H16631212   3.695   5.873   1.048 -0.5737  0.7093 -1.4808
   44MOL   H16731213   3.403   5.847   1.078 -0.4161  0.6528 -0.2061
   44MOL   H16831214   3.481   5.918   0.952 -0.9385  1.1063  1.3472
   44MOL   H16931215   3.607   5.669   0.957 -1.0818 -2.0881 -2.4785
   44MOL   H17031216   3.475   5.714   0.846 -3.0072  0.1179  0.0148
   44MOL   H17131217   3.310   5.648   0.982  0.6419  0.9393  1.1454
   44MOL   H17231218   3.414   5.613   1.126 -0.5009  1.4224 -0.1841
   44MOL   H17331219   3.385   5.449   0.872  2.6551 -0.6164 -1.6423
   44MOL   H17431220   3.534   5.443   0.957  0.8953  1.0448  2.1429
   44MOL   H17531221   3.446   5.344   1.153 -0.2296 -0.3744 -0.1438
   44MOL   H17631222   3.274   5.380   1.093 -0.2525 -2.1075 -1.7741
   44MOL   H17731223   3.544   4.894   0.916  0.0259  0.8409 -1.2179
   44MOL   H17831224   3.566   4.966   1.077 -3.4645  1.7528  2.0985
   44MOL   H17931225   3.538   5.065   0.933 -0.3582 -1.0388 -1.6760
   44MOL   H18031226   3.354   4.886   0.817 -0.7999  0.0828 -1.2137
   44MOL   H18131227   3.331   5.050   0.817  0.6516 -1.6354 -0.6133
   44MOL   C18231228   2.851   3.911   1.016  0.0034  0.0816  0.1670
   44MOL   C18331229   3.008   3.937   1.032  0.0186 -0.3352  0.3847
   44MOL   C18431230   3.034   4.086   0.995 -0.1269  0.3178 -0.4444
   44MOL   C18531231   3.189   4.106   0.993 -0.0370 -0.1704 -0.3612
   44MOL   C18631232   3.247   4.256   1.005  0.8156 -0.2387  0.3138
   44MOL   C18731233   3.163   4.350   0.915 -0.1126 -0.5084  0.7170
   44MOL   C18831234   3.215   4.495   0.912 -0.1715 -0.2732  0.4049
   44MOL   C18931235   3.110   4.587   0.849  0.6638 -0.4163 -0.8786
   44MOL   O19031236   3.147   4.727   0.832  0.2197 -0.0754 -0.3195
   44MOL   C19131237   3.078   4.832   0.893 -0.2940  0.3584  0.8046
   44MOL   O19231238   2.984   4.819   0.964 -0.3327  0.2765  0.1916
   44MOL   C19331239   3.141   4.967   0.843  0.5575 -0.5374 -0.7814
   44MOL   C19431240   3.126   4.962   0.692  0.1866 -0.3971  0.0192
   44MOL   C19531241   3.081   5.100   0.899 -0.7031 -0.0982 -0.3064
   44MOL   H19631242   2.812   3.936   0.917 -0.2208  0.0390  0.2448
   44MOL   H19731243   2.825   3.805   1.016 -0.1184  0.0977  1.8689
   44MOL   H19831244   2.798   3.953   1.101 -0.5552 -2.2979  1.0301
   44MOL   H19931245   3.068   3.863   0.979  4.0129  0.9266  2.9278
   44MOL   H20031246   3.039   3.924   1.135  1.1631  2.1478  0.3922
   44MOL   H20131247   2.990   4.113   0.899  0.9426 -0.6501 -1.2395
   44MOL   H20231248   2.986   4.144   1.072 -0.3304 -0.6444  0.1620
   44MOL   H20331249   3.236   4.049   1.072  0.7211  1.3070  0.2789
   44MOL   H20431250   3.218   4.065   0.896  0.2121 -1.4111  0.2354
   44MOL   H20531251   3.353   4.253   0.982  0.5086 -0.9525 -1.0632
   44MOL   H20631252   3.240   4.290   1.109 -2.6344  0.9433 -0.2517
   44MOL   H20731253   3.057   4.347   0.942  0.3060 -0.3223  2.4418
   44MOL   H20831254   3.171   4.305   0.816  1.7810 -1.1005  1.1354
   44MOL   H20931255   3.237   4.532   1.012 -0.1450  3.4155 -0.9029
   44MOL   H21031256   3.307   4.495   0.853 -0.5958  0.9010 -0.2512
   44MOL   H21131257   3.020   4.591   0.910  0.0568  2.2269 -1.8923
   44MOL   H21231258   3.075   4.557   0.751 -1.6450  1.1367 -0.5667
   44MOL   H21331259   3.020   4.956   0.667  0.6433 -1.3425 -1.8050
   44MOL   H21431260   3.151   5.055   0.641  0.3384 -0.9266 -0.8779
   44MOL   H21531261   3.177   4.881   0.640 -1.2767 -1.5520  0.3645
   44MOL   H21631262   3.079   5.079   1.006 -0.5433 -1.7994 -0.6151
   44MOL   H21731263   3.163   5.171   0.892  0.1616 -1.2267 -1.9735
   44MOL   C21831264   3.584   5.048   0.133 -0.0360 -0.2452 -0.1340
   44MOL   C21931265   3.486   5.109   0.226  0.7603 -0.2992  0.2629
   44MOL   C22031266   3.504   5.060   0.372 -0.4672  0.2052  0.7430
   44MOL   C22131267   3.396   5.105   0.477 -0.1284 -0.6904  0.5567
   44MOL   C22231268   3.395   5.255   0.504  0.6139  0.0550 -0.0078
   44MOL   C22331269   3.272   5.318   0.582 -0.9582  0.6137 -0.2071
   44MOL   C22431270   3.136   5.329   0.510  0.1390  0.5901  0.3027
   44MOL   C22531271   3.016   5.396   0.577  0.1989 -0.3429  0.3943
   44MOL   O22631272   2.992   5.353   0.712 -0.4557 -0.3768  0.3519
   44MOL   C22731273   2.937   5.230   0.728 -0.5613 -0.4106 -0.0840
   44MOL   O22831274   2.898   5.167   0.627  0.3062 -1.2063 -0.1342
   44MOL   C22931275   2.938   5.175   0.872  0.6678  0.3969  0.2909
   44MOL   C23031276   2.931   5.297   0.972 -1.0217  0.6983 -0.0164
   44MOL   C23131277   2.823   5.078   0.895  1.3094  0.4514  0.2120
   44MOL   H23231278   3.574   4.939   0.136  0.5293 -0.2919  0.2017
   44MOL   H23331279   3.684   5.078   0.163 -0.6298  2.0094 -0.3720
   44MOL   H23431280   3.573   5.085   0.031  1.0588 -1.4632 -0.7155
   44MOL   H23531281   3.384   5.091   0.192  0.7307  3.0978 -1.6852
   44MOL   H23631282   3.487   5.218   0.223  1.1504 -0.3290 -0.7605
   44MOL   H23731283   3.498   4.951   0.364 -1.6215  0.3015  0.0992
   44MOL   H23831284   3.598   5.091   0.417 -0.8254  2.1928  0.1645
   44MOL   H23931285   3.309   5.071   0.421 -1.7860 -0.2453  2.7955
   44MOL   H24031286   3.398   5.051   0.572 -1.3529  0.1280  1.0575
   44MOL   H24131287   3.479   5.280   0.569 -0.4223 -0.0676  1.4022
   44MOL   H24231288   3.404   5.310   0.410 -1.0858  0.2220 -0.0945
   44MOL   H24331289   3.257   5.266   0.676 -1.2537 -0.5400 -0.8764
   44MOL   H24431290   3.296   5.422   0.600 -0.3642  0.5808 -0.7833
   44MOL   H24531291   3.098   5.229   0.490  1.0342 -0.5513  3.8191
   44MOL   H24631292   3.158   5.367   0.410  1.2451 -0.1474  0.2421
   44MOL   H24731293   2.924   5.389   0.518  0.0265 -0.5084  0.6828
   44MOL   H24831294   3.041   5.503   0.574  0.7600 -0.3768  3.0649
   44MOL   H24931295   3.016   5.366   0.976 -1.6965  1.4480  2.7456
   44MOL   H25031296   2.922   5.265   1.076  1.0771 -0.8437 -0.2760
   44MOL   H25131297   2.850   5.368   0.955 -0.8437  1.0913  0.7155
   44MOL   H25231298   2.838   5.007   0.813 -1.6796  0.0372 -0.0416
   44MOL   H25331299   2.845   5.020   0.984 -1.7232 -1.1209  0.0212
   44MOL   C25431300   1.894   4.836   1.451  0.6265  0.0481  0.2340
   44MOL   C25531301   2.054   4.816   1.454  0.3118 -0.1589 -0.7010
   44MOL   C25631302   2.111   4.917   1.354  0.3836  0.5419 -0.8473
   44MOL   C25731303   2.268   4.920   1.358  0.7940 -0.1016 -0.0484
   44MOL   C25831304   2.328   4.806   1.267  0.5489 -0.5486 -0.1822
   44MOL   C25931305   2.486   4.813   1.237 -0.0787 -0.2503  0.1692
   44MOL   C26031306   2.544   4.711   1.137 -0.1962  0.3466  0.1504
   44MOL   C26131307   2.528   4.774   0.999 -0.0846  0.3227 -0.1469
   44MOL   O26231308   2.610   4.890   0.988 -0.3816 -0.4017  0.5439
   44MOL   C26331309   2.598   4.980   0.890  0.0170  0.2892 -0.3524
   44MOL   O26431310   2.525   4.958   0.791 -0.3899 -0.0333 -0.0818
   44MOL   C26531311   2.670   5.112   0.899  0.0119 -0.1017  0.2616
   44MOL   C26631312   2.627   5.207   0.789 -0.4097 -0.2823  0.2069
   44MOL   C26731313   2.628   5.173   1.040  0.9308 -0.3294 -0.6238
   44MOL   H26831314   1.842   4.789   1.534  0.2189 -1.1395 -0.6817
   44MOL   H26931315   1.869   4.942   1.462  0.9717  0.0887  0.6627
   44MOL   H27031316   1.845   4.803   1.360 -0.1995  1.4545  0.1497
   44MOL   H27131317   2.084   4.832   1.558  2.6220  1.9805 -1.6633
   44MOL   H27231318   2.076   4.714   1.424  0.0393 -1.0550  1.9633
   44MOL   H27331319   2.086   5.019   1.380 -1.7804  0.3316 -1.9937
   44MOL   H27431320   2.071   4.903   1.253 -1.3588  2.9785 -0.5234
   44MOL   H27531321   2.295   4.912   1.464 -0.5248 -0.0600  0.2927
   44MOL   H27631322   2.313   5.015   1.331  1.3031 -0.4918 -0.5732
   44MOL   H27731323   2.320   4.711   1.320  1.6340 -0.1523  0.7143
   44MOL   H27831324   2.274   4.793   1.174 -0.3821 -0.0821  0.2893
   44MOL   H27931325   2.541   4.807   1.331  1.3002  0.4365 -0.5827
   44MOL   H28031326   2.510   4.911   1.197 -0.4162 -0.7270 -1.2329
   44MOL   H28131327   2.650   4.693   1.154 -0.1623  1.7821  1.5232
   44MOL   H28231328   2.487   4.618   1.131  0.3047  0.0756 -0.4629
   44MOL   H28331329   2.559   4.705   0.921 -1.9705 -0.6212 -0.0983
   44MOL   H28431330   2.420   4.785   0.988 -0.2805 -2.7149 -1.6689
   44MOL   H28531331   2.670   5.304   0.812 -0.4217 -0.0528 -0.7108
   44MOL   H28631332   2.653   5.177   0.687 -0.7667  1.4613 -0.4064
   44MOL   H28731333   2.520   5.225   0.784  0.0687  2.7416  0.2655
   44MOL   H28831334   2.703   5.249   1.061 -1.0540  1.5791 -0.2830
   44MOL   H28931335   2.654   5.105   1.121 -0.5789  2.0149  1.8805
   44MOL   C29031336   2.704   5.848   0.184 -0.0720 -0.5953 -0.8810
   44MOL   C29131337   2.779   5.810   0.311  0.5742 -0.5352  0.3217
   44MOL   C29231338   2.693   5.825   0.438  0.1290  0.4294 -0.4918
   44MOL   C29331339   2.751   5.733   0.549 -0.3388  0.1129  0.1835
   44MOL   C29431340   2.660   5.720   0.674  0.0673 -0.1308 -0.1360
   44MOL   C29531341   2.729   5.632   0.776 -0.2326 -0.3365 -0.0247
   44MOL   C29631342   2.685   5.650   0.927  0.4047 -0.2099  0.0177
   44MOL   C29731343   2.545   5.598   0.949 -0.3374 -0.3035 -0.0080
   44MOL   O29831344   2.563   5.456   0.980 -0.1233  0.1979  0.5416
   44MOL   C29931345   2.456   5.383   1.017 -0.2395 -0.1039 -0.1624
   44MOL   O30031346   2.342   5.429   1.005 -0.6602  0.1413 -0.6834
   44MOL   C30131347   2.484   5.241   1.070  0.1056 -0.0240 -0.1787
   44MOL   C30231348   2.375   5.138   1.028  0.0334  0.5726 -0.0027
   44MOL   C30331349   2.471   5.253   1.222 -0.7249  0.7101  0.2741
   44MOL   H30431350   2.620   5.779   0.171  0.6977 -1.9025  0.9598
   44MOL   H30531351   2.771   5.844   0.099  1.1922 -1.1617  0.1299
   44MOL   H30631352   2.659   5.948   0.181 -0.7824 -0.7297  2.6482
   44MOL   H30731353   2.871   5.867   0.328 -1.3822  2.8634  0.0291
   44MOL   H30831354   2.816   5.708   0.302 -0.8348 -1.3115  2.7223
   44MOL   H30931355   2.590   5.792   0.420  0.9419 -2.2039 -0.4540
   44MOL   H31031356   2.689   5.929   0.471 -1.8897  0.2665 -0.1600
   44MOL   H31131357   2.794   5.639   0.513  0.9819  1.3949 -1.6779
   44MOL   H31231358   2.844   5.788   0.563  0.5559 -0.7649 -2.0604
   44MOL   H31331359   2.654   5.818   0.720  1.2708  0.8201 -1.9320
   44MOL   H31431360   2.562   5.679   0.650 -0.1759 -0.5379  1.4745
   44MOL   H31531361   2.831   5.670   0.769 -0.1550 -0.5202  0.1210
   44MOL   H31631362   2.732   5.532   0.734 -3.9694  0.8137 -3.3126
   44MOL   H31731363   2.680   5.759   0.934 -1.0886  0.1347 -4.7781
   44MOL   H31831364   2.762   5.615   0.996  0.1586 -0.7555  0.0113
   44MOL   H31931365   2.481   5.604   0.861 -0.9735  0.3037  0.4895
   44MOL   H32031366   2.505   5.658   1.031  1.7606 -1.9277  2.3214
   44MOL   H32131367   2.393   5.040   1.072  0.7855  0.6694 -0.0929
   44MOL   H32231368   2.387   5.133   0.920  0.0068  3.0493 -0.1504
   44MOL   H32331369   2.271   5.159   1.054 -0.0401 -0.8428  0.9433
   44MOL   H32431370   2.364   5.265   1.234 -1.0146 -1.0843 -0.3335
   44MOL   H32531371   2.495   5.154   1.262  0.2543 -0.1198 -2.2411
   44MOL   C32631372   1.578   5.474   1.852  0.2951 -0.5187  0.1141
   44MOL   C32731373   1.731   5.518   1.823  0.4795 -0.3784  0.1646
   44MOL   C32831374   1.800   5.397   1.761  0.1393  0.4692  0.5700
   44MOL   C32931375   1.942   5.408   1.738 -1.0437  0.4020 -0.3063
   44MOL   C33031376   2.001   5.281   1.691  0.8985 -0.2219 -0.3316
   44MOL   C33131377   2.154   5.303   1.673  0.5227  0.5229 -0.0653
   44MOL   C33231378   2.216   5.167   1.645  0.5702  0.0065  0.3892
   44MOL   C33331379   2.370   5.193   1.628  0.0056 -0.2987 -0.9152
   44MOL   O33431380   2.391   5.265   1.506  0.2473 -0.6977 -0.5494
   44MOL   C33531381   2.516   5.276   1.462  0.1886  0.3800 -0.5788
   44MOL   O33631382   2.610   5.235   1.523  0.5564  0.6752 -0.7161
   44MOL   C33731383   2.540   5.353   1.328 -0.3256 -0.5172  0.0478
   44MOL   C33831384   2.692   5.363   1.309  0.3634  0.0374  0.2847
   44MOL   C33931385   2.460   5.491   1.334 -0.2805  0.1573  0.3735
   44MOL   H34031386   1.576   5.409   1.940  0.0717 -0.2506  0.3102
   44MOL   H34131387   1.537   5.425   1.764  1.1852  0.3737 -0.8168
   44MOL   H34231388   1.508   5.554   1.878 -0.9331 -1.6718  0.3725
   44MOL   H34331389   1.770   5.544   1.921  1.5915 -0.6687 -0.1926
   44MOL   H34431390   1.740   5.596   1.747  1.2748  0.2570  0.8987
   44MOL   H34531391   1.761   5.369   1.663 -2.1636 -0.1265  1.6181
   44MOL   H34631392   1.783   5.310   1.825 -1.5160 -1.3407 -2.2288
   44MOL   H34731393   1.989   5.439   1.831  1.0999  1.5939 -1.7284
   44MOL   H34831394   1.964   5.488   1.667 -0.0787  0.5677  0.1657
   44MOL   H34931395   1.988   5.201   1.764  1.8278  0.1452  0.2495
   44MOL   H35031396   1.941   5.248   1.607 -0.4972  2.1381 -0.3164
   44MOL   H35131397   2.179   5.378   1.597  0.3982 -0.7241 -1.3544
   44MOL   H35231398   2.199   5.335   1.767 -0.3561  2.2515 -0.2197
   44MOL   H35331399   2.169   5.122   1.557 -0.4252  1.1976  0.3035
   44MOL   H35431400   2.197   5.103   1.731  0.4720 -0.5074 -0.0106
   44MOL   H35531401   2.396   5.251   1.717 -2.0790 -0.2315 -0.3167
   44MOL   H35631402   2.429   5.102   1.633  0.8253  0.2634 -0.1816
   44MOL   H35731403   2.735   5.266   1.282  1.4156  0.3152  0.9242
   44MOL   H35831404   2.727   5.435   1.234  1.5362  0.3339  1.1000
   44MOL   H35931405   2.728   5.398   1.406  0.3261  2.1564 -0.4516
   44MOL   H36031406   2.468   5.532   1.233 -3.3503  1.8475  0.7487
   44MOL   H36131407   2.353   5.471   1.323 -0.0487 -0.6621 -0.4744
   44MOL   C36231408   2.717   6.589   1.587  0.8555  0.2003  0.1961
   44MOL   C36331409   2.690   6.489   1.700 -0.1200 -0.4121  0.0035
   44MOL   C36431410   2.799   6.384   1.712  0.1398  0.0200  0.1996
   44MOL   C36531411   2.804   6.277   1.597 -0.0583  0.2111  0.4615
   44MOL   C36631412   2.926   6.181   1.615  0.1245  0.3113  0.2933
   44MOL   C36731413   2.923   6.053   1.515 -0.1329  0.1398 -0.1395
   44MOL   C36831414   2.806   5.957   1.548 -0.0135 -0.4428 -0.2624
   44MOL   C36931415   2.775   5.864   1.429 -0.0820 -0.4220  0.5893
   44MOL   O37031416   2.672   5.777   1.473 -0.2483  0.3391  0.0757
   44MOL   C37131417   2.623   5.692   1.379  0.4064 -0.1468  0.7121
   44MOL   O37231418   2.667   5.683   1.262  0.1187  0.4664  0.0486
   44MOL   C37331419   2.496   5.610   1.430 -0.0945 -1.1152 -0.6423
   44MOL   C37431420   2.530   5.561   1.574 -0.5347 -0.0870  0.4276
   44MOL   C37531421   2.372   5.702   1.448 -0.4084 -0.0130 -0.0521
   44MOL   H37631422   2.631   6.650   1.559 -0.2470 -1.2665  0.3510
   44MOL   H37731423   2.791   6.667   1.608  2.7433 -1.3982 -0.4449
   44MOL   H37831424   2.727   6.539   1.491 -1.1800 -0.7771  0.4631
   44MOL   H37931425   2.602   6.433   1.672 -0.8951 -1.1779  3.7085
   44MOL   H38031426   2.653   6.536   1.791 -0.8705  1.0797 -1.0499
   44MOL   H38131427   2.779   6.348   1.813 -1.1012  1.8593  0.6372
   44MOL   H38231428   2.894   6.437   1.712 -0.3849  0.9804  1.6841
   44MOL   H38331429   2.829   6.332   1.506  1.5961 -0.4073  0.5269
   44MOL   H38431430   2.708   6.226   1.591  0.9401 -1.3711 -2.6182
   44MOL   H38531431   3.020   6.234   1.622 -1.2667  2.7747  0.8112
   44MOL   H38631432   2.913   6.147   1.718 -0.1655 -0.5526 -0.0223
   44MOL   H38731433   3.023   6.014   1.497  0.2272  1.0491 -0.1544
   44MOL   H38831434   2.896   6.094   1.418  0.1099  1.0209  0.1605
   44MOL   H38931435   2.713   6.009   1.573  1.5762  3.2535 -1.6619
   44MOL   H39031436   2.829   5.904   1.640 -0.2922 -1.9047 -1.0271
   44MOL   H39131437   2.761   5.914   1.334 -2.3176 -2.4079 -0.1668
   44MOL   H39231438   2.863   5.802   1.411 -0.1447  0.5239 -3.3089
   44MOL   H39331439   2.466   5.481   1.613 -0.4092 -0.1513  0.5013
   44MOL   H39431440   2.626   5.511   1.581 -0.5088  0.2363  2.9966
   44MOL   H39531441   2.544   5.645   1.642 -1.5606  0.2699  0.2114
   44MOL   H39631442   2.302   5.640   1.503  1.1379 -0.4490  1.4896
   44MOL   H39731443   2.412   5.776   1.518  1.1051  2.0610 -2.9795
   44MOL   C39831444   2.261   6.848   1.226  0.1667  0.7311 -0.7163
   44MOL   C39931445   2.253   6.700   1.261  0.1331  0.5888  1.1355
   44MOL   C40031446   2.360   6.669   1.369 -0.2369  0.1178 -0.0512
   44MOL   C40131447   2.359   6.527   1.429 -0.3538  0.3277 -0.2731
   44MOL   C40231448   2.404   6.421   1.327  0.3301 -0.4193 -0.0370
   44MOL   C40331449   2.441   6.291   1.390 -0.6777 -0.3327 -0.8437
   44MOL   C40431450   2.480   6.213   1.271 -0.5775  0.0778 -0.1677
   44MOL   C40531451   2.540   6.079   1.317 -0.4972 -0.2354 -0.6597
   44MOL   O40631452   2.438   5.983   1.360  0.1191  0.2977  0.1149
   44MOL   C40731453   2.387   5.888   1.276  0.4459  0.5157  0.0135
   44MOL   O40831454   2.421   5.879   1.160 -0.2566  0.0184  0.0717
   44MOL   C40931455   2.295   5.783   1.341  0.1577 -0.4596 -0.3269
   44MOL   C41031456   2.235   5.695   1.222 -0.5824  0.1402 -0.2102
   44MOL   C41131457   2.180   5.853   1.426 -0.0937 -0.1880  0.8250
   44MOL   H41231458   2.182   6.883   1.159 -0.4827  1.5585  0.4696
   44MOL   H41331459   2.367   6.865   1.203  0.3303  1.3035  0.4582
   44MOL   H41431460   2.233   6.899   1.317  1.4065  0.5275 -0.2065
   44MOL   H41531461   2.263   6.636   1.174 -0.5399  0.2662  1.2847
   44MOL   H41631462   2.154   6.666   1.293  0.4232 -0.3999  1.0176
   44MOL   H41731463   2.459   6.698   1.335  1.1002 -2.9768  1.0848
   44MOL   H41831464   2.347   6.740   1.451 -0.1447 -0.2677  0.2940
   44MOL   H41931465   2.266   6.505   1.481  0.0407 -0.9095 -0.0743
   44MOL   H42031466   2.419   6.509   1.518  0.7878  0.7270 -0.9600
   44MOL   H42131467   2.321   6.412   1.257  0.8311  0.5505 -0.7663
   44MOL   H42231468   2.482   6.467   1.266 -0.6631  0.8461 -0.3754
   44MOL   H42331469   2.368   6.236   1.450 -0.8765  1.0716  0.2385
   44MOL   H42431470   2.520   6.312   1.463  0.0645  2.2712 -2.3476
   44MOL   H42531471   2.406   6.193   1.194 -2.0413 -0.3210  1.3335
   44MOL   H42631472   2.563   6.266   1.223  0.8611 -1.2409  0.8105
   44MOL   H42731473   2.597   6.035   1.236 -0.6134  1.7251 -1.8333
   44MOL   H42831474   2.615   6.091   1.396  1.6744  1.1399 -2.8687
   44MOL   H42931475   2.172   5.752   1.154 -0.1370 -0.5373 -1.1982
   44MOL   H43031476   2.174   5.617   1.268  1.3401 -0.0478  2.0918
   44MOL   H43131477   2.305   5.649   1.152 -1.6826 -0.6560 -0.8221
   44MOL   H43231478   2.216   5.895   1.520  2.1326  2.2622 -1.0500
   44MOL   H43331479   2.126   5.762   1.449  0.2275 -0.5474  0.1726
   44MOL   C43431480   1.158   6.255   0.588 -0.2446 -0.3605  0.1971
   44MOL   C43531481   1.222   6.125   0.647 -0.3065 -0.4339  0.1053
   44MOL   C43631482   1.341   6.162   0.723  0.6581  0.8653 -0.2404
   44MOL   C43731483   1.411   6.046   0.802  0.2031 -1.1455  0.2730
   44MOL   C43831484   1.504   6.097   0.908 -0.1731  0.3743 -0.6689
   44MOL   C43931485   1.567   5.980   0.985 -0.4410 -0.0498 -0.0027
   44MOL   C44031486   1.671   6.030   1.092 -0.5562 -0.1148 -0.1110
   44MOL   C44131487   1.777   5.926   1.127 -0.3430  0.6877  0.1544
   44MOL   O44231488   1.867   5.979   1.222 -0.0006  0.8547  0.0719
   44MOL   C44331489   1.950   5.887   1.289 -0.2471  0.3888  0.6648
   44MOL   O44431490   1.931   5.760   1.290 -0.5530 -0.2555 -0.0336
   44MOL   C44531491   2.070   5.957   1.358  0.8336  0.1270 -0.1904
   44MOL   C44631492   2.132   6.053   1.249 -0.0894 -0.0302 -0.0750
   44MOL   C44731493   2.023   6.049   1.475 -0.0565  0.1788  0.1295
   44MOL   H44831494   1.096   6.304   0.662 -1.0991 -2.3447  0.8294
   44MOL   H44931495   1.081   6.231   0.515 -0.8642 -0.0855  0.7645
   44MOL   H45031496   1.231   6.326   0.547 -1.9671  1.3144 -0.0143
   44MOL   H45131497   1.247   6.048   0.574  0.6601  0.6660 -0.7248
   44MOL   H45231498   1.143   6.076   0.704 -1.0765  1.9383  1.1389
   44MOL   H45331499   1.298   6.226   0.801 -0.8509  2.4683 -2.3401
   44MOL   H45431500   1.405   6.220   0.656 -0.0615 -1.6185 -3.1467
   44MOL   H45531501   1.476   5.997   0.730 -1.4846 -0.9549 -1.3974
   44MOL   H45631502   1.330   5.978   0.829 -0.4489 -1.2215 -1.7886
   44MOL   H45731503   1.583   6.154   0.859  0.3186  1.3134  1.1778
   44MOL   H45831504   1.459   6.171   0.974  2.6736  0.6115  1.0819
   44MOL   H45931505   1.606   5.897   0.925 -0.7751 -2.1571  2.5817
   44MOL   H46031506   1.485   5.932   1.040  0.7314  0.2945  2.1154
   44MOL   H46131507   1.717   6.120   1.052  2.9471 -1.5228  0.5507
   44MOL   H46231508   1.614   6.063   1.178 -0.4275 -3.4757  1.3643
   44MOL   H46331509   1.831   5.905   1.035 -0.7467  1.3419 -0.2273
   44MOL   H46431510   1.735   5.835   1.170  2.8421 -1.2813 -0.7353
   44MOL   H46531511   2.145   6.002   1.153  0.6095 -0.1521  0.0812
   44MOL   H46631512   2.068   6.136   1.219  0.6681  0.8385  0.6818
   44MOL   H46731513   2.228   6.092   1.282 -0.2978  1.1472 -0.8253
   44MOL   H46831514   2.103   6.095   1.533  1.6727 -1.3213 -1.0258
   44MOL   H46931515   1.978   6.136   1.427 -0.6847 -0.0894  0.2261
   44MOL   C47031516   2.061   5.307   1.214 -0.0346 -0.2719 -0.0808
   44MOL   C47131517   1.905   5.327   1.229  0.1273  0.6333 -0.2809
   44MOL   C47231518   1.860   5.428   1.343  0.2172 -1.4033 -0.4718
   44MOL   C47331519   1.722   5.496   1.334 -0.7359  0.1752 -0.1916
   44MOL   C47431520   1.687   5.578   1.458 -0.1579  0.4669  0.4777
   44MOL   C47531521   1.549   5.652   1.450 -0.4325 -0.8305  0.3816
   44MOL   C47631522   1.520   5.753   1.566 -0.2051 -0.1135  0.9424
   44MOL   C47731523   1.579   5.891   1.544 -0.0878 -0.1722  0.6164
   44MOL   O47831524   1.710   5.894   1.586 -0.3534  0.4974 -0.3135
   44MOL   C47931525   1.781   5.995   1.540  0.2845  0.0195  0.0203
   44MOL   O48031526   1.731   6.087   1.468 -0.5566  0.1195 -0.5850
   44MOL   C48131527   1.929   6.010   1.596 -0.1368 -0.6820  1.2994
   44MOL   C48231528   1.983   5.881   1.661 -0.1030  0.4122 -0.1708
   44MOL   C48331529   1.936   6.124   1.706  0.5603  0.1617 -0.0724
   44MOL   H48431530   2.085   5.214   1.161 -2.3914 -1.8269  1.4963
   44MOL   H48531531   2.112   5.300   1.310 -2.0393 -0.1942  1.0038
   44MOL   H48631532   2.111   5.390   1.164  0.7114  0.2658  1.5094
   44MOL   H48731533   1.872   5.367   1.133  0.4484 -1.6834 -1.3697
   44MOL   H48831534   1.849   5.234   1.233 -0.6917  1.1678  2.5187
   44MOL   H48931535   1.883   5.394   1.444  0.4638  1.7936  0.6246
   44MOL   H49031536   1.930   5.512   1.344 -0.4276 -0.8631  0.3711
   44MOL   H49131537   1.721   5.558   1.244  1.1698  0.4024 -0.0766
   44MOL   H49231538   1.647   5.419   1.321  1.2890 -1.7187 -0.8506
   44MOL   H49331539   1.679   5.507   1.540  2.3155  1.7070  1.8573
   44MOL   H49431540   1.762   5.656   1.470 -0.8724  0.9760  1.6753
   44MOL   H49531541   1.528   5.700   1.354  0.1733  0.4702  0.8778
   44MOL   H49631542   1.462   5.587   1.457 -1.4449  0.6825  2.2356
   44MOL   H49731543   1.414   5.775   1.560 -0.5405 -2.1410 -1.2149
   44MOL   H49831544   1.538   5.710   1.665  0.0547 -1.1325  0.4532
   44MOL   H49931545   1.527   5.968   1.601  0.0704 -0.1833  0.7773
   44MOL   H50031546   1.576   5.912   1.437  2.2606 -2.8734 -0.0389
   44MOL   H50131547   2.085   5.891   1.697  0.0821 -1.5139 -0.0952
   44MOL   H50231548   1.983   5.795   1.594 -0.9605  0.0649  0.2589
   44MOL   H50331549   1.914   5.860   1.743 -0.8208 -0.4429 -0.9767
   44MOL   H50431550   2.031   6.109   1.757  0.6202  0.1785 -0.1788
   44MOL   H50531551   1.951   6.219   1.655 -1.5904  0.1393 -0.7976
   44MOL   C50631552   2.023   7.169   1.347 -0.2888 -0.4294  0.2045
   44MOL   C50731553   1.938   7.041   1.348  0.6776 -0.4377 -0.5841
   44MOL   C50831554   1.966   6.958   1.476  0.7247 -0.1698  0.0643
   44MOL   C50931555   1.906   6.816   1.461  0.3753 -0.4771  0.2253
   44MOL   C51031556   1.926   6.718   1.577  0.0236 -0.5795 -0.0328
   44MOL   C51131557   1.866   6.577   1.553 -0.1574 -0.0108 -0.1290
   44MOL   C51231558   1.715   6.556   1.589  0.1119 -0.1119  0.1925
   44MOL   C51331559   1.680   6.410   1.594  0.8015  0.0159 -0.3771
   44MOL   O51431560   1.759   6.349   1.697 -0.3179  0.1445  0.1375
   44MOL   C51531561   1.719   6.235   1.755 -0.3752  1.2314  0.3218
   44MOL   O51631562   1.604   6.187   1.745  0.5806  0.2178  0.0773
   44MOL   C51731563   1.832   6.162   1.821  0.4225  0.1456 -1.6416
   44MOL   C51831564   1.779   6.034   1.893 -0.5033  0.1843 -0.7371
   44MOL   C51931565   1.909   6.252   1.926 -0.0163 -0.0900  0.0737
   44MOL   H52031566   2.046   7.200   1.449 -1.2331  0.7570  0.0689
   44MOL   H52131567   1.971   7.256   1.308 -0.8248 -0.0238  1.7898
   44MOL   H52231568   2.121   7.149   1.304  0.2130 -1.8865  1.9232
   44MOL   H52331569   1.957   6.992   1.252 -0.8047 -0.3179 -0.9469
   44MOL   H52431570   1.838   7.085   1.351  1.1689  0.6346  0.4743
   44MOL   H52531571   2.073   6.945   1.495  0.5471 -0.7391  0.7099
   44MOL   H52631572   1.928   7.008   1.565  1.5319 -1.2554  1.0329
   44MOL   H52731573   1.802   6.806   1.432  0.7853 -0.6935 -1.1986
   44MOL   H52831574   1.961   6.777   1.375 -0.3955  0.1235 -0.5479
   44MOL   H52931575   2.035   6.717   1.586  0.1852  0.1548 -1.6044
   44MOL   H53031576   1.886   6.749   1.673  0.6411 -0.2527  0.1267
   44MOL   H53131577   1.934   6.515   1.611 -1.2514  0.0871  1.3068
   44MOL   H53231578   1.882   6.542   1.451  1.9667 -1.3545  0.6346
   44MOL   H53331579   1.647   6.612   1.524  1.5142  1.2178 -0.1721
   44MOL   H53431580   1.697   6.609   1.683  1.7244  2.3469 -0.8181
   44MOL   H53531581   1.690   6.354   1.501 -0.2591  2.0247 -1.7131
   44MOL   H53631582   1.576   6.404   1.624  1.6745 -0.5368  2.7210
   44MOL   H53731583   1.728   5.963   1.828  0.5563 -0.8537 -0.4322
   44MOL   H53831584   1.707   6.054   1.973  1.8319 -0.8725  1.7137
   44MOL   H53931585   1.856   5.976   1.942 -2.2671 -0.3117  1.5644
   44MOL   H54031586   2.006   6.206   1.945 -0.2289 -0.6884 -0.2872
   44MOL   H54131587   1.935   6.335   1.860  1.1437 -0.2351  0.3381
   44MOL   C54231588   2.830   5.728   2.455  0.3409 -0.5631 -0.8758
   44MOL   C54331589   2.679   5.712   2.471 -0.9551 -0.0481 -0.1306
   44MOL   C54431590   2.601   5.834   2.433 -0.0169  0.3994  0.4711
   44MOL   C54531591   2.452   5.810   2.437  0.2878  0.4568  0.2479
   44MOL   C54631592   2.379   5.903   2.333 -0.0596  0.4561 -0.7531
   44MOL   C54731593   2.229   5.902   2.344 -0.1025  0.0134  0.0770
   44MOL   C54831594   2.182   6.029   2.266  0.1108  0.3791 -0.4803
   44MOL   C54931595   2.033   6.034   2.244  0.4818 -1.1656  0.5908
   44MOL   O55031596   2.008   6.154   2.183 -0.3909  0.5137 -0.0185
   44MOL   C55131597   1.875   6.197   2.170 -0.8526 -0.3543 -0.1326
   44MOL   O55231598   1.790   6.147   2.242 -0.4404 -0.4657  0.3890
   44MOL   C55331599   1.854   6.306   2.063  0.2455 -0.1087  0.6216
   44MOL   C55431600   1.703   6.346   2.050  0.6739 -0.2355 -0.3267
   44MOL   C55531601   1.938   6.437   2.098  0.1479  0.6862  0.0219
   44MOL   H55631602   2.880   5.635   2.484  2.4488  1.1813  1.2327
   44MOL   H55731603   2.860   5.812   2.517  0.7825 -0.6358 -0.9901
   44MOL   H55831604   2.846   5.750   2.349  1.4932  0.0159 -0.5828
   44MOL   H55931605   2.659   5.634   2.399 -1.6786  2.1010 -2.3152
   44MOL   H56031606   2.646   5.673   2.568  1.2183  1.3092  1.2141
   44MOL   H56131607   2.630   5.846   2.329  3.2643  1.8974  1.4766
   44MOL   H56231608   2.624   5.923   2.492 -2.9710  0.6835  1.2789
   44MOL   H56331609   2.440   5.704   2.416 -0.0450  0.1703  1.7763
   44MOL   H56431610   2.417   5.833   2.538  0.2482  3.6694 -0.4512
   44MOL   H56531611   2.397   5.878   2.228 -0.9473 -0.5183 -0.6824
   44MOL   H56631612   2.424   6.000   2.354  2.0637 -0.8615  0.9525
   44MOL   H56731613   2.179   5.815   2.302 -2.0579  1.4883 -0.7217
   44MOL   H56831614   2.194   5.898   2.447  2.0589 -0.8238  0.8104
   44MOL   H56931615   2.214   6.110   2.331  1.3854 -1.8727  1.7847
   44MOL   H57031616   2.244   6.042   2.177  0.5414  2.9862  0.1676
   44MOL   H57131617   1.980   6.044   2.338 -0.4382 -0.5044  0.0077
   44MOL   H57231618   1.988   5.951   2.190 -0.6426  0.8441 -1.6727
   44MOL   H57331619   1.641   6.257   2.036 -0.0669  0.1092  0.7499
   44MOL   H57431620   1.689   6.412   1.964  0.6621  0.1589 -0.0184
   44MOL   H57531621   1.670   6.404   2.136 -0.2705 -1.9454  0.4801
   44MOL   H57631622   1.899   6.503   2.021 -1.4090  1.5283  1.5040
   44MOL   H57731623   2.037   6.406   2.065  0.2323  0.0132  0.8813
   44MOL   C57831624   2.155   7.460   2.201  0.0620 -0.6581  0.3195
   44MOL   C57931625   2.256   7.344   2.219 -0.4815  0.7708  0.3220
   44MOL   C58031626   2.332   7.299   2.091 -0.1954 -0.3876  0.1338
   44MOL   C58131627   2.236   7.238   1.981 -0.2406 -0.0823  0.3524
   44MOL   C58231628   2.195   7.094   2.017  0.5364  0.4487 -0.3917
   44MOL   C58331629   2.080   7.024   1.931 -0.2318 -1.1398 -0.1478
   44MOL   C58431630   2.040   6.883   1.981 -0.0480 -0.0129  0.1125
   44MOL   C58531631   1.960   6.869   2.104  0.3577 -0.3925 -0.2839
   44MOL   O58631632   1.934   6.733   2.140  0.0797 -0.0831  0.4423
   44MOL   C58731633   2.023   6.657   2.201  0.6462  0.6063  0.4191
   44MOL   O58831634   2.144   6.686   2.220  0.2260 -0.2715 -0.3945
   44MOL   C58931635   1.957   6.518   2.240 -0.1376  0.0671 -0.0724
   44MOL   C59031636   2.051   6.447   2.338 -0.2588  0.0965 -0.0482
   44MOL   C59131637   1.811   6.532   2.304 -0.5457  0.0787  0.0092
   44MOL   H59231638   2.189   7.551   2.152 -0.5093 -0.8245 -0.3909
   44MOL   H59331639   2.110   7.485   2.297  0.1854 -0.1316  0.2415
   44MOL   H59431640   2.068   7.418   2.151 -0.0187 -1.2067  0.9076
   44MOL   H59531641   2.201   7.253   2.245  2.3415 -1.2782 -0.6360
   44MOL   H59631642   2.332   7.374   2.291 -0.4187 -2.0437  1.4946
   44MOL   H59731643   2.399   7.220   2.123  1.3082  0.7189 -0.1741
   44MOL   H59831644   2.381   7.389   2.051 -0.1386 -2.0054 -3.6671
   44MOL   H59931645   2.294   7.232   1.889  1.0125  1.1328  1.0452
   44MOL   H60031646   2.152   7.303   1.956 -0.0713 -0.5513 -1.5133
   44MOL   H60131647   2.144   7.094   2.113 -1.6145  1.3863 -1.5032
   44MOL   H60231648   2.280   7.027   2.032 -0.2115 -1.1369 -2.9832
   44MOL   H60331649   2.123   7.002   1.833  0.5922  0.0963 -0.0842
   44MOL   H60431650   1.993   7.088   1.913 -0.5467 -1.3346  0.6532
   44MOL   H60531651   2.131   6.825   1.997  0.0460 -0.4321 -1.8108
   44MOL   H60631652   1.992   6.833   1.897  0.4709  2.0537 -1.4718
   44MOL   H60731653   2.020   6.919   2.180  0.2035 -0.7106  0.0491
   44MOL   H60831654   1.874   6.936   2.093 -1.0293 -2.1381 -0.3888
   44MOL   H60931655   2.009   6.356   2.379 -0.9199  1.6863  2.8887
   44MOL   H61031656   2.148   6.419   2.296 -0.2928  0.0258 -0.0814
   44MOL   H61131657   2.074   6.503   2.429 -0.4913 -2.6826  1.7720
   44MOL   H61231658   1.771   6.431   2.300  0.6846 -0.4062 -0.1640
   44MOL   H61331659   1.760   6.595   2.230 -0.8581 -1.5050 -1.1501
   44MOL   C61431660   1.795   5.674   2.205 -0.2129  1.1363  0.5089
   44MOL   C61531661   1.767   5.643   2.360  0.0960  0.0896  0.1588
   44MOL   C61631662   1.869   5.705   2.458 -0.1737 -0.0708  0.4086
   44MOL   C61731663   1.827   5.844   2.509 -0.4606  1.3017  0.4249
   44MOL   C61831664   1.907   5.898   2.623  0.0210 -0.3463  0.3873
   44MOL   C61931665   1.846   6.023   2.687 -0.1604 -0.2111  0.2929
   44MOL   C62031666   1.856   6.142   2.584  0.1193  0.0514  0.2032
   44MOL   C62131667   1.777   6.267   2.636 -0.2441  0.4406 -0.4614
   44MOL   O62231668   1.770   6.371   2.542 -0.0190  0.0844 -0.1264
   44MOL   C62331669   1.837   6.487   2.555  0.0160  0.2018 -0.2701
   44MOL   O62431670   1.931   6.508   2.627  0.0250  0.0573 -0.3565
   44MOL   C62531671   1.784   6.590   2.454 -0.3060 -0.0119  0.5486
   44MOL   C62631672   1.837   6.730   2.478 -0.3324  0.1908 -0.1921
   44MOL   C62731673   1.627   6.597   2.463 -0.3379 -0.2869  0.7290
   44MOL   H62831674   1.726   5.622   2.138  0.8923  0.1577  0.1162
   44MOL   H62931675   1.898   5.646   2.185  0.1208  1.2255  2.0573
   44MOL   H63031676   1.781   5.781   2.193 -1.4090  0.6708 -2.7649
   44MOL   H63131677   1.665   5.669   2.386  0.1590 -0.2144  0.7212
   44MOL   H63231678   1.764   5.534   2.360  0.4621  0.0757  0.5234
   44MOL   H63331679   1.970   5.700   2.415  0.0110 -0.0601  0.8399
   44MOL   H63431680   1.868   5.657   2.556  1.2662 -0.2876  0.3381
   44MOL   H63531681   1.722   5.838   2.537 -0.5159 -1.8998 -0.2425
   44MOL   H63631682   1.835   5.917   2.428 -0.2164  1.2290  0.3828
   44MOL   H63731683   1.912   5.823   2.702  0.8402  1.2554  1.8875
   44MOL   H63831684   2.010   5.911   2.591 -0.3343 -1.6014 -1.3730
   44MOL   H63931685   1.742   6.005   2.715 -0.2665  0.8157  0.5886
   44MOL   H64031686   1.903   6.051   2.776  1.8964 -0.5962 -0.8605
   44MOL   H64131687   1.814   6.120   2.486  0.9265  0.6587 -0.2920
   44MOL   H64231688   1.961   6.163   2.565 -0.2267  1.0132 -0.7597
   44MOL   H64331689   1.672   6.246   2.654  0.3058 -0.3099  2.0024
   44MOL   H64431690   1.820   6.312   2.725  1.0849 -0.6503 -0.5223
   44MOL   H64531691   1.946   6.726   2.473 -0.1928  0.2349  2.1292
   44MOL   H64631692   1.813   6.767   2.578 -1.4767 -1.0324  0.0114
   44MOL   H64731693   1.809   6.800   2.400  0.1062  3.0886  2.1812
   44MOL   H64831694   1.578   6.503   2.442 -4.6155  2.1317 -0.6670
   44MOL   H64931695   1.600   6.662   2.380  0.6870 -2.4982 -1.3752
   44MOL   C65031696   1.573   6.983   1.564  0.3027 -0.3548 -0.4270
   44MOL   C65131697   1.497   6.941   1.699 -0.4384  0.3952  0.0457
   44MOL   C65231698   1.565   6.968   1.830  0.2021  0.1229 -0.1212
   44MOL   C65331699   1.471   6.948   1.950  0.1057 -0.4182 -0.2103
   44MOL   C65431700   1.528   7.017   2.079 -0.1010  0.4588  0.0173
   44MOL   C65531701   1.468   6.953   2.203  0.6253  0.2791  0.8692
   44MOL   C65631702   1.501   7.045   2.330 -0.0352  0.2893 -0.3218
   44MOL   C65731703   1.451   6.988   2.466  0.2464  0.2483 -0.4381
   44MOL   O65831704   1.476   6.851   2.485 -0.5729 -0.1965  0.1862
   44MOL   C65931705   1.546   6.814   2.584  0.0257  0.5810 -0.5346
   44MOL   O66031706   1.592   6.890   2.669 -0.0858 -0.1071 -0.2758
   44MOL   C66131707   1.556   6.657   2.593  0.1928 -0.7845 -0.2142
   44MOL   C66231708   1.618   6.615   2.730  0.0184 -0.2914  0.1875
   44MOL   C66331709   1.402   6.604   2.586 -0.3093  1.0992 -0.1492
   44MOL   H66431710   1.670   6.936   1.547  0.3137 -0.1183 -1.0294
   44MOL   H66531711   1.592   7.090   1.563  3.1778 -0.8076 -0.9204
   44MOL   H66631712   1.514   6.966   1.474  1.3280 -2.2446 -0.7775
   44MOL   H66731713   1.477   6.835   1.689 -0.4912  0.1063  2.8140
   44MOL   H66831714   1.397   6.984   1.697 -0.3417  0.6655  0.9085
   44MOL   H66931715   1.592   7.073   1.842  0.2891  0.3448 -2.0698
   44MOL   H67031716   1.659   6.914   1.839  0.4688  0.7321  0.8420
   44MOL   H67131717   1.472   6.840   1.967  2.5629 -0.5985 -1.2049
   44MOL   H67231718   1.377   6.993   1.919  0.1334 -0.9859 -1.1574
   44MOL   H67331719   1.502   7.122   2.078  0.4128  0.5897 -1.8765
   44MOL   H67431720   1.636   7.000   2.079 -0.1158  0.2991  1.2912
   44MOL   H67531721   1.363   6.935   2.185  0.4184  2.4766 -0.3542
   44MOL   H67631722   1.505   6.850   2.206 -0.6236 -0.2012 -0.1203
   44MOL   H67731723   1.461   7.145   2.313 -0.7531  0.0762  0.0958
   44MOL   H67831724   1.607   7.053   2.354 -0.2614 -0.8537  1.0772
   44MOL   H67931725   1.344   7.004   2.471 -0.0640 -1.6289 -0.5527
   44MOL   H68031726   1.492   7.054   2.542 -4.9129  4.6818 -1.2184
   44MOL   H68131727   1.626   6.507   2.738  2.3899 -0.5721 -4.4699
   44MOL   H68231728   1.544   6.643   2.805  0.2392 -0.8417  0.6118
   44MOL   H68331729   1.712   6.664   2.754 -0.4608  0.9420 -0.4171
   44MOL   H68431730   1.348   6.621   2.493 -2.3798 -0.1361  0.8059
   44MOL   H68531731   1.405   6.496   2.581  0.3630  1.0367  1.1480
   44MOL   C68631732   1.050   7.121   3.403 -0.3262 -0.1912 -0.6130
   44MOL   C68731733   0.976   7.033   3.303 -0.4133  0.1848 -0.5720
   44MOL   C68831734   1.015   6.886   3.318  0.4187  0.7720 -0.5719
   44MOL   C68931735   0.911   6.806   3.226 -0.1077  0.4379  0.0154
   44MOL   C69031736   0.943   6.660   3.205 -0.1403 -0.0517  0.1049
   44MOL   C69131737   1.067   6.636   3.111 -0.0537 -0.2782  0.4442
   44MOL   C69231738   1.111   6.489   3.104 -0.4404  0.0056 -0.0433
   44MOL   C69331739   1.254   6.487   3.045 -0.1604  0.0883 -0.3464
   44MOL   O69431740   1.257   6.570   2.929  0.4001 -0.2252  0.1940
   44MOL   C69531741   1.316   6.532   2.823  0.4538 -0.1032 -0.4793
   44MOL   O69631742   1.374   6.424   2.808 -0.1360  0.0764  0.0107
   44MOL   C69731743   1.301   6.633   2.702 -0.3711  0.2880 -0.1224
   44MOL   C69831744   1.161   6.604   2.638  0.3504 -0.5666 -0.2215
   44MOL   C69931745   1.300   6.778   2.752  0.8330  1.0634 -0.4291
   44MOL   H70031746   1.043   7.090   3.507 -0.2206  1.7014 -0.0156
   44MOL   H70131747   0.990   7.211   3.400 -0.1421  0.0425  1.8791
   44MOL   H70231748   1.154   7.148   3.380 -0.3184  0.2661 -0.0496
   44MOL   H70331749   0.989   7.075   3.203 -1.3431  1.4667 -0.1505
   44MOL   H70431750   0.871   7.051   3.324 -0.0277  3.6883 -1.3265
   44MOL   H70531751   1.013   6.855   3.422 -0.7006 -0.2990 -0.9079
   44MOL   H70631752   1.115   6.870   3.277  1.8183  0.6724  2.7673
   44MOL   H70731753   0.913   6.845   3.124 -1.5662 -1.6783 -0.8607
   44MOL   H70831754   0.816   6.836   3.269  1.6447  1.1685  3.5861
   44MOL   H70931755   0.852   6.611   3.169  0.1207  1.3199 -2.5490
   44MOL   H71031756   0.977   6.618   3.299  3.3292  1.8063 -0.2503
   44MOL   H71131757   1.056   6.670   3.008  0.0119 -0.9000  0.2300
   44MOL   H71231758   1.156   6.685   3.151 -0.8500  1.6037 -0.0095
   44MOL   H71331759   1.109   6.450   3.206 -0.0291  0.0070 -0.0360
   44MOL   H71431760   1.049   6.431   3.036  0.4772 -0.6830 -0.2929
   44MOL   H71531761   1.290   6.387   3.022 -0.0796  0.2049 -0.7274
   44MOL   H71631762   1.319   6.526   3.124 -0.0511 -0.3272 -0.2331
   44MOL   H71731763   1.130   6.658   2.548 -0.2907  1.2887  1.0762
   44MOL   H71831764   1.171   6.498   2.616 -0.2942 -0.5152 -0.8084
   44MOL   H71931765   1.082   6.621   2.710  2.3085 -0.4067  1.9392
   44MOL   H72031766   1.380   6.811   2.818 -0.5265  0.2305  1.6874
   44MOL   H72131767   1.217   6.793   2.822 -0.3247 -1.5829 -1.1558
   44MOL   H72231768   1.294   6.847   2.668  1.0564  2.8369  0.9902
   45MOL     C131769   4.652   7.146   5.171 -0.3973 -0.5431 -0.0288
   45MOL     C231770   4.727   7.278   5.143  0.1919  0.4787 -0.5584
   45MOL     C331771   4.688   7.401   5.231  0.1751  0.6826 -0.1972
   45MOL     C431772   4.563   7.457   5.181  0.2260 -0.2348  0.4503
   45MOL     C531773   4.588   7.593   5.107 -0.5110  0.3458 -0.3934
   45MOL     C631774   4.487   7.704   5.143 -0.2067  0.3259 -0.5889
   45MOL     C731775   4.532   0.050   5.078 -0.7518  0.0788  0.1245
   45MOL     C831776   4.453   0.173   5.111 -0.1888  0.1331  0.6162
   45MOL     O931777   4.318   0.140   5.085 -0.4579  0.2309  0.4074
   45MOL    C1031778   4.222   0.235   5.090 -0.2542  0.5093 -0.6627
   45MOL    O1131779   4.250   0.353   5.110  0.4237  0.2675 -0.4217
   45MOL    C1231780   4.080   0.175   5.077 -0.2056 -1.2155 -0.0549
   45MOL    C1331781   4.029   0.130   5.211 -0.3670  0.3816 -0.1589
   45MOL    C1431782   3.976   0.278   5.009  0.4573 -0.1505  0.1727
   45MOL    H1531783   4.660   7.123   5.278 -1.4068 -1.2938 -0.1076
   45MOL    H1631784   4.688   7.063   5.111 -2.7009 -1.0741 -0.7148
   45MOL    H1731785   4.545   7.141   5.153 -0.6173  1.0605  0.7134
   45MOL    H1831786   4.712   7.307   5.038 -0.7994 -0.1326 -0.5948
   45MOL    H1931787   4.834   7.264   5.154 -0.3457 -3.4977  0.3329
   45MOL    H2031788   4.674   7.365   5.333  0.1675 -2.0632 -1.1210
   45MOL    H2131789   4.765   7.478   5.223  0.0899  0.9353  1.3025
   45MOL    H2231790   4.510   7.381   5.123  0.8246 -0.5147  0.2692
   45MOL    H2331791   4.506   7.484   5.270  1.7183 -0.1862  1.4107
   45MOL    H2431792   4.590   7.581   4.998 -1.1789  0.8048 -0.4588
   45MOL    H2531793   4.678   7.641   5.145 -0.1058  0.0665 -0.9892
   45MOL    H2631794   4.495   7.703   5.252 -0.5197  0.8881 -0.5567
   45MOL    H2731795   4.382   7.683   5.123 -0.4356  1.7125 -0.9032
   45MOL    H2831796   4.520   0.045   4.970 -1.0576  0.9501  0.1110
   45MOL    H2931797   4.630   0.073   5.118  1.8061 -3.5740 -3.7214
   45MOL    H3031798   4.481   0.263   5.056  0.6935  0.1600  1.0939
   45MOL    H3131799   4.462   0.196   5.218 -0.5480  0.3283  0.6066
   45MOL    H3231800   3.975   0.206   5.268 -0.8807  0.5277 -0.8380
   45MOL    H3331801   3.968   0.041   5.194 -0.4507  0.0520  1.7420
   45MOL    H3431802   4.104   0.089   5.279 -0.6116 -0.4916 -0.4068
   45MOL    H3531803   3.969   0.373   5.062  0.4731 -0.4105  0.6394
   45MOL    H3631804   3.880   0.233   5.034  0.1495  0.3743 -0.0456
   45MOL    H3731805   4.092   0.085   5.018  0.8433 -0.6380 -0.7488
   45MOL    C3831806   4.760   7.292   4.663 -0.9187  0.7495  0.1872
   45MOL    C3931807   4.648   7.393   4.629 -0.3494  0.0797 -0.1621
   45MOL    C4031808   4.587   7.458   4.753  0.0698  0.3732  0.4102
   45MOL    C4131809   4.459   7.547   4.728 -0.1708 -0.4600  0.7294
   45MOL    C4231810   4.334   7.473   4.757 -0.1927  0.5773 -0.4154
   45MOL    C4331811   4.215   7.540   4.693  0.3431 -0.7720  0.1660
   45MOL    C4431812   4.177   7.670   4.774 -0.4342  0.1638 -0.5326
   45MOL    C4531813   4.070   7.758   4.698 -0.4454 -0.2424 -0.3297
   45MOL    O4631814   4.063   0.110   4.759 -0.1838 -0.7409 -0.5942
   45MOL    C4731815   3.948   0.172   4.780  0.3401  0.6987  0.4802
   45MOL    O4831816   3.844   0.131   4.730  0.8240 -0.2752  0.0225
   45MOL    C4931817   3.961   0.305   4.860 -0.2381 -0.3979  0.7343
   45MOL    C5031818   4.090   0.375   4.818 -0.0087  0.3887  0.4535
   45MOL    C5131819   3.830   0.391   4.850  0.8436  0.3608 -0.1739
   45MOL    H5231820   4.742   7.240   4.757  0.4553 -0.2107 -0.0550
   45MOL    H5331821   4.861   7.331   4.674  0.5261 -2.1784 -2.0199
   45MOL    H5431822   4.755   7.201   4.603  1.2657  0.4530  0.4060
   45MOL    H5531823   4.572   7.343   4.570 -0.4637  1.0030 -0.8056
   45MOL    H5631824   4.693   7.472   4.569 -1.1950 -0.7880 -1.9687
   45MOL    H5731825   4.565   7.381   4.827 -2.8311  0.7213 -0.0432
   45MOL    H5831826   4.663   7.521   4.800 -0.0856  1.6848 -1.0836
   45MOL    H5931827   4.457   7.597   4.631 -2.0512 -1.4672  0.2204
   45MOL    H6031828   4.468   7.636   4.791 -1.2051  0.5496 -0.5068
   45MOL    H6131829   4.333   7.376   4.708 -0.9604 -0.3935  1.4770
   45MOL    H6231830   4.328   7.464   4.866 -0.5854 -2.9090 -0.6732
   45MOL    H6331831   4.227   7.571   4.590 -0.4685  0.6276  0.4825
   45MOL    H6431832   4.129   7.472   4.691 -0.4541  0.1904  0.9196
   45MOL    H6531833   4.260   7.733   4.807  0.9162 -1.3238 -1.0374
   45MOL    H6631834   4.129   7.630   4.864 -1.6549 -0.1091 -1.2942
   45MOL    H6731835   3.975   7.705   4.689 -0.4710 -0.2499 -0.0251
   45MOL    H6831836   4.097   7.765   4.593 -3.0773  1.1646 -0.9677
   45MOL    H6931837   4.092   0.460   4.886  1.6829 -1.2186  2.4839
   45MOL    H7031838   4.180   0.316   4.834 -1.1670 -2.1560 -1.9718
   45MOL    H7131839   4.086   0.408   4.715  0.9711 -0.3447  0.1690
   45MOL    H7231840   3.828   0.457   4.936  0.7817  0.8416 -0.5433
   45MOL    H7331841   3.754   0.317   4.877  2.9450 -1.9913 -0.5105
   45MOL    C7431842   4.559   1.271   4.465  0.4875 -0.2830 -1.0767
   45MOL    C7531843   4.593   1.122   4.485 -0.5354  0.4168 -0.4229
   45MOL    C7631844   4.485   1.066   4.576  0.5992  0.9666 -0.0530
   45MOL    C7731845   4.487   0.914   4.583 -0.5268  0.0412 -0.1908
   45MOL    C7831846   4.395   0.863   4.697  0.2258 -0.0812  0.5153
   45MOL    C7931847   4.245   0.875   4.679  0.5017 -0.3502  0.0128
   45MOL    C8031848   4.164   0.748   4.667 -0.0882 -0.8526 -0.1930
   45MOL    C8131849   4.018   0.759   4.656  0.0475 -0.2379 -0.1063
   45MOL    O8231850   3.952   0.632   4.647  0.1371 -0.0441 -0.2524
   45MOL    C8331851   3.842   0.610   4.728 -0.0999 -0.1798  0.1787
   45MOL    O8431852   3.792   0.695   4.804  0.3455 -0.4904 -0.6324
   45MOL    C8531853   3.777   0.470   4.726 -0.4706 -0.3649 -0.3622
   45MOL    C8631854   3.804   0.404   4.591 -0.6181 -0.6362 -0.0230
   45MOL    C8731855   3.618   0.489   4.754 -0.8706 -0.0258  0.3504
   45MOL    H8831856   4.518   1.301   4.368  1.1100  1.0590 -0.9433
   45MOL    H8931857   4.637   1.346   4.477 -1.3056  1.2078  1.8083
   45MOL    H9031858   4.484   1.307   4.536  1.9874  0.9620 -0.0834
   45MOL    H9131859   4.690   1.095   4.528 -0.4002  1.4089 -0.0726
   45MOL    H9231860   4.579   1.067   4.393  0.6201 -0.9019  0.1649
   45MOL    H9331861   4.509   1.101   4.677 -1.6593  0.4042  0.7080
   45MOL    H9431862   4.387   1.108   4.554  0.7157  0.8865 -0.7301
   45MOL    H9531863   4.587   0.876   4.602 -0.4291  0.8203  0.8938
   45MOL    H9631864   4.453   0.867   4.490  1.3960  1.3400 -1.6015
   45MOL    H9731865   4.430   0.759   4.703  2.7004  0.6673 -0.1048
   45MOL    H9831866   4.429   0.909   4.789  1.9061 -2.6261  1.2120
   45MOL    H9931867   4.195   0.927   4.761 -1.5207  1.0464 -2.0374
   45MOL   H10031868   4.224   0.940   4.594  1.3322 -0.6783 -0.4498
   45MOL   H10131869   4.192   0.695   4.575 -1.2969 -0.9564 -0.5105
   45MOL   H10231870   4.183   0.683   4.752 -1.7438 -1.0917  0.0176
   45MOL   H10331871   3.993   0.826   4.573  3.8817 -0.7934 -1.8457
   45MOL   H10431872   3.980   0.801   4.749  0.4332 -0.5052  0.1706
   45MOL   H10531873   3.794   0.473   4.507  2.2096  1.4956  1.3199
   45MOL   H10631874   3.735   0.320   4.588  0.6623 -1.6755 -0.9211
   45MOL   H10731875   3.907   0.370   4.580 -0.1169  0.0256  2.4290
   45MOL   H10831876   3.583   0.396   4.799 -1.8971 -0.0989 -0.5759
   45MOL   H10931877   3.613   0.544   4.848  0.2905  0.4357  0.1500
   45MOL   C11031878   3.589   0.770   5.565  0.2217 -0.5198 -0.6711
   45MOL   C11131879   3.451   0.702   5.561  0.4973 -0.0753 -0.1150
   45MOL   C11231880   3.416   0.631   5.431  0.2588  0.2450  0.0808
   45MOL   C11331881   3.268   0.594   5.424 -0.0496  0.6949 -0.1803
   45MOL   C11431882   3.255   0.505   5.302  0.6757 -0.5040 -0.2748
   45MOL   C11531883   3.234   0.591   5.172  0.1785 -0.0634  0.3105
   45MOL   C11631884   3.329   0.568   5.053 -0.7476  0.4794 -0.4873
   45MOL   C11731885   3.278   0.646   4.927  0.4848  0.0616  0.1782
   45MOL   O11831886   3.379   0.638   4.828  0.8760 -0.0134 -0.3995
   45MOL   C11931887   3.374   0.543   4.741 -0.1407 -0.8126  0.3121
   45MOL   O12031888   3.281   0.463   4.731 -0.0477  0.2614  0.0266
   45MOL   C12131889   3.504   0.538   4.652 -0.7681 -0.0920 -0.4669
   45MOL   C12231890   3.501   0.423   4.543  0.7413  0.2339  0.0500
   45MOL   C12331891   3.551   0.673   4.594  0.5246 -1.2484  0.9682
   45MOL   H12431892   3.604   0.851   5.494 -0.0235  0.5339  0.4559
   45MOL   H12531893   3.603   0.809   5.666 -0.2136 -1.6693 -0.1686
   45MOL   H12631894   3.674   0.705   5.548 -0.3948 -1.4684 -0.1469
   45MOL   H12731895   3.379   0.780   5.587  1.1257 -0.3394  2.5306
   45MOL   H12831896   3.437   0.625   5.637  0.6581 -1.3192 -1.3158
   45MOL   H12931897   3.482   0.544   5.422  1.0472  0.8381  0.0211
   45MOL   H13031898   3.434   0.701   5.350 -2.3531 -0.3447 -1.0474
   45MOL   H13131899   3.239   0.533   5.510 -0.8111  1.6947  0.2907
   45MOL   H13231900   3.195   0.675   5.416 -1.9374 -0.8379  0.9391
   45MOL   H13331901   3.164   0.446   5.313 -0.3608  0.8644 -1.2814
   45MOL   H13431902   3.343   0.441   5.295  1.3906  0.1282  2.2372
   45MOL   H13531903   3.133   0.584   5.131 -0.0019  2.4903  0.1989
   45MOL   H13631904   3.262   0.695   5.190  1.0159  0.0723 -1.6648
   45MOL   H13731905   3.343   0.460   5.041 -1.8227  0.2158  0.4780
   45MOL   H13831906   3.425   0.612   5.080 -1.4229  2.1552 -0.7921
   45MOL   H13931907   3.192   0.590   4.890  1.5835 -1.1872 -0.5578
   45MOL   H14031908   3.243   0.741   4.966 -0.9806 -0.5863  0.4860
   45MOL   H14131909   3.570   0.432   4.459  2.3883  2.4700  1.5781
   45MOL   H14231910   3.508   0.323   4.586 -0.0649 -0.7180 -1.9733
   45MOL   H14331911   3.405   0.424   4.491  1.0107 -0.1510 -0.4609
   45MOL   H14431912   3.636   0.650   4.530  0.1754  1.7766 -0.6818
   45MOL   H14531913   3.588   0.746   4.664  2.2068  0.5305 -1.7100
   45MOL   C14631914   2.309   0.567   4.549  0.3537  0.2289 -0.1319
   45MOL   C14731915   2.460   0.522   4.547  0.1160  0.1228  0.4384
   45MOL   C14831916   2.506   0.491   4.398  0.5830 -0.7216 -0.3955
   45MOL   C14931917   2.643   0.431   4.391 -0.5945 -0.4854  0.1207
   45MOL   C15031918   2.764   0.519   4.433 -0.8856 -0.5484 -0.1394
   45MOL   C15131919   2.897   0.486   4.370  0.1236  0.2452 -0.0042
   45MOL   C15231920   3.008   0.592   4.413  0.4282 -0.7752  0.6104
   45MOL   C15331921   3.154   0.559   4.375  0.7725 -0.0390  0.6677
   45MOL   O15431922   3.239   0.645   4.445 -0.1409 -0.4248 -0.0358
   45MOL   C15531923   3.372   0.662   4.410 -0.1252 -0.6606  0.1772
   45MOL   O15631924   3.425   0.607   4.317 -0.3217  0.6988 -0.3146
   45MOL   C15731925   3.455   0.759   4.495  0.4025  0.2023 -0.0548
   45MOL   C15831926   3.369   0.847   4.588 -0.1415 -0.0033  0.3513
   45MOL   C15931927   3.552   0.843   4.412 -0.6038 -0.0800 -0.1496
   45MOL   H16031928   2.258   0.580   4.645 -0.2223  0.7154 -0.5030
   45MOL   H16131929   2.248   0.504   4.484  1.1775 -1.3516  0.5956
   45MOL   H16231930   2.305   0.661   4.495 -0.7599 -0.3519 -1.0735
   45MOL   H16331931   2.531   0.600   4.574 -0.1984  1.1063 -1.4448
   45MOL   H16431932   2.462   0.428   4.603  1.5423 -1.0061 -1.4586
   45MOL   H16531933   2.502   0.583   4.339 -2.0706  0.0314  0.8337
   45MOL   H16631934   2.439   0.422   4.348  1.3350 -1.4634 -0.3801
   45MOL   H16731935   2.650   0.335   4.443 -1.1284 -0.8491 -0.4723
   45MOL   H16831936   2.649   0.411   4.284 -0.2834 -0.9678  0.2273
   45MOL   H16931937   2.773   0.521   4.542 -2.5507 -0.2432  0.0076
   45MOL   H17031938   2.734   0.622   4.415 -0.4700 -0.0986  1.6545
   45MOL   H17131939   2.893   0.485   4.261 -0.6669 -3.7915 -0.0139
   45MOL   H17231940   2.929   0.391   4.412 -1.5786 -1.0024 -1.4353
   45MOL   H17331941   2.974   0.688   4.375 -0.7259 -1.4980 -0.1970
   45MOL   H17431942   3.018   0.596   4.522  0.6114  0.1354  0.5677
   45MOL   H17531943   3.180   0.455   4.398 -1.9599 -1.0181 -0.3925
   45MOL   H17631944   3.168   0.567   4.267  2.5436 -1.7007  0.7504
   45MOL   H17731945   3.430   0.909   4.654  0.4283  0.7505 -0.8548
   45MOL   H17831946   3.303   0.790   4.654  0.3557  0.2841  1.1037
   45MOL   H17931947   3.305   0.916   4.533  0.1577 -1.6198 -2.1183
   45MOL   H18031948   3.606   0.764   4.360 -0.9333  0.9848 -2.1320
   45MOL   H18131949   3.627   0.875   4.485  0.2700 -0.3688 -0.9234
   45MOL   C18231950   4.036   1.785   4.627 -0.1527  0.2848  0.4283
   45MOL   C18331951   3.938   1.681   4.559  0.0573 -0.5938 -0.0095
   45MOL   C18431952   3.801   1.746   4.521  0.2405  0.5888 -0.3950
   45MOL   C18531953   3.694   1.642   4.469  0.0288  0.1313  0.1242
   45MOL   C18631954   3.733   1.550   4.352  0.2119 -0.1118 -0.7672
   45MOL   C18731955   3.611   1.470   4.309  0.0281 -0.1069 -0.3270
   45MOL   C18831956   3.536   1.388   4.419 -0.1950  0.0621 -0.0094
   45MOL   C18931957   3.417   1.313   4.368 -0.1775 -0.3037  0.1006
   45MOL   O19031958   3.444   1.183   4.313 -0.1930 -0.1614 -0.0948
   45MOL   C19131959   3.488   1.088   4.387  0.0686  0.0740 -0.2016
   45MOL   O19231960   3.497   1.100   4.507 -0.2993  0.1082  0.1314
   45MOL   C19331961   3.515   0.958   4.310  0.0152 -0.0212 -0.1069
   45MOL   C19431962   3.388   0.925   4.235  0.5127 -0.0462 -0.5111
   45MOL   C19531963   3.617   0.992   4.194 -0.5131  0.4133 -0.0123
   45MOL   H19631964   4.073   1.848   4.546 -0.7772  0.6739  0.4471
   45MOL   H19731965   3.995   1.850   4.704 -0.6086 -0.9894  1.2874
   45MOL   H19831966   4.126   1.745   4.674 -0.4857 -0.5472  0.3754
   45MOL   H19931967   3.922   1.591   4.618 -0.4893 -0.3026  0.2879
   45MOL   H20031968   3.989   1.651   4.467  0.7586  1.3685 -0.2848
   45MOL   H20131969   3.768   1.797   4.611  0.8242  0.6015 -0.1846
   45MOL   H20231970   3.812   1.820   4.441 -0.3118  1.8520  0.6863
   45MOL   H20331971   3.679   1.577   4.555  1.0706  1.5892  1.4162
   45MOL   H20431972   3.605   1.702   4.451 -1.8525 -2.5728  0.1389
   45MOL   H20531973   3.815   1.486   4.386 -1.0064  0.0640  2.7400
   45MOL   H20631974   3.773   1.600   4.264  1.8397 -0.2707 -0.1497
   45MOL   H20731975   3.652   1.396   4.241 -0.6771 -0.0777 -0.7847
   45MOL   H20831976   3.543   1.533   4.252 -0.3315  1.0959  1.3761
   45MOL   H20931977   3.604   1.317   4.464 -1.6136 -1.8647 -0.8129
   45MOL   H21031978   3.492   1.456   4.492 -0.0882 -0.3619  0.4532
   45MOL   H21131979   3.359   1.358   4.287  2.3959  0.6252 -1.2776
   45MOL   H21231980   3.345   1.303   4.449 -0.4155  0.9509  0.0564
   45MOL   H21331981   3.291   0.937   4.283 -0.0445  1.0470 -1.8670
   45MOL   H21431982   3.391   1.000   4.156  0.3500 -0.1963 -0.6592
   45MOL   H21531983   3.387   0.828   4.187 -3.3683  0.7314 -2.1827
   45MOL   H21631984   3.603   0.917   4.116 -1.7126 -0.5286  1.0782
   45MOL   H21731985   3.578   1.083   4.147  0.5137 -0.2217 -2.1582
   45MOL   C21831986   3.955   7.642   4.249  0.0951 -0.1939  0.1862
   45MOL   C21931987   3.925   7.736   4.361 -0.2163  0.5399 -0.1456
   45MOL   C22031988   3.839   0.076   4.333 -0.2576 -0.0002 -0.3197
   45MOL   C22131989   3.913   0.186   4.251  0.1882  0.1166  0.5734
   45MOL   C22231990   3.828   0.316   4.231 -0.5378  0.3560  0.0697
   45MOL   C22331991   3.911   0.425   4.172  0.2604 -0.6271  0.2147
   45MOL   C22431992   3.839   0.561   4.180  0.6590  0.7669 -0.9570
   45MOL   C22531993   3.919   0.684   4.131 -0.2660  0.8740  0.4379
   45MOL   O22631994   3.842   0.796   4.138 -0.5810  0.0810 -0.2630
   45MOL   C22731995   3.845   0.879   4.251  0.1938 -0.7144 -0.1388
   45MOL   O22831996   3.907   0.858   4.356 -0.3119 -0.0208  0.0333
   45MOL   C22931997   3.771   1.012   4.215 -0.1121  0.4438  0.3263
   45MOL   C23031998   3.790   1.111   4.339  0.2973  0.1450 -0.2325
   45MOL   C23131999   3.829   1.077   4.085 -0.0200 -0.1580 -1.3816
   45MOL   H23232000   3.865   7.605   4.199  0.0205 -1.9437  1.5747
   45MOL   H23332001   4.000   7.547   4.277 -0.4433 -0.2089  1.0069
   45MOL   H23432002   4.013   7.689   4.169  0.7293 -0.7869  0.3012
   45MOL   H23532003   4.021   7.773   4.399 -1.0081  1.5312  0.9583
   45MOL   H23632004   3.868   7.680   4.435 -0.2773  1.4277  0.4876
   45MOL   H23732005   3.741   0.048   4.295 -0.9232  1.6298  0.1565
   45MOL   H23832006   3.805   0.112   4.430 -2.2888 -1.8058 -0.3144
   45MOL   H23932007   4.011   0.203   4.295 -0.1469  1.9230  0.6358
   45MOL   H24032008   3.934   0.126   4.162 -2.3964 -1.1271  0.7708
   45MOL   H24132009   3.735   0.288   4.180 -0.8361 -0.3549  0.9906
   45MOL   H24232010   3.794   0.352   4.328  0.6966  1.4029  0.1244
   45MOL   H24332011   4.011   0.427   4.217 -0.5904  2.0590  2.0894
   45MOL   H24432012   3.927   0.399   4.067 -0.9060  1.6394 -0.5723
   45MOL   H24532013   3.816   0.588   4.283  1.9897  3.5324 -1.3353
   45MOL   H24632014   3.741   0.564   4.133 -0.3824 -0.4173  1.0852
   45MOL   H24732015   3.932   0.668   4.025 -3.2972 -0.3840  0.1897
   45MOL   H24832016   4.014   0.702   4.181  0.8185  0.3607 -1.4188
   45MOL   H24932017   3.730   1.201   4.334 -1.1042 -0.7479  0.1977
   45MOL   H25032018   3.892   1.143   4.358  0.2606 -0.8968  1.9017
   45MOL   H25132019   3.760   1.062   4.432  0.4785  1.1635  0.3636
   45MOL   H25232020   3.810   1.000   4.010  1.8653 -0.7682 -1.2489
   45MOL   H25332021   3.756   1.154   4.060  0.4746  0.4777 -0.8971
   45MOL   C25432022   3.766   1.888   3.298  0.6445 -0.2347  0.6357
   45MOL   C25532023   3.874   1.895   3.400 -0.3835  0.0394 -0.0053
   45MOL   C25632024   3.944   1.764   3.429  0.3705 -0.9751 -0.2461
   45MOL   C25732025   3.856   1.670   3.513  0.2622 -0.2861  0.2238
   45MOL   C25832026   3.932   1.531   3.522 -0.0457 -1.5082 -0.4839
   45MOL   C25932027   3.858   1.430   3.613  0.2464 -0.0415  0.4700
   45MOL   C26032028   3.930   1.290   3.615  0.3331  0.8629 -0.0758
   45MOL   C26132029   3.858   1.176   3.689 -0.8943  0.0687 -0.1697
   45MOL   O26232030   3.867   1.189   3.834 -0.4681 -0.0516  1.0611
   45MOL   C26332031   3.973   1.141   3.903  0.7314  0.5469 -0.2733
   45MOL   O26432032   4.061   1.079   3.843 -0.7141 -0.2882  0.0450
   45MOL   C26532033   3.968   1.142   4.054  0.1211 -0.3933 -0.1950
   45MOL   C26632034   4.071   1.049   4.119  0.3433 -0.2929  0.1578
   45MOL   C26732035   3.957   1.297   4.102 -0.4108  0.2019  1.1948
   45MOL   H26832036   3.745   1.991   3.269  1.2492 -0.0481  0.8623
   45MOL   H26932037   3.786   1.837   3.203  0.1652  0.0229  0.3942
   45MOL   H27032038   3.678   1.841   3.342  0.8083  0.4866  1.7390
   45MOL   H27132039   3.955   1.967   3.384 -0.7203  0.3506 -0.3045
   45MOL   H27232040   3.819   1.925   3.489  0.0474  1.6854 -0.2679
   45MOL   H27332041   4.035   1.779   3.487 -1.4836 -0.8873  2.7438
   45MOL   H27432042   3.968   1.732   3.327 -0.9361 -1.2566 -0.4655
   45MOL   H27532043   3.757   1.656   3.470 -0.3237 -1.2482  1.8082
   45MOL   H27632044   3.847   1.708   3.615 -1.2924  1.4958 -0.5441
   45MOL   H27732045   3.951   1.490   3.423 -0.2093  0.7413 -1.4745
   45MOL   H27832046   4.030   1.548   3.567 -0.4685  1.3836 -0.5618
   45MOL   H27932047   3.759   1.414   3.570  0.1713 -0.5150  0.8125
   45MOL   H28032048   3.842   1.465   3.715  1.8065 -0.7287  0.9633
   45MOL   H28132049   3.953   1.265   3.512  0.3541 -1.7514  0.5360
   45MOL   H28232050   4.028   1.313   3.657 -0.3431  1.0130  1.4714
   45MOL   H28332051   3.750   1.185   3.673 -0.8991  0.2662 -0.0318
   45MOL   H28432052   3.889   1.083   3.642  0.8365  1.4677 -1.9056
   45MOL   H28532053   4.094   1.054   4.226 -0.5329 -0.8441  0.3733
   45MOL   H28632054   4.051   0.944   4.100  2.9713 -0.6765 -0.7120
   45MOL   H28732055   4.167   1.074   4.074  1.0228 -0.4329  1.4865
   45MOL   H28832056   3.905   1.290   4.198 -3.1949  1.4865 -0.1572
   45MOL   H28932057   3.888   1.352   4.039 -1.5434 -0.9555  1.4033
   45MOL   C29032058   3.527   0.993   4.919 -0.2412  0.3866 -0.3015
   45MOL   C29132059   3.617   1.031   4.804 -0.5753 -0.0505 -0.0852
   45MOL   C29232060   3.754   1.095   4.847 -0.3473 -0.4905  0.3370
   45MOL   C29332061   3.850   1.133   4.730 -0.3047  0.5932  0.1934
   45MOL   C29432062   3.978   1.201   4.782 -0.4533 -0.6816  0.0779
   45MOL   C29532063   4.094   1.226   4.686 -0.9668  0.0527 -0.0104
   45MOL   C29632064   4.071   1.318   4.566  0.1085 -0.2582  0.6909
   45MOL   C29732065   4.165   1.298   4.449  0.2759 -0.0930  0.3727
   45MOL   O29832066   4.101   1.346   4.331 -0.2892 -0.2284 -0.4684
   45MOL   C29932067   4.174   1.359   4.218  0.2030  0.1691  0.6034
   45MOL   O30032068   4.298   1.352   4.208 -0.1440  0.4668  0.2228
   45MOL   C30132069   4.088   1.393   4.098  1.1075  0.3659  0.0797
   45MOL   C30232070   4.165   1.377   3.966 -0.0888  0.0958 -0.7227
   45MOL   C30332071   4.033   1.538   4.126 -0.0579 -0.7162 -0.0310
   45MOL   H30432072   3.434   0.943   4.890 -0.8023  1.0171  0.3880
   45MOL   H30532073   3.497   1.081   4.976 -0.1993 -0.6857  1.4108
   45MOL   H30632074   3.573   0.923   4.989 -0.2351  1.8821  1.2353
   45MOL   H30732075   3.553   1.099   4.748 -3.5857 -0.9163  2.2034
   45MOL   H30832076   3.648   0.944   4.747 -3.3035 -0.7975 -0.4991
   45MOL   H30932077   3.805   1.020   4.908  0.4845 -0.2673 -0.0780
   45MOL   H31032078   3.733   1.183   4.908  0.8716  1.3976 -1.8969
   45MOL   H31132079   3.878   1.055   4.659  0.7453  0.0206  1.2119
   45MOL   H31232080   3.789   1.198   4.668 -0.8796  1.1248  1.3183
   45MOL   H31332081   3.959   1.301   4.820  1.8265 -0.2395  0.1357
   45MOL   H31432082   4.008   1.152   4.875 -1.3800 -0.2661  0.6009
   45MOL   H31532083   4.121   1.126   4.651  0.2699  0.7294 -1.0086
   45MOL   H31632084   4.176   1.270   4.742  0.1986 -1.7749 -0.2494
   45MOL   H31732085   4.080   1.420   4.603  0.2510  0.3326 -0.9597
   45MOL   H31832086   3.967   1.300   4.538  0.2420 -0.0290  0.0521
   45MOL   H31932087   4.194   1.196   4.426  1.6679  0.3662  0.0350
   45MOL   H32032088   4.258   1.355   4.458  0.9415 -0.8694 -1.3826
   45MOL   H32132089   4.102   1.403   3.881 -0.8695  1.2931  0.2052
   45MOL   H32232090   4.216   1.283   3.945  1.6013  0.5468  1.3058
   45MOL   H32332091   4.245   1.450   3.962  2.1019 -2.1869  0.0802
   45MOL   H32432092   3.935   1.551   4.080 -0.1305  0.5752  0.4524
   45MOL   H32532093   4.001   1.546   4.230 -2.7452  1.2928 -0.9575
   45MOL   C32632094   5.017   1.415   4.879  0.4378 -0.2598  0.2469
   45MOL   C32732095   4.968   1.522   4.785  0.0654 -0.1918 -0.5096
   45MOL   C32832096   4.814   1.509   4.780 -0.3507  0.8699 -0.9227
   45MOL   C32932097   4.760   1.595   4.664 -0.2112 -0.3750 -0.0397
   45MOL   C33032098   4.607   1.591   4.632 -0.0021  0.5209  0.2909
   45MOL   C33132099   4.582   1.646   4.492  0.0193 -0.6467 -0.5001
   45MOL   C33232100   4.434   1.642   4.443  0.8735 -0.3050 -0.4284
   45MOL   C33332101   4.423   1.685   4.298 -0.1865 -0.9033  0.7036
   45MOL   O33432102   4.286   1.678   4.259  0.4561  0.3284 -0.2874
   45MOL   C33532103   4.260   1.674   4.123 -0.2203  0.3917 -0.1356
   45MOL   O33632104   4.347   1.671   4.036 -0.9388  0.2019  0.4503
   45MOL   C33732105   4.109   1.670   4.085 -0.1761 -0.0245 -0.1908
   45MOL   C33832106   4.085   1.675   3.928  1.0808 -0.5223  0.1016
   45MOL   C33932107   4.035   1.792   4.151 -0.8766 -0.1259 -0.1785
   45MOL   H34032108   4.974   1.437   4.977 -0.9810  0.9736 -0.6265
   45MOL   H34132109   5.125   1.417   4.889  0.3105 -2.2626  2.5206
   45MOL   H34232110   4.977   1.317   4.850 -2.3236  1.7360 -3.1915
   45MOL   H34332111   5.014   1.488   4.692 -0.0264 -2.0497  0.0995
   45MOL   H34432112   4.989   1.625   4.811  1.5022 -0.4585 -0.5996
   45MOL   H34532113   4.769   1.545   4.873 -0.0248  0.6670 -0.6884
   45MOL   H34632114   4.789   1.403   4.768  2.5126  0.2548 -1.8138
   45MOL   H34732115   4.817   1.566   4.576  0.9337  1.3466  0.1160
   45MOL   H34832116   4.780   1.701   4.681 -0.0348 -0.5348  0.7688
   45MOL   H34932117   4.580   1.487   4.652  1.3176  0.3738  1.3200
   45MOL   H35032118   4.565   1.648   4.716  2.3068  2.9126 -0.1114
   45MOL   H35132119   4.608   1.752   4.492  0.3092 -0.7181 -0.5483
   45MOL   H35232120   4.650   1.600   4.421  1.8281 -0.8327  1.2949
   45MOL   H35332121   4.366   1.704   4.502  1.1494 -1.4804  1.1714
   45MOL   H35432122   4.396   1.540   4.450  1.3299 -0.6297 -2.3777
   45MOL   H35532123   4.440   1.792   4.288 -1.1414 -0.6183  2.0032
   45MOL   H35632124   4.492   1.630   4.234 -1.3532 -1.2560 -0.2974
   45MOL   H35732125   3.982   1.664   3.895  1.4864  0.6474 -1.6090
   45MOL   H35832126   4.116   1.769   3.882  2.3560 -0.5346  0.9100
   45MOL   H35932127   4.135   1.600   3.866 -2.6347 -1.8630 -1.4559
   45MOL   H36032128   3.933   1.765   4.179 -0.3087 -0.9269  1.2168
   45MOL   H36132129   4.074   1.799   4.253  0.3315 -0.6937 -0.5946
   45MOL   C36232130   3.407   1.052   3.822  0.0786 -0.2343  0.3309
   45MOL   C36332131   3.521   1.152   3.834  0.2122  0.1731  0.3934
   45MOL   C36432132   3.478   1.286   3.893  0.0696  0.4952  0.4842
   45MOL   C36532133   3.587   1.391   3.881  0.0498  0.1688 -0.0732
   45MOL   C36632134   3.549   1.531   3.932  0.3044  0.1053  0.5198
   45MOL   C36732135   3.665   1.628   3.923  0.1018  0.0972 -0.2266
   45MOL   C36832136   3.614   1.766   3.947  1.0985  0.0210  0.2054
   45MOL   C36932137   3.706   1.878   3.903  0.5739 -0.1439 -0.2369
   45MOL   O37032138   3.819   1.869   3.992 -0.4401 -0.2649  0.5277
   45MOL   C37132139   3.929   1.934   3.965 -0.6202 -0.3923 -0.4134
   45MOL   O37232140   3.958   1.997   3.866 -0.0504 -0.3073 -0.3003
   45MOL   C37332141   4.030   1.940   4.084  0.3533 -0.1261  0.3181
   45MOL   C37432142   4.178   1.979   4.050  0.6892  0.3274 -0.2457
   45MOL   C37532143   3.960   2.037   4.196  0.3717 -0.4841  0.5609
   45MOL   H37632144   3.446   0.954   3.796  1.0874  0.2461  0.0375
   45MOL   H37732145   3.351   1.043   3.915 -0.5402  0.3104  0.0187
   45MOL   H37832146   3.331   1.076   3.747  0.5752  2.9476  0.7855
   45MOL   H37932147   3.562   1.162   3.733  0.7357 -2.5643  0.3020
   45MOL   H38032148   3.603   1.103   3.887  1.6789  0.1877 -1.7500
   45MOL   H38132149   3.456   1.265   3.998  2.7572 -0.7316  0.8689
   45MOL   H38232150   3.384   1.327   3.857  0.1987 -1.7406 -2.5653
   45MOL   H38332151   3.620   1.395   3.777 -1.1155  1.5787 -0.3998
   45MOL   H38432152   3.675   1.352   3.933 -0.1303  0.9595  0.8263
   45MOL   H38532153   3.463   1.557   3.870  0.5095  0.2683  0.3056
   45MOL   H38632154   3.506   1.531   4.032 -1.1392  1.2354 -0.0811
   45MOL   H38732155   3.721   1.625   3.829 -1.7177  2.7824 -1.4688
   45MOL   H38832156   3.733   1.603   4.004  0.0094  1.2304  0.2002
   45MOL   H38932157   3.573   1.772   4.048  0.8017 -1.2459  0.1694
   45MOL   H39032158   3.525   1.771   3.884  1.1331 -2.4346 -0.0698
   45MOL   H39132159   3.743   1.863   3.802  2.2721 -1.6750  0.5837
   45MOL   H39232160   3.657   1.974   3.920  0.9015 -0.1929  1.0075
   45MOL   H39332161   4.246   1.999   4.132  1.4378  1.8473 -1.2076
   45MOL   H39432162   4.232   1.907   3.988  0.7174 -1.9303  2.3221
   45MOL   H39532163   4.189   2.057   3.975  0.6568  0.5029 -0.0686
   45MOL   H39632164   3.853   2.019   4.193  0.4753 -0.8211 -1.8672
   45MOL   H39732165   3.987   1.989   4.291 -1.3000 -1.2443  0.6744
   45MOL   C39832166   4.539   2.653   4.620 -0.2855  0.0942 -0.0687
   45MOL   C39932167   4.445   2.690   4.731 -0.5170 -0.6460 -0.2243
   45MOL   C40032168   4.315   2.752   4.683 -0.0897  0.6381  0.0845
   45MOL   C40132169   4.239   2.652   4.593  0.3130 -0.5776  0.3916
   45MOL   C40232170   4.091   2.697   4.579 -0.1915  0.3037  0.3257
   45MOL   C40332171   4.006   2.601   4.488  0.5457 -0.1994 -0.5914
   45MOL   C40432172   3.935   2.481   4.567  0.3326  0.6837 -0.1872
   45MOL   C40532173   3.844   2.402   4.481 -0.4124  0.3016 -0.3998
   45MOL   O40632174   3.919   2.348   4.380 -0.0580 -0.2220 -0.0439
   45MOL   C40732175   3.882   2.236   4.323  0.0321 -0.3379  0.4986
   45MOL   O40832176   3.777   2.178   4.348  0.2064  0.3859 -0.1325
   45MOL   C40932177   3.977   2.194   4.205  0.0952 -0.1445  0.8079
   45MOL   C41032178   4.127   2.218   4.253  0.3254  0.1390 -0.1814
   45MOL   C41132179   3.940   2.260   4.067 -0.0339 -0.0973  0.9885
   45MOL   H41232180   4.548   2.743   4.559  1.3907  1.4275  2.0543
   45MOL   H41332181   4.505   2.568   4.562 -1.8267 -0.2358  1.2795
   45MOL   H41432182   4.640   2.622   4.648 -1.2852 -2.2427  1.0081
   45MOL   H41532183   4.491   2.763   4.798  1.4314 -0.9970 -1.1424
   45MOL   H41632184   4.423   2.597   4.782 -2.0470 -0.1297  0.0793
   45MOL   H41732185   4.255   2.780   4.769  1.6394  2.7819  0.6291
   45MOL   H41832186   4.324   2.854   4.649  1.3375  0.3850 -0.3288
   45MOL   H41932187   4.246   2.553   4.640  0.3508 -0.9488 -0.3900
   45MOL   H42032188   4.287   2.643   4.496  1.7282  3.9289  0.5610
   45MOL   H42132189   4.053   2.708   4.680 -0.4293  2.3351  0.0395
   45MOL   H42232190   4.088   2.797   4.535 -1.3847 -0.4611 -1.3651
   45MOL   H42332191   4.060   2.554   4.406 -1.6959 -1.1106 -1.6068
   45MOL   H42432192   3.934   2.664   4.436  0.6461 -1.2225 -2.0164
   45MOL   H42532193   4.017   2.421   4.607  1.7055  1.3328 -1.9487
   45MOL   H42632194   3.886   2.521   4.655  0.8726 -4.0714  2.4252
   45MOL   H42732195   3.783   2.335   4.541  1.1665 -0.9408 -0.1619
   45MOL   H42832196   3.771   2.471   4.439 -0.1488  0.3864 -0.7207
   45MOL   H42932197   4.201   2.214   4.173 -0.5983 -1.2782 -0.9870
   45MOL   H43032198   4.165   2.151   4.330 -0.4396 -0.2086 -0.0957
   45MOL   H43132199   4.137   2.309   4.312  0.6922  0.7504 -1.1601
   45MOL   H43232200   3.844   2.218   4.037 -0.3482  1.1776  0.1523
   45MOL   H43332201   4.008   2.219   3.992  0.1312  1.2387  0.3904
   45MOL   C43432202   2.869   2.886   3.930  0.1076  0.1501  0.0140
   45MOL   C43532203   2.949   2.901   3.803  0.6491 -0.1774  0.0294
   45MOL   C43632204   3.101   2.890   3.828  0.1025 -0.1994 -0.3658
   45MOL   C43732205   3.152   2.754   3.882  0.2170 -0.0520 -0.5682
   45MOL   C43832206   3.305   2.719   3.878  0.2188  0.3392 -0.2472
   45MOL   C43932207   3.344   2.607   3.974 -0.3040 -0.4526  0.6757
   45MOL   C44032208   3.492   2.571   3.959 -0.5260  0.6299  0.1832
   45MOL   C44132209   3.528   2.447   4.035 -0.0050  0.8449  0.8266
   45MOL   O44232210   3.670   2.413   4.016 -0.4195  0.0598 -0.5977
   45MOL   C44332211   3.774   2.457   4.097 -0.2127  0.4662 -0.0851
   45MOL   O44432212   3.754   2.531   4.193  0.1174  0.3824  0.6387
   45MOL   C44532213   3.917   2.416   4.040  0.0307  0.1464  0.4924
   45MOL   C44632214   3.909   2.425   3.890 -0.6434 -0.4128 -0.5577
   45MOL   C44732215   4.033   2.503   4.094  0.1284  0.0717  0.5120
   45MOL   H44832216   2.762   2.884   3.908  0.0963  0.4597  0.0363
   45MOL   H44932217   2.896   2.967   3.998 -0.0033  0.4086 -0.2485
   45MOL   H45032218   2.891   2.796   3.986  0.0919  0.4842  0.5674
   45MOL   H45132219   2.930   3.003   3.771 -0.1792 -0.3024  0.1127
   45MOL   H45232220   2.927   2.835   3.719 -0.9277  2.2086 -1.4983
   45MOL   H45332221   3.128   2.977   3.889 -2.0812  0.8149 -0.7950
   45MOL   H45432222   3.152   2.918   3.736 -1.5160  0.3448 -1.1263
   45MOL   H45532223   3.103   2.680   3.819 -0.8314 -0.2522  0.4550
   45MOL   H45632224   3.116   2.741   3.984 -0.4969 -1.0520 -0.9433
   45MOL   H45732225   3.327   2.682   3.778  1.5962  0.0936  0.1384
   45MOL   H45832226   3.367   2.806   3.897  1.2052 -0.7399  1.6200
   45MOL   H45932227   3.305   2.512   3.938  0.5268 -0.9713  1.1129
   45MOL   H46032228   3.317   2.616   4.079  1.1389  1.5843  0.9079
   45MOL   H46132229   3.524   2.577   3.855  1.3348 -1.6290  0.5857
   45MOL   H46232230   3.546   2.662   3.987  1.0590  0.1407 -1.1992
   45MOL   H46332231   3.475   2.359   3.996  1.2218  1.2176 -1.8277
   45MOL   H46432232   3.517   2.446   4.143 -0.8650  0.1310  0.7397
   45MOL   H46532233   4.009   2.411   3.850  0.3635  2.6898  0.7652
   45MOL   H46632234   3.839   2.356   3.843 -0.5392 -1.0698  0.2482
   45MOL   H46732235   3.876   2.521   3.850  0.2043 -0.5954 -1.7447
   45MOL   H46832236   4.008   2.516   4.199  0.6483 -0.0965  0.6558
   45MOL   H46932237   4.118   2.435   4.097  0.1136  0.0692  0.8342
   45MOL   C47032238   4.339   1.644   3.651 -0.2756  0.5497 -0.0735
   45MOL   C47132239   4.319   1.788   3.611  0.2163  0.5643  0.3664
   45MOL   C47232240   4.388   1.887   3.707  0.0503 -0.2042 -0.8453
   45MOL   C47332241   4.353   2.038   3.677  0.2450 -0.0903 -0.3201
   45MOL   C47432242   4.407   2.145   3.768 -0.9875 -0.3641  0.1736
   45MOL   C47532243   4.320   2.270   3.759 -0.2507  0.0428  0.8516
   45MOL   C47632244   4.399   2.409   3.762  0.3123 -0.3175  0.5283
   45MOL   C47732245   4.301   2.518   3.764 -0.3495 -0.4046 -1.0130
   45MOL   O47832246   4.237   2.531   3.891 -0.0624  0.3183  0.2418
   45MOL   C47932247   4.144   2.634   3.901  0.4485 -0.1316 -0.0204
   45MOL   O48032248   4.117   2.715   3.813 -0.1502  0.1549 -0.4594
   45MOL   C48132249   4.085   2.652   4.043  0.0975  0.3457 -0.2881
   45MOL   C48232250   3.955   2.742   4.046  0.4010  0.3052 -0.9265
   45MOL   C48332251   4.187   2.691   4.150  0.0823  0.5655  0.1781
   45MOL   H48432252   4.328   1.644   3.759  1.8879  0.3581  0.1643
   45MOL   H48532253   4.437   1.613   3.615 -0.1395 -0.8869  1.4786
   45MOL   H48632254   4.268   1.587   3.590  0.4523  0.9470 -1.3146
   45MOL   H48732255   4.352   1.796   3.507 -0.9906 -0.1100 -0.0771
   45MOL   H48832256   4.212   1.801   3.624 -0.2991 -2.6213 -0.2543
   45MOL   H48932257   4.361   1.866   3.810 -0.2238  2.9946 -0.2116
   45MOL   H49032258   4.496   1.880   3.715 -0.1254 -0.2233  1.9937
   45MOL   H49132259   4.383   2.071   3.577  0.1060 -3.4683 -1.5423
   45MOL   H49232260   4.244   2.035   3.678  0.2560 -1.6831 -1.3560
   45MOL   H49332261   4.413   2.104   3.869  3.0591 -2.5798 -0.8751
   45MOL   H49432262   4.512   2.161   3.743 -0.1571 -1.6183  2.6817
   45MOL   H49532263   4.258   2.280   3.670  0.9360  3.1120  0.3266
   45MOL   H49632264   4.243   2.262   3.836 -0.1798  2.7534  1.2577
   45MOL   H49732265   4.473   2.408   3.842 -1.3518 -0.8653  2.0861
   45MOL   H49832266   4.469   2.434   3.682 -0.9181  2.8522  0.4057
   45MOL   H49932267   4.228   2.487   3.690 -1.1710  0.1069 -0.4196
   45MOL   H50032268   4.338   2.614   3.727 -2.0541  0.3351 -0.8691
   45MOL   H50132269   3.876   2.699   3.984  1.2134 -0.0243 -1.7403
   45MOL   H50232270   3.957   2.845   4.013  0.7562  0.8543  0.7567
   45MOL   H50332271   3.919   2.740   4.149  0.2800  0.0885 -0.9705
   45MOL   H50432272   4.139   2.713   4.245  1.1272  0.3202  0.7722
   45MOL   H50532273   4.245   2.601   4.171 -0.4627  0.1522 -0.0610
   45MOL   C50632274   4.270   3.144   4.987 -0.4509 -0.2703  0.4276
   45MOL   C50732275   4.241   3.265   4.898 -0.6506  0.5951  0.2300
   45MOL   C50832276   4.245   3.224   4.753 -0.8224 -0.6630 -0.1892
   45MOL   C50932277   4.268   3.339   4.658 -0.0401  0.2156  0.0493
   45MOL   C51032278   4.299   3.295   4.515 -0.2186 -1.1113 -0.3592
   45MOL   C51132279   4.179   3.228   4.436 -0.3793 -0.1031  0.0282
   45MOL   C51232280   4.214   3.225   4.284 -0.2073 -1.2692  0.1013
   45MOL   C51332281   4.102   3.143   4.213 -0.0332  0.7277 -0.1066
   45MOL   O51432282   4.149   3.010   4.219  0.5496 -0.2593  0.5979
   45MOL   C51532283   4.202   2.942   4.107  0.1471  0.3870 -0.1552
   45MOL   O51632284   4.180   2.983   3.993  0.4780  0.0846 -0.5071
   45MOL   C51732285   4.283   2.816   4.141 -1.1038 -0.3385 -0.2789
   45MOL   C51832286   4.341   2.827   4.284 -0.2679  0.0541 -0.0009
   45MOL   C51932287   4.388   2.786   4.039 -0.2211 -0.1331 -0.0279
   45MOL   H52032288   4.254   3.051   4.931 -0.3615 -0.4376  0.6776
   45MOL   H52132289   4.205   3.145   5.074  1.1575 -1.5273  1.6819
   45MOL   H52232290   4.374   3.132   5.017 -0.5074 -1.1679  0.2785
   45MOL   H52332291   4.316   3.341   4.921  0.9803 -0.3049 -1.8688
   45MOL   H52432292   4.144   3.305   4.925 -0.6448  0.7542  0.0244
   45MOL   H52532293   4.329   3.158   4.729 -0.5512 -0.1360 -0.7113
   45MOL   H52632294   4.155   3.167   4.729 -0.0183 -2.0318  0.0006
   45MOL   H52732295   4.175   3.396   4.657 -0.5454 -0.5958 -0.1889
   45MOL   H52832296   4.342   3.410   4.694  2.0349 -0.9886 -1.7177
   45MOL   H52932297   4.328   3.376   4.448  0.9617 -0.8934  0.3823
   45MOL   H53032298   4.380   3.222   4.523 -0.3015 -1.3315 -1.5390
   45MOL   H53132299   4.084   3.277   4.457 -1.0565 -1.7728  1.0267
   45MOL   H53232300   4.165   3.127   4.475  1.6024 -1.2179 -2.0486
   45MOL   H53332301   4.309   3.185   4.250 -1.0710 -2.6446 -0.7736
   45MOL   H53432302   4.201   3.326   4.245  2.1521 -0.7530  0.5615
   45MOL   H53532303   4.089   3.172   4.109  0.1322  1.2115  0.0075
   45MOL   H53632304   4.001   3.153   4.252 -0.2023  1.7790 -0.7985
   45MOL   H53732305   4.407   2.745   4.312 -0.6773 -0.8339 -1.6457
   45MOL   H53832306   4.261   2.830   4.359  0.2547 -0.2959  0.5822
   45MOL   H53932307   4.394   2.921   4.299 -2.5436  1.3686  0.1057
   45MOL   H54032308   4.409   2.679   4.038  0.5546  0.0167 -0.6667
   45MOL   H54132309   4.336   2.806   3.945  0.1155  1.5470  0.1455
   45MOL   C54232310   4.474   2.032   4.652  0.3466  0.0513 -0.2031
   45MOL   C54332311   4.441   2.013   4.503  0.3604 -0.0500 -0.4912
   45MOL   C54432312   4.550   2.083   4.416  0.2096 -0.8744 -0.4896
   45MOL   C54532313   4.515   2.105   4.267  0.4262  0.8454  0.4822
   45MOL   C54632314   4.619   2.202   4.197 -0.1388 -0.1687 -0.4737
   45MOL   C54732315   4.585   2.350   4.211 -0.3899  0.3898  0.5365
   45MOL   C54832316   4.707   2.439   4.195 -0.0597 -0.1473 -0.1795
   45MOL   C54932317   4.686   2.582   4.242 -0.0125 -0.0809 -0.3599
   45MOL   O55032318   4.624   2.656   4.140 -0.4340  0.3426  0.1993
   45MOL   C55132319   4.611   2.790   4.163 -0.3691  0.0639  0.1139
   45MOL   O55232320   4.656   2.851   4.259  0.3539  0.3733  0.0705
   45MOL   C55332321   4.529   2.856   4.043 -0.5950 -0.6125 -0.8698
   45MOL   C55432322   4.523   3.011   4.070  0.7390  0.3158 -0.1223
   45MOL   C55532323   4.582   2.820   3.899 -0.2441  0.4020  0.4488
   45MOL   H55632324   4.408   1.970   4.713  1.2954 -1.0938 -0.2972
   45MOL   H55732325   4.453   2.134   4.683  0.4533  0.0667 -0.1806
   45MOL   H55832326   4.578   2.015   4.680  0.4710  1.1780  0.0374
   45MOL   H55932327   4.431   1.909   4.472 -0.0786  0.2354 -1.3088
   45MOL   H56032328   4.343   2.057   4.490  0.4839 -0.2514 -2.2254
   45MOL   H56132329   4.637   2.018   4.428 -0.0668 -1.0927  0.2987
   45MOL   H56232330   4.570   2.182   4.457  4.3245 -2.2943  1.1867
   45MOL   H56332331   4.513   2.016   4.204  1.1210  0.4449  1.0224
   45MOL   H56432332   4.421   2.160   4.259  0.2312  0.1920 -2.2197
   45MOL   H56532333   4.613   2.186   4.090  0.3559 -2.5320 -0.1862
   45MOL   H56632334   4.718   2.166   4.224 -0.2245  1.3903  2.1291
   45MOL   H56732335   4.509   2.384   4.141 -0.3301 -3.2626 -1.3929
   45MOL   H56832336   4.544   2.375   4.309  1.8975  0.2580  1.5683
   45MOL   H56932337   4.775   2.395   4.268 -2.1580 -1.2350  1.1634
   45MOL   H57032338   4.759   2.451   4.100  0.1706  0.9694  0.0755
   45MOL   H57132339   4.783   2.628   4.259  0.4490 -1.3684  0.6360
   45MOL   H57232340   4.630   2.580   4.336  0.3996  0.3849 -0.1068
   45MOL   H57332341   4.439   3.051   4.127  0.8602  2.3317 -1.3075
   45MOL   H57432342   4.513   3.063   3.975  0.0119  2.0154  0.8650
   45MOL   H57532343   4.617   3.039   4.118  0.7210 -0.1077  0.1592
   45MOL   H57632344   4.511   2.853   3.823 -1.2423 -0.2929  1.0699
   45MOL   H57732345   4.576   2.713   3.878  0.8683  0.2413  0.9223
   45MOL   C57832346   4.370   3.837   4.103 -0.1502  0.0566  0.5638
   45MOL   C57932347   4.474   3.792   3.996  0.7132 -0.3710 -0.3448
   45MOL   C58032348   4.444   3.669   3.917  0.0398 -0.6339  0.4239
   45MOL   C58132349   4.559   3.621   3.825  0.1593 -0.1431  0.4197
   45MOL   C58232350   4.565   3.474   3.788  0.1215 -0.1690 -0.0507
   45MOL   C58332351   4.697   3.437   3.725 -0.0442 -0.0470 -0.3437
   45MOL   C58432352   4.712   3.287   3.710 -0.6290 -0.5890 -0.6301
   45MOL   C58532353   4.739   3.220   3.838  1.0274 -0.8753  0.1473
   45MOL   O58632354   4.714   3.083   3.805  0.2807 -0.2659 -0.1185
   45MOL   C58732355   4.766   2.990   3.885  0.5052  0.3089 -0.0987
   45MOL   O58832356   4.837   3.018   3.977  0.2687 -0.2479  0.3565
   45MOL   C58932357   4.724   2.844   3.850 -0.8148  0.4809 -0.9325
   45MOL   C59032358   4.725   2.824   3.696  0.3956  0.3295 -0.2720
   45MOL   C59132359   4.821   2.737   3.916 -0.3150 -0.4104  0.0644
   45MOL   H59232360   4.377   3.779   4.194  0.9129 -0.1677  0.3360
   45MOL   H59332361   4.270   3.838   4.059  0.7981  1.1393 -1.6973
   45MOL   H59432362   4.387   3.942   4.128  0.1095  0.4005 -0.9886
   45MOL   H59532363   4.571   3.786   4.044  0.5251 -1.3517 -0.0810
   45MOL   H59632364   4.492   3.880   3.935  3.4955  0.5032  1.6567
   45MOL   H59732365   4.361   3.676   3.846  0.0888  2.0489  0.5831
   45MOL   H59832366   4.433   3.583   3.984 -0.0159  0.2987  1.6180
   45MOL   H59932367   4.652   3.642   3.877 -0.2497 -0.0124  1.1114
   45MOL   H60032368   4.565   3.683   3.735  1.1246 -1.7136 -0.6134
   45MOL   H60132369   4.478   3.451   3.726 -0.5021  2.7130 -0.3062
   45MOL   H60232370   4.549   3.420   3.881 -0.3171 -2.3687 -1.3503
   45MOL   H60332371   4.776   3.487   3.782 -1.2910  0.0637  1.3194
   45MOL   H60432372   4.697   3.485   3.627  0.0143  1.7413  0.5165
   45MOL   H60532373   4.790   3.272   3.636 -0.6584 -1.3592 -0.5109
   45MOL   H60632374   4.622   3.244   3.666 -0.5432 -0.7362 -0.6624
   45MOL   H60732375   4.845   3.225   3.861  0.1872  1.8885  3.9239
   45MOL   H60832376   4.692   3.258   3.929  1.6506 -0.4238  0.2813
   45MOL   H60932377   4.655   2.893   3.649 -0.5778 -1.1091 -1.0066
   45MOL   H61032378   4.819   2.850   3.648  1.0600 -0.1653  0.7382
   45MOL   H61132379   4.687   2.725   3.671  0.2588 -0.1478  1.6913
   45MOL   H61232380   4.772   2.642   3.935 -0.0613 -1.1407 -2.7643
   45MOL   H61332381   4.838   2.779   4.016  1.4243  1.3875 -0.9400
   45MOL   C61432382   4.838   1.828   4.133  1.0056  0.6733  0.4297
   45MOL   C61532383   4.724   1.835   4.026  0.2504  0.1700  0.0163
   45MOL   C61632384   4.781   1.835   3.881 -0.3441 -0.4001 -0.4991
   45MOL   C61732385   4.855   1.960   3.834 -0.1904 -0.7082  0.3944
   45MOL   C61832386   4.765   2.074   3.809  0.2556  0.1151  0.2339
   45MOL   C61932387   4.843   2.206   3.782  0.2374 -0.7297 -0.3925
   45MOL   C62032388   4.749   2.310   3.718 -0.6987  0.0630  0.3810
   45MOL   C62132389   4.828   2.428   3.652 -0.1060 -0.1059 -0.0458
   45MOL   O62232390   4.871   2.508   3.756  0.4661 -0.3831 -0.0880
   45MOL   C62332391   4.939   2.617   3.731 -0.6145  0.0287 -1.0614
   45MOL   O62432392   4.979   2.655   3.622 -0.0715 -0.3387 -0.4949
   45MOL   C62532393   4.961   2.695   3.869  0.6058 -0.0430  0.3959
   45MOL   C62632394   5.051   2.809   3.851  0.5773  0.3133 -0.2411
   45MOL   C62732395   5.020   2.592   3.975 -0.4417  0.2289 -0.5445
   45MOL   H62832396   4.796   1.849   4.231 -3.0292 -1.7593 -0.6667
   45MOL   H62932397   4.902   1.913   4.111  0.3692  1.2895  0.9252
   45MOL   H63032398   4.899   1.738   4.134 -0.6279 -0.5158 -1.1192
   45MOL   H63132399   4.663   1.749   4.055  2.6943 -1.4986  0.4730
   45MOL   H63232400   4.658   1.917   4.051 -0.0553 -0.5725  1.7188
   45MOL   H63332401   4.696   1.828   3.813 -1.3608 -1.0956  0.8011
   45MOL   H63432402   4.824   1.738   3.857  0.1011 -0.4448  0.4625
   45MOL   H63532403   4.899   1.941   3.736  0.6241  1.0217  0.4091
   45MOL   H63632404   4.936   1.982   3.904  0.6398  2.2790 -1.3909
   45MOL   H63732405   4.695   2.047   3.730  1.2610  1.7453 -1.2487
   45MOL   H63832406   4.713   2.085   3.904 -2.1126 -0.8338 -0.9310
   45MOL   H63932407   4.874   2.251   3.876 -0.2413  1.7632 -1.3814
   45MOL   H64032408   4.930   2.201   3.717 -1.3311 -0.5814 -2.5377
   45MOL   H64132409   4.678   2.358   3.785 -0.0733  1.4966  0.0503
   45MOL   H64232410   4.695   2.264   3.635 -0.7872  0.7043  0.0813
   45MOL   H64332411   4.910   2.410   3.582  0.3632  0.4228  0.3581
   45MOL   H64432412   4.748   2.482   3.600  0.3193 -1.0371 -1.6969
   45MOL   H64532413   4.996   2.891   3.806 -0.5910 -0.4909 -0.2939
   45MOL   H64632414   5.145   2.805   3.797  2.2553  0.3285  2.5849
   45MOL   H64732415   5.088   2.840   3.949  2.7498 -0.1226 -0.9083
   45MOL   H64832416   4.946   2.514   3.992 -2.1770  1.9381 -0.0748
   45MOL   H64932417   5.009   2.653   4.065  0.6163  0.9272 -0.8743
   45MOL   C65032418   4.716   3.419   4.362 -0.0472 -0.3376 -0.3347
   45MOL   C65132419   4.772   3.278   4.368 -0.3200  0.3343  0.1744
   45MOL   C65232420   4.907   3.260   4.298 -0.5644 -0.2923  0.0284
   45MOL   C65332421   4.958   3.115   4.302 -0.2826 -0.0044 -0.2512
   45MOL   C65432422   5.094   3.082   4.231 -0.0852  0.4090 -0.1673
   45MOL   C65532423   5.137   2.934   4.250 -0.3890 -0.0033 -0.4199
   45MOL   C65632424   5.275   2.904   4.181  0.0335 -1.2093  0.1548
   45MOL   C65732425   5.332   2.765   4.211  0.0682  0.0919 -0.3669
   45MOL   O65832426   5.255   2.665   4.154  0.4067 -0.1212  0.2278
   45MOL   C65932427   5.270   2.629   4.023  0.2845 -0.0584  0.4771
   45MOL   O66032428   5.361   2.673   3.957  0.3840  0.1180  0.1513
   45MOL   C66132429   5.167   2.531   3.969  0.1137  0.7150 -0.0441
   45MOL   C66232430   5.206   2.493   3.818  0.4064  0.6634  0.5188
   45MOL   C66332431   5.161   2.404   4.057 -0.2028  0.5017  0.5063
   45MOL   H66432432   4.790   3.487   4.403  0.6061 -0.8878 -0.6031
   45MOL   H66532433   4.620   3.443   4.408  0.3696  0.1869  0.2683
   45MOL   H66632434   4.710   3.451   4.258 -0.0866  0.5062 -0.0818
   45MOL   H66732435   4.690   3.215   4.335 -0.1075 -1.6928  3.2535
   45MOL   H66832436   4.786   3.230   4.465  1.9040  0.4902 -0.0444
   45MOL   H66932437   4.981   3.323   4.348  2.0165 -2.2547 -1.2055
   45MOL   H67032438   4.899   3.295   4.195 -1.3663  0.8654  0.4663
   45MOL   H67132439   4.877   3.055   4.262  0.1358 -0.6431 -0.1441
   45MOL   H67232440   4.961   3.083   4.406 -1.6407 -0.2877 -0.2903
   45MOL   H67332441   5.168   3.148   4.275 -1.0137  1.9422 -0.8762
   45MOL   H67432442   5.084   3.109   4.126  1.0460 -1.1440 -0.7020
   45MOL   H67532443   5.138   2.910   4.356 -1.6777  0.5718 -0.2721
   45MOL   H67632444   5.062   2.866   4.210  0.6485 -1.5141  0.1480
   45MOL   H67732445   5.351   2.975   4.214 -1.9018  1.3014 -0.6514
   45MOL   H67832446   5.262   2.927   4.076 -1.5866 -1.4279  0.2906
   45MOL   H67932447   5.334   2.745   4.318 -0.4310  0.8429 -0.2132
   45MOL   H68032448   5.433   2.765   4.170 -0.2185  1.6020 -1.1070
   45MOL   H68132449   5.213   2.581   3.755  0.4860 -0.0859 -0.5405
   45MOL   H68232450   5.139   2.420   3.772 -1.3548  0.2167  3.6984
   45MOL   H68332451   5.307   2.457   3.799  0.0763 -0.0836  0.1512
   45MOL   H68432452   5.145   2.437   4.159 -0.6324  3.0955 -0.3789
   45MOL   H68532453   5.071   2.352   4.023  0.1340  1.7556 -2.4695
   45MOL   C68632454   5.599   3.013   4.715 -0.3390 -0.3646 -0.0607
   45MOL   C68732455   5.564   2.947   4.582 -0.7948 -0.0767 -0.3051
   45MOL   C68832456   5.660   2.824   4.551 -0.2079  0.4445 -1.0568
   45MOL   C68932457   5.623   2.768   4.418  0.0724  0.1277 -0.0483
   45MOL   C69032458   5.710   2.658   4.348  0.2336 -0.2821 -0.7527
   45MOL   C69132459   5.659   2.619   4.201  0.2946  0.5998 -0.0854
   45MOL   C69232460   5.724   2.493   4.140 -1.0554 -0.7327 -0.6110
   45MOL   C69332461   5.626   2.435   4.039  0.3824  0.3299  0.4428
   45MOL   O69432462   5.493   2.391   4.093 -0.0480 -0.0400 -0.0234
   45MOL   C69532463   5.417   2.313   4.014  0.0245 -0.3756 -0.3923
   45MOL   O69632464   5.456   2.263   3.905  0.6019  0.4351 -0.6657
   45MOL   C69732465   5.274   2.289   4.070 -0.7895 -0.0684 -0.4784
   45MOL   C69832466   5.215   2.168   4.000  0.7478  0.0477 -0.3781
   45MOL   C69932467   5.292   2.240   4.213  0.2503 -0.3441  0.0961
   45MOL   H70032468   5.515   3.080   4.732 -0.3121 -0.2775 -0.2702
   45MOL   H70132469   5.695   3.062   4.724 -1.3661  1.5449  0.8536
   45MOL   H70232470   5.597   2.925   4.779 -0.1569 -2.2980 -2.6508
   45MOL   H70332471   5.580   3.016   4.499 -0.9173  1.8423  1.2311
   45MOL   H70432472   5.462   2.912   4.567 -0.2686 -1.6562 -0.2864
   45MOL   H70532473   5.653   2.748   4.630 -3.6332  1.1377 -0.6401
   45MOL   H70632474   5.757   2.873   4.547 -0.8447  1.9683  0.9847
   45MOL   H70732475   5.618   2.854   4.351  0.9642  1.8941  2.1196
   45MOL   H70832476   5.522   2.726   4.423 -0.1680  0.1537 -3.4835
   45MOL   H70932477   5.725   2.568   4.407  2.0548  1.0267  0.8787
   45MOL   H71032478   5.817   2.681   4.343  0.0602  0.1830 -2.6098
   45MOL   H71132479   5.551   2.611   4.189  0.3783  1.2217 -1.2462
   45MOL   H71232480   5.676   2.701   4.132 -1.6246  0.3896 -0.8333
   45MOL   H71332481   5.811   2.517   4.080 -1.1899  0.3190 -0.3882
   45MOL   H71432482   5.750   2.425   4.221  1.6873 -0.1615 -0.9693
   45MOL   H71532483   5.669   2.345   3.996 -0.3013 -0.9879  2.4684
   45MOL   H71632484   5.626   2.500   3.952  1.6908 -0.6983 -0.3334
   45MOL   H71732485   5.282   2.084   4.015  0.0543 -0.9653 -2.6526
   45MOL   H71832486   5.124   2.130   4.047 -0.7848  0.6703 -2.7242
   45MOL   H71932487   5.208   2.176   3.891 -0.7084 -0.6676 -0.3427
   45MOL   H72032488   5.316   2.327   4.274  2.0086  0.8284 -2.2011
   45MOL   H72132489   5.364   2.158   4.219 -1.0444 -1.5392 -0.3502
   45MOL   H72232490   5.191   2.220   4.250  0.2371  1.7479  1.2609
   46MOL     C132491   7.694   0.532   3.781 -0.4014  0.3179  0.3175
   46MOL     C232492   0.016   0.426   3.748 -0.2542 -0.4779 -0.0394
   46MOL     C332493   0.155   0.472   3.756  0.1136 -0.1881 -0.0030
   46MOL     C432494   0.257   0.369   3.690  0.0436  0.0214 -0.7478
   46MOL     C532495   0.403   0.418   3.727 -0.1330  0.2682 -0.0646
   46MOL     C632496   0.513   0.352   3.657 -0.1943  0.4785  0.7287
   46MOL     C732497   0.648   0.397   3.707 -0.0285  0.2350 -0.9041
   46MOL     C832498   0.759   0.359   3.611  0.3141  0.8783 -0.3094
   46MOL     O932499   0.747   0.441   3.507 -0.5942 -0.5829  0.0445
   46MOL    C1032500   0.801   0.412   3.387 -0.2704  0.2500 -0.6548
   46MOL    O1132501   0.869   0.321   3.347  0.1376 -0.5286 -0.5923
   46MOL    C1232502   0.768   0.526   3.288  0.0445  0.6645 -0.4040
   46MOL    C1332503   0.613   0.543   3.274 -0.6101  0.1157  0.0931
   46MOL    C1432504   0.839   0.666   3.333  0.4228  0.2050 -1.0016
   46MOL    H1532505   7.589   0.509   3.764 -0.5826  1.4051 -0.0995
   46MOL    H1632506   7.702   0.626   3.725 -2.5768 -0.1856 -0.9093
   46MOL    H1732507   7.704   0.559   3.886 -2.9206  0.9913  0.4333
   46MOL    H1832508   7.774   0.396   3.646 -2.9264  0.6349  0.1758
   46MOL    H1932509   7.769   0.342   3.813 -1.2456  0.4837  0.8141
   46MOL    H2032510   0.167   0.572   3.715 -1.1190 -0.3628 -0.8241
   46MOL    H2132511   0.177   0.489   3.861 -0.5752  0.8939 -0.0361
   46MOL    H2232512   0.231   0.271   3.731  0.4903 -0.7740 -2.2963
   46MOL    H2332513   0.234   0.358   3.584  0.0661  0.8664 -0.8443
   46MOL    H2432514   0.422   0.419   3.834 -0.3885 -0.6387 -0.0110
   46MOL    H2532515   0.414   0.520   3.689  2.2350  1.3192  3.1698
   46MOL    H2632516   0.514   0.376   3.550  1.3898 -1.7412  0.2205
   46MOL    H2732517   0.512   0.244   3.674  2.6291  0.5425  1.4387
   46MOL    H2832518   0.672   0.351   3.802  0.3959  0.1485 -1.0552
   46MOL    H2932519   0.658   0.501   3.738  1.0394 -0.3315  0.6718
   46MOL    H3032520   0.738   0.257   3.576 -1.1674  0.0952  2.7561
   46MOL    H3132521   0.863   0.365   3.643  0.1409 -1.6614  0.8498
   46MOL    H3232522   0.571   0.583   3.366  2.3276  2.0621  0.6554
   46MOL    H3332523   0.587   0.609   3.191 -0.7922 -1.0371 -0.7874
   46MOL    H3432524   0.563   0.446   3.272 -2.8896  1.2247  1.7956
   46MOL    H3532525   0.875   0.658   3.436 -0.0543 -0.8370 -0.9128
   46MOL    H3632526   0.760   0.740   3.343  1.0270  0.8063 -0.5921
   46MOL    H3732527   0.807   0.504   3.189 -0.8891  0.9729 -0.8515
   46MOL    C3832528   1.324   0.945   2.056  0.0924  0.2107  0.4105
   46MOL    C3932529   1.200   0.940   2.155  0.0061 -0.0064 -0.5125
   46MOL    C4032530   1.250   0.915   2.301  0.2294 -1.0182 -0.3479
   46MOL    C4132531   1.139   0.891   2.397 -0.0507 -0.5921  0.3673
   46MOL    C4232532   1.190   0.879   2.538 -0.6881 -0.2557  0.5274
   46MOL    C4332533   1.075   0.824   2.635 -0.8058 -0.2408 -0.3449
   46MOL    C4432534   1.113   0.814   2.785 -0.1316  0.6964 -0.3863
   46MOL    C4532535   0.998   0.764   2.879  0.2108  0.4463  0.2102
   46MOL    O4632536   1.031   0.742   3.011  0.1653 -0.2527  0.4029
   46MOL    C4732537   0.927   0.750   3.097  1.1961 -0.0894 -0.7656
   46MOL    O4832538   0.813   0.776   3.070 -0.5127 -0.6119 -0.4563
   46MOL    C4932539   0.964   0.706   3.244 -0.1224  0.5184 -0.2694
   46MOL    C5032540   1.064   0.586   3.242 -0.2485 -0.8042  0.2713
   46MOL    C5132541   1.050   0.816   3.316 -1.1959  0.0358  0.1036
   46MOL    H5232542   1.371   0.847   2.049 -0.1719  0.1623 -0.8569
   46MOL    H5332543   1.394   1.016   2.099  1.1613  0.2479 -1.3129
   46MOL    H5432544   1.284   0.981   1.961  1.3686  3.0043  0.8825
   46MOL    H5532545   1.120   0.867   2.142  1.9497 -2.1577 -0.6493
   46MOL    H5632546   1.145   1.031   2.132 -0.0903  0.0122 -0.1984
   46MOL    H5732547   1.322   0.834   2.310  1.0494 -0.2493  0.0234
   46MOL    H5832548   1.303   1.009   2.315  1.8853 -1.9102 -0.5392
   46MOL    H5932549   1.079   0.801   2.380 -0.8202  0.3175 -1.8530
   46MOL    H6032550   1.068   0.974   2.396  1.5178  0.7580 -1.4952
   46MOL    H6132551   1.273   0.811   2.557 -0.7826 -0.0212  1.8415
   46MOL    H6232552   1.228   0.974   2.576  0.0788  0.1956 -1.3150
   46MOL    H6332553   0.989   0.892   2.628 -1.2671 -0.8899 -1.0730
   46MOL    H6432554   1.047   0.724   2.603  0.9777 -0.9357  0.2537
   46MOL    H6532555   1.157   0.903   2.828 -0.0102  1.1618 -1.4510
   46MOL    H6632556   1.193   0.740   2.790  0.0129  0.7783 -1.3580
   46MOL    H6732557   0.971   0.669   2.833  0.3142  0.2188  0.6228
   46MOL    H6832558   0.913   0.831   2.866 -0.1108  0.1028  0.5467
   46MOL    H6932559   1.154   0.606   3.184 -0.2481 -0.6468  0.3256
   46MOL    H7032560   1.114   0.565   3.337 -0.9943 -1.7343  0.4644
   46MOL    H7132561   1.031   0.489   3.205 -0.3115 -0.3523 -0.8641
   46MOL    H7232562   1.151   0.810   3.277 -1.8535 -0.4150 -1.5829
   46MOL    H7332563   1.057   0.778   3.418 -0.3672  0.3539  0.1638
   46MOL    C7432564   1.201   1.314   2.364 -0.0959 -0.2705  0.3878
   46MOL    C7532565   1.123   1.301   2.489  0.2171  0.9927  0.1698
   46MOL    C7632566   1.193   1.339   2.615 -0.6418 -0.1760 -0.2607
   46MOL    C7732567   1.103   1.338   2.745 -1.1488 -0.7508 -0.2990
   46MOL    C7832568   1.065   1.187   2.781  0.1609  0.1447 -0.0593
   46MOL    C7932569   0.963   1.163   2.892  0.9059  0.1853 -0.1059
   46MOL    C8032570   0.972   1.277   2.997  0.5606  0.1204  0.9167
   46MOL    C8132571   1.089   1.267   3.095  0.6096 -0.8636  0.0368
   46MOL    O8232572   1.060   1.182   3.212 -0.2336  0.4030  0.4038
   46MOL    C8332573   1.081   1.047   3.202 -0.7004  0.0495  0.1342
   46MOL    O8432574   1.153   0.996   3.110  0.3963  0.7435  0.4005
   46MOL    C8532575   1.024   0.968   3.325  0.0665  0.6080  0.3012
   46MOL    C8632576   0.876   0.997   3.336  0.4476 -0.0697  0.1851
   46MOL    C8732577   1.093   1.026   3.453  0.0375  0.1902 -0.5025
   46MOL    H8832578   1.144   1.299   2.272  3.6252  1.7885 -2.3835
   46MOL    H8932579   1.287   1.248   2.365  0.5243  0.5277  0.5514
   46MOL    H9032580   1.232   1.418   2.351 -1.7201  0.4262  1.8585
   46MOL    H9132581   1.088   1.197   2.491  1.2261  0.6457  0.0793
   46MOL    H9232582   1.036   1.366   2.488 -0.7141 -0.2128 -2.0007
   46MOL    H9332583   1.288   1.288   2.625 -0.4537  0.7461  3.7793
   46MOL    H9432584   1.237   1.438   2.601  2.6705 -1.4046  0.9345
   46MOL    H9532585   1.020   1.405   2.721 -0.9111  0.4570  2.1875
   46MOL    H9632586   1.155   1.377   2.832  0.6295  1.5130 -2.3039
   46MOL    H9732587   1.026   1.141   2.690 -0.4015 -1.6303  1.0715
   46MOL    H9832588   1.152   1.126   2.807  0.1297 -0.4767 -1.3695
   46MOL    H9932589   0.861   1.179   2.857  0.9552 -0.5976 -0.6337
   46MOL   H10032590   0.970   1.064   2.938 -3.5174  0.4378  1.3039
   46MOL   H10132591   0.988   1.378   2.959 -0.0541  0.5415  1.7763
   46MOL   H10232592   0.882   1.280   3.057  0.7707  1.3908  1.1944
   46MOL   H10332593   1.123   1.365   3.129 -0.3232 -0.8698  1.0215
   46MOL   H10432594   1.173   1.229   3.037 -0.5056 -0.8931 -1.5893
   46MOL   H10532595   0.821   0.990   3.242  0.2728  0.4310  0.2512
   46MOL   H10632596   0.854   1.096   3.376 -0.6434 -0.3955  0.4245
   46MOL   H10732597   0.827   0.940   3.415 -1.4250 -1.1743 -1.7127
   46MOL   H10832598   1.077   1.133   3.436  0.6518  0.1605 -1.3352
   46MOL   H10932599   1.026   1.004   3.536  2.5438 -0.4296  1.4322
   46MOL   C11032600   1.596   0.998   2.407 -0.1863 -0.1909 -0.3342
   46MOL   C11132601   1.659   0.972   2.544  0.3183 -1.2325 -0.5884
   46MOL   C11232602   1.550   0.952   2.656 -0.4365 -0.4356 -1.1989
   46MOL   C11332603   1.615   0.883   2.775  0.3175  0.5280 -0.0687
   46MOL   C11432604   1.519   0.856   2.897 -0.4495 -0.3642  0.6494
   46MOL   C11532605   1.596   0.810   3.027 -0.6530 -0.0109 -0.2397
   46MOL   C11632606   1.494   0.797   3.146 -0.2693  0.2935 -0.2039
   46MOL   C11732607   1.479   0.929   3.210  0.8820  0.6890  1.0181
   46MOL   O11832608   1.393   0.922   3.326  0.0989 -0.1330 -0.0908
   46MOL   C11932609   1.336   1.033   3.373 -0.1113 -0.7682  0.2626
   46MOL   O12032610   1.350   1.147   3.319  0.2717 -0.1614  0.2107
   46MOL   C12132611   1.243   1.015   3.499  0.2233 -0.2836  0.3314
   46MOL   C12232612   1.273   0.883   3.573  0.5740 -0.0424  0.5900
   46MOL   C12332613   1.259   1.147   3.594 -0.0252  0.6914 -0.5004
   46MOL   H12432614   1.666   0.991   2.323  1.3253  2.3002  0.6702
   46MOL   H12532615   1.518   0.932   2.371 -0.7804  1.7463 -2.7352
   46MOL   H12632616   1.556   1.097   2.387  0.3988  0.5466  1.9942
   46MOL   H12732617   1.731   1.053   2.559 -0.1037 -0.7831 -1.0073
   46MOL   H12832618   1.712   0.878   2.526  0.8555 -0.7076 -1.7868
   46MOL   H12932619   1.467   0.891   2.620 -1.9093  0.4657  0.5426
   46MOL   H13032620   1.504   1.046   2.688 -0.2580 -0.7435 -0.0234
   46MOL   H13132621   1.639   0.779   2.753 -0.7653  0.1533  0.4709
   46MOL   H13232622   1.706   0.927   2.816 -0.5095  0.9203  1.3969
   46MOL   H13332623   1.455   0.775   2.862 -0.6863  0.3769 -0.6850
   46MOL   H13432624   1.456   0.945   2.908 -1.1354 -1.1337  3.3808
   46MOL   H13532625   1.645   0.713   3.022 -0.2699  0.1323  0.7310
   46MOL   H13632626   1.679   0.878   3.048 -1.8218  1.1242  0.7635
   46MOL   H13732627   1.528   0.723   3.218 -0.9804  1.8329  1.7751
   46MOL   H13832628   1.395   0.757   3.121 -0.3151 -0.4100  1.0455
   46MOL   H13932629   1.571   0.982   3.233  1.0028  1.4918 -1.2052
   46MOL   H14032630   1.432   0.996   3.137  0.8816  0.3973  0.7489
   46MOL   H14132631   1.379   0.880   3.597  1.1854 -0.6186 -2.0141
   46MOL   H14232632   1.206   0.874   3.658 -2.8161  0.7878 -1.8373
   46MOL   H14332633   1.241   0.804   3.504 -0.7488  2.2561 -1.5187
   46MOL   H14432634   1.170   1.149   3.658 -1.3331 -2.4973 -2.0921
   46MOL   H14532635   1.241   1.232   3.529  0.7641  1.7225  0.6123
   46MOL   C14632636   0.973   0.985   4.611 -0.5910 -0.3242 -0.1562
   46MOL   C14732637   0.976   0.895   4.495  0.2392  0.1610 -0.0605
   46MOL   C14832638   0.973   0.970   4.353 -0.2951  0.8847  0.3574
   46MOL   C14932639   0.954   0.866   4.245  0.1691  0.0633 -0.7825
   46MOL   C15032640   0.961   0.921   4.101  0.0792 -0.1681 -0.2214
   46MOL   C15132641   1.084   0.995   4.046 -0.3829 -0.2391  0.5923
   46MOL   C15232642   1.180   0.890   3.998  0.6756 -0.2810 -0.4219
   46MOL   C15332643   1.312   0.944   3.964  0.1278 -0.3614 -0.4436
   46MOL   O15432644   1.305   1.028   3.852  0.0388 -0.0605  0.1388
   46MOL   C15532645   1.409   1.068   3.789 -0.0127 -0.0283  0.6835
   46MOL   O15632646   1.528   1.039   3.827 -0.6294 -0.2950  0.6340
   46MOL   C15732647   1.384   1.175   3.678  0.5908 -0.2842 -0.5036
   46MOL   C15832648   1.514   1.182   3.590 -0.3422 -0.1856  0.3470
   46MOL   C15932649   1.392   1.313   3.750  0.0840 -0.2657  0.2011
   46MOL   H16032650   0.877   1.036   4.616 -1.2410 -1.4972 -0.4917
   46MOL   H16132651   1.043   1.069   4.606 -0.5623 -0.3419 -0.0658
   46MOL   H16232652   0.990   0.930   4.704 -0.1805 -2.0206 -1.2256
   46MOL   H16332653   1.058   0.823   4.490 -0.6223 -0.8811  0.4380
   46MOL   H16432654   0.888   0.832   4.510 -1.0808  1.9567 -0.0780
   46MOL   H16532655   1.064   1.029   4.338  0.7057 -0.9060 -0.7696
   46MOL   H16632656   0.899   1.049   4.342 -0.9869  0.4764  2.0166
   46MOL   H16732657   1.031   0.790   4.258 -0.3290 -0.3700 -0.2941
   46MOL   H16832658   0.864   0.807   4.265  0.1435  0.0534 -0.9322
   46MOL   H16932659   0.876   0.989   4.094 -1.3295 -1.8946 -0.4395
   46MOL   H17032660   0.931   0.837   4.039 -1.1128  0.6738 -0.8150
   46MOL   H17132661   1.138   1.054   4.120  0.1556 -1.2782  1.0461
   46MOL   H17232662   1.067   1.058   3.958  0.7941  0.0645  0.5688
   46MOL   H17332663   1.199   0.825   4.083  1.0353  2.3781  1.5958
   46MOL   H17432664   1.137   0.831   3.917 -1.4564  1.1383 -0.3457
   46MOL   H17532665   1.347   0.998   4.052 -0.7886 -2.0046  0.9547
   46MOL   H17632666   1.386   0.866   3.947  0.4362  0.2362 -1.9244
   46MOL   H17732667   1.502   1.267   3.522  2.1465  0.8879  1.1579
   46MOL   H17832668   1.523   1.083   3.545 -0.9676 -0.7589  1.4744
   46MOL   H17932669   1.608   1.185   3.645  0.2285  0.0979 -0.6381
   46MOL   H18032670   1.389   1.372   3.658 -1.1367  1.5011  1.3386
   46MOL   H18132671   1.491   1.329   3.793  1.0561 -2.6959 -1.0418
   46MOL   C18232672   0.637   2.108   3.423 -0.0958  0.3622  0.4370
   46MOL   C18332673   0.575   2.014   3.534  0.0136  0.2880 -0.1325
   46MOL   C18432674   0.671   1.897   3.576 -0.1250  0.4623  0.1429
   46MOL   C18532675   0.627   1.809   3.697  0.7693  0.4859  0.1443
   46MOL   C18632676   0.737   1.728   3.766 -0.2626 -0.0958  0.1855
   46MOL   C18732677   0.787   1.608   3.688 -0.7731 -0.4080  0.5196
   46MOL   C18832678   0.927   1.572   3.735 -0.5066 -0.0676  0.3127
   46MOL   C18932679   0.982   1.449   3.658  0.2797  0.1455 -0.1681
   46MOL   O19032680   1.121   1.442   3.692  0.3967  0.3798 -0.4765
   46MOL   C19132681   1.150   1.357   3.791  0.4333  0.4003 -0.3406
   46MOL   O19232682   1.076   1.269   3.837 -0.0843  0.4719  0.3974
   46MOL   C19332683   1.296   1.382   3.848 -1.0646  0.0138  1.1992
   46MOL   C19432684   1.334   1.536   3.840 -0.6095  0.3518  0.7837
   46MOL   C19532685   1.314   1.328   3.996  0.5976  0.7848  0.5068
   46MOL   H19632686   0.741   2.139   3.439  0.6855 -2.4051  1.0273
   46MOL   H19732687   0.629   2.058   3.326  1.1185  1.2528 -0.1322
   46MOL   H19832688   0.576   2.196   3.405 -1.2447 -0.1561  1.7620
   46MOL   H19932689   0.476   1.972   3.511 -0.3019 -0.0183  1.7157
   46MOL   H20032690   0.556   2.071   3.625 -1.9143  0.6804 -0.7418
   46MOL   H20132691   0.677   1.837   3.485 -0.2402  1.8819 -0.8230
   46MOL   H20232692   0.773   1.934   3.590  0.0073 -0.4129  1.4852
   46MOL   H20332693   0.579   1.881   3.764 -1.1916  0.0618 -0.7624
   46MOL   H20432694   0.544   1.746   3.664 -0.1048 -0.4853  3.8780
   46MOL   H20532695   0.708   1.703   3.868 -0.9356 -0.0736  0.0002
   46MOL   H20632696   0.813   1.806   3.771 -0.1442  0.0334 -2.8083
   46MOL   H20732697   0.799   1.638   3.584 -0.7280 -1.6178  0.1669
   46MOL   H20832698   0.716   1.526   3.683 -2.9003  1.3555  0.7264
   46MOL   H20932699   1.003   1.650   3.721  0.2753 -1.1967 -2.1126
   46MOL   H21032700   0.931   1.553   3.842 -1.6910 -0.1674  0.3452
   46MOL   H21132701   0.974   1.468   3.551  1.8435  1.5050 -0.0711
   46MOL   H21232702   0.919   1.362   3.673  1.8599 -0.5953  2.6514
   46MOL   H21332703   1.434   1.562   3.874  0.9228 -2.4748 -1.3753
   46MOL   H21432704   1.347   1.560   3.735  1.9166 -1.0262  0.7480
   46MOL   H21532705   1.261   1.606   3.881 -0.2288  0.9550  0.4378
   46MOL   H21632706   1.272   1.228   3.990 -1.6075  1.6590  1.1984
   46MOL   H21732707   1.417   1.310   4.027 -0.0645 -3.1787  0.6953
   46MOL   C21832708   1.826   1.546   4.634 -0.8139 -0.0438  0.0952
   46MOL   C21932709   1.867   1.404   4.679  0.1529 -0.5796  0.6254
   46MOL   C22032710   1.765   1.298   4.658  0.0898  0.1048 -0.1355
   46MOL   C22132711   1.765   1.236   4.522 -0.7574  0.2766  0.9313
   46MOL   C22232712   1.658   1.132   4.496  0.3816 -0.2585 -0.2730
   46MOL   C22332713   1.627   1.117   4.340  0.1978 -0.2763  0.3573
   46MOL   C22432714   1.490   1.043   4.305  0.6375 -0.2281  0.9682
   46MOL   C22532715   1.363   1.116   4.339 -0.1548 -0.1522 -0.1965
   46MOL   O22632716   1.345   1.220   4.250 -0.1744  0.8428 -0.1401
   46MOL   C22732717   1.236   1.291   4.248  0.0918 -1.1452  0.3470
   46MOL   O22832718   1.146   1.279   4.318 -0.1055  0.3419  0.0790
   46MOL   C22932719   1.246   1.394   4.132 -0.6798 -0.6389  0.5904
   46MOL   C23032720   1.106   1.457   4.099  0.1401  0.0386 -0.2238
   46MOL   C23132721   1.349   1.508   4.173 -0.0356  0.5245  0.0876
   46MOL   H23232722   1.907   1.618   4.649 -1.7847  0.8080  1.4713
   46MOL   H23332723   1.736   1.574   4.689  0.3253  1.1870  1.3861
   46MOL   H23432724   1.806   1.537   4.527 -1.5163  1.3868  0.0877
   46MOL   H23532725   1.892   1.412   4.785 -0.3204  0.0046  0.6923
   46MOL   H23632726   1.962   1.369   4.638 -0.4531 -1.4084 -0.0921
   46MOL   H23732727   1.786   1.222   4.733  0.8866 -1.0113 -1.4638
   46MOL   H23832728   1.671   1.345   4.687  0.8497  1.0937  0.7942
   46MOL   H23932729   1.733   1.312   4.450  2.3361  1.5924  0.8665
   46MOL   H24032730   1.864   1.204   4.490 -1.2317  0.3257 -0.6068
   46MOL   H24132731   1.684   1.035   4.540  3.4743  0.3011 -0.6982
   46MOL   H24232732   1.566   1.172   4.537  0.8572  1.4966 -0.8995
   46MOL   H24332733   1.628   1.210   4.283  0.8485 -0.5021 -0.0143
   46MOL   H24432734   1.708   1.071   4.282  0.7676  0.7480  0.3374
   46MOL   H24532735   1.482   0.943   4.347  0.0411  0.1606  1.7968
   46MOL   H24632736   1.490   1.024   4.197  2.3795  2.2462  0.4847
   46MOL   H24732737   1.349   1.148   4.442 -1.4359  0.4828 -0.5681
   46MOL   H24832738   1.274   1.054   4.327 -0.2423 -0.1952  0.6736
   46MOL   H24932739   1.051   1.481   4.190  1.4929 -1.6184  1.0693
   46MOL   H25032740   1.043   1.385   4.046  0.8065  0.2112 -1.2572
   46MOL   H25132741   1.115   1.551   4.045  1.6830 -0.0740 -0.1663
   46MOL   H25232742   1.444   1.456   4.189 -0.3784  0.2192  1.1509
   46MOL   H25332743   1.354   1.566   4.081  0.3624  0.9450  0.3732
   46MOL   C25432744   1.640   1.404   5.161  0.2253 -0.3239 -0.1437
   46MOL   C25532745   1.567   1.377   5.024  0.4926  0.3091 -0.5531
   46MOL   C25632746   1.496   1.239   5.034 -0.1155 -0.4699 -0.5548
   46MOL   C25732747   1.400   1.218   4.913 -0.6673 -0.0893 -0.8836
   46MOL   C25832748   1.277   1.307   4.912  0.4123 -0.0217 -0.7519
   46MOL   C25932749   1.183   1.272   4.795  0.1836  0.0037 -0.1663
   46MOL   C26032750   1.233   1.325   4.654  0.0405  0.5022  0.6447
   46MOL   C26132751   1.230   1.479   4.639  0.4227 -0.0682  0.4420
   46MOL   O26232752   1.239   1.529   4.503 -0.3890  0.6028 -0.2494
   46MOL   C26332753   1.348   1.526   4.432 -0.0848 -0.1526 -0.4186
   46MOL   O26432754   1.448   1.468   4.461 -1.0702  0.1103 -0.2315
   46MOL   C26532755   1.339   1.603   4.296 -0.5613  0.0355  0.4616
   46MOL   C26632756   1.214   1.682   4.281 -0.2782 -0.2593  0.0959
   46MOL   C26732757   1.452   1.705   4.275 -0.1259 -0.2464  0.4331
   46MOL   H26832758   1.661   1.510   5.154  3.0345 -0.8073  0.3194
   46MOL   H26932759   1.581   1.382   5.251 -1.3609 -2.9741 -1.7451
   46MOL   H27032760   1.732   1.345   5.160  0.8283  0.6075 -0.0228
   46MOL   H27132761   1.493   1.453   4.999  0.5975 -0.3418 -3.0075
   46MOL   H27232762   1.630   1.398   4.937 -1.6825  2.9166 -1.5864
   46MOL   H27332763   1.434   1.229   5.123 -0.6636 -2.4072 -1.1381
   46MOL   H27432764   1.570   1.160   5.037  0.8674  0.4273 -0.8582
   46MOL   H27532765   1.367   1.114   4.910 -0.4634 -0.2094  0.6774
   46MOL   H27632766   1.459   1.228   4.822  0.7353  2.3968  0.2354
   46MOL   H27732767   1.230   1.282   5.007  0.4736  0.7841 -0.5046
   46MOL   H27832768   1.307   1.412   4.917  2.9843 -0.8288  1.9720
   46MOL   H27932769   1.084   1.311   4.819  0.8776  1.5699  0.2387
   46MOL   H28032770   1.162   1.166   4.786 -1.5603  0.3109 -0.0324
   46MOL   H28132771   1.336   1.291   4.641 -0.0599  1.1815 -2.3796
   46MOL   H28232772   1.170   1.282   4.576 -0.4791  0.6327  0.9913
   46MOL   H28332773   1.142   1.518   4.690 -0.8389  0.4021 -2.0260
   46MOL   H28432774   1.314   1.514   4.700  0.9170 -1.7451  0.7297
   46MOL   H28532775   1.124   1.636   4.321 -0.4244  0.0403  0.1115
   46MOL   H28632776   1.219   1.775   4.337  0.4600  0.5812 -1.3436
   46MOL   H28732777   1.202   1.708   4.176 -0.0086 -0.1705  0.0871
   46MOL   H28832778   1.453   1.738   4.172 -2.7499  1.6884  0.9740
   46MOL   H28932779   1.542   1.643   4.284  0.7961  1.2062  1.5514
   46MOL   C29032780   0.904   2.398   4.998 -0.4524 -1.0907 -1.0057
   46MOL   C29132781   0.971   2.336   4.877 -0.0612  0.0064 -0.1542
   46MOL   C29232782   1.095   2.408   4.825  0.3760  0.8614 -0.7120
   46MOL   C29332783   1.189   2.330   4.723 -0.2895 -0.3616  0.3038
   46MOL   C29432784   1.272   2.417   4.633  0.2887  0.7372  0.3092
   46MOL   C29532785   1.373   2.344   4.552  0.0516 -0.0300  0.4117
   46MOL   C29632786   1.305   2.280   4.433  0.4852  0.2070  0.5177
   46MOL   C29732787   1.403   2.212   4.326  0.0133  0.2429 -0.3578
   46MOL   O29832788   1.440   2.083   4.373 -0.1604 -0.8177 -0.1549
   46MOL   C29932789   1.418   1.970   4.308 -0.4303  0.3469 -0.3354
   46MOL   O30032790   1.341   1.959   4.211 -0.2002 -0.4073  0.3570
   46MOL   C30132791   1.490   1.839   4.365 -0.0024  0.0101  0.7816
   46MOL   C30232792   1.462   1.821   4.515  0.9091  1.0629 -0.0815
   46MOL   C30332793   1.647   1.866   4.357 -0.3181  0.3685 -0.0811
   46MOL   H30432794   0.807   2.356   5.024 -0.8730  0.5568  0.1362
   46MOL   H30532795   0.882   2.503   4.979  0.0535 -0.9030 -0.5635
   46MOL   H30632796   0.969   2.385   5.085  0.7435  0.4047 -1.6458
   46MOL   H30732797   0.891   2.327   4.803 -1.1991  2.2245  0.7395
   46MOL   H30832798   1.004   2.236   4.905 -1.2976  0.0017  1.3548
   46MOL   H30932799   1.165   2.427   4.906 -2.5041  0.2938  2.0026
   46MOL   H31032800   1.061   2.506   4.791  0.4442  0.9160 -0.6240
   46MOL   H31132801   1.262   2.277   4.785  1.5938 -2.1607 -3.2790
   46MOL   H31232802   1.137   2.257   4.660 -1.3172  0.3609  0.3082
   46MOL   H31332803   1.204   2.475   4.571 -1.4681  0.0092  1.5105
   46MOL   H31432804   1.318   2.498   4.691  0.4266  0.8082  0.1002
   46MOL   H31532805   1.414   2.265   4.615  0.0825 -1.0400 -0.8501
   46MOL   H31632806   1.449   2.415   4.519 -1.2654  0.0838 -2.5650
   46MOL   H31732807   1.248   2.357   4.380  1.1992  0.4135  0.0477
   46MOL   H31832808   1.240   2.198   4.462 -2.2930  1.2476 -2.3659
   46MOL   H31932809   1.487   2.280   4.309 -0.7466  0.7094 -2.2731
   46MOL   H32032810   1.367   2.204   4.224 -1.2741  1.7920 -0.0263
   46MOL   H32132811   1.486   1.909   4.575  0.8233  0.5055  0.7831
   46MOL   H32232812   1.513   1.734   4.557  0.0407  0.2122 -0.7643
   46MOL   H32332813   1.354   1.811   4.508  0.9108 -2.5767  3.5436
   46MOL   H32432814   1.664   1.950   4.424 -0.7907 -0.5497  1.2100
   46MOL   H32532815   1.695   1.785   4.412 -2.0595 -0.8423 -0.2990
   46MOL   C32632816   2.230   1.708   4.717 -0.1686 -0.0833 -0.5894
   46MOL   C32732817   2.273   1.591   4.628 -0.4974  1.0119 -0.6422
   46MOL   C32832818   2.240   1.617   4.486 -0.1119  0.2552  0.1931
   46MOL   C32932819   2.275   1.499   4.387 -0.1243  0.1591 -0.1468
   46MOL   C33032820   2.191   1.496   4.259  0.2021 -0.1785  0.2298
   46MOL   C33132821   2.038   1.489   4.281 -0.6549 -0.1394 -0.4501
   46MOL   C33232822   1.961   1.491   4.151  0.1591  0.1316 -0.5341
   46MOL   C33332823   1.807   1.512   4.164  0.6674  0.7737 -0.0955
   46MOL   O33432824   1.791   1.641   4.228  0.2874  0.0195  0.0739
   46MOL   C33532825   1.731   1.742   4.147  0.6920 -0.1037 -0.1188
   46MOL   O33632826   1.674   1.739   4.036  0.1825  0.3182 -0.1072
   46MOL   C33732827   1.733   1.877   4.224  0.3744  0.3472  0.6113
   46MOL   C33832828   1.682   1.993   4.132 -0.1473  0.0522 -0.6564
   46MOL   C33932829   1.878   1.901   4.278 -0.3743 -0.7529  0.0757
   46MOL   H34032830   2.261   1.701   4.821  0.8361  0.7866 -0.8254
   46MOL   H34132831   2.125   1.737   4.724  0.2500  1.5383 -0.7728
   46MOL   H34232832   2.289   1.793   4.682  1.3075 -1.7003 -2.1470
   46MOL   H34332833   2.225   1.500   4.662  1.9692  0.5420  1.7376
   46MOL   H34432834   2.379   1.575   4.649 -0.2278  1.3568 -1.7049
   46MOL   H34532835   2.297   1.702   4.448  3.1903 -1.7324  0.5432
   46MOL   H34632836   2.137   1.652   4.485 -0.4146 -0.6233  0.1421
   46MOL   H34732837   2.267   1.411   4.451 -2.7971  0.9621  0.7145
   46MOL   H34832838   2.378   1.519   4.357 -0.6150 -1.6093 -3.2309
   46MOL   H34932839   2.212   1.587   4.203  0.2545 -1.7586 -2.4167
   46MOL   H35032840   2.231   1.415   4.198  1.3433  1.6578 -1.5302
   46MOL   H35132841   2.029   1.404   4.349  0.9603  0.1185  0.1108
   46MOL   H35232842   2.008   1.575   4.342  0.2651 -0.6135  0.6910
   46MOL   H35332843   1.992   1.396   4.105 -0.0396 -1.1729  1.9314
   46MOL   H35432844   1.999   1.575   4.094  2.1765 -1.0221 -0.9503
   46MOL   H35532845   1.749   1.506   4.071  0.0373  2.1814  0.1890
   46MOL   H35632846   1.769   1.445   4.242  1.7756 -1.1524 -1.1652
   46MOL   H35732847   1.582   1.969   4.097  0.2658 -1.2972 -0.9494
   46MOL   H35832848   1.676   2.085   4.189 -3.1001 -0.1395 -0.5801
   46MOL   H35932849   1.744   2.010   4.044 -0.8209  2.6849 -0.6430
   46MOL   H36032850   1.860   1.969   4.360  0.9036  1.7855 -1.6750
   46MOL   H36132851   1.916   1.811   4.327  0.6185 -0.0670  0.5944
   46MOL   C36232852   2.174   2.315   4.864 -0.2224  0.5377 -0.1241
   46MOL   C36332853   2.125   2.442   4.784 -0.8253 -0.1907  0.2934
   46MOL   C36432854   2.206   2.464   4.650  0.3826 -0.0216 -0.1683
   46MOL   C36532855   2.160   2.574   4.557 -0.5557  0.5383 -0.7057
   46MOL   C36632856   2.029   2.558   4.481  0.1678 -0.5258  1.0993
   46MOL   C36732857   2.019   2.451   4.382 -0.3984  0.1465 -0.5046
   46MOL   C36832858   1.882   2.437   4.311 -0.0182 -0.1645  0.4734
   46MOL   C36932859   1.868   2.332   4.198 -0.5952 -0.0195  0.2658
   46MOL   O37032860   1.925   2.205   4.240 -0.1703 -0.1564 -0.5759
   46MOL   C37132861   1.955   2.114   4.147  0.2574 -0.2972  0.1018
   46MOL   O37232862   1.944   2.138   4.025 -0.3029  0.1824  0.0930
   46MOL   C37332863   1.999   1.979   4.203  0.5866  0.3799  0.3348
   46MOL   C37432864   2.045   1.885   4.091 -0.1651 -0.1774  0.0700
   46MOL   C37532865   2.120   1.990   4.303  0.2715 -0.7340 -0.1451
   46MOL   H37632866   2.270   2.334   4.913 -0.4167  0.4813  0.2745
   46MOL   H37732867   2.108   2.287   4.946 -0.2079 -2.1234 -0.9729
   46MOL   H37832868   2.193   2.231   4.798  1.0854  2.1062 -1.8109
   46MOL   H37932869   2.123   2.535   4.842 -0.0058 -1.5426  2.5694
   46MOL   H38032870   2.018   2.438   4.766 -0.8748  0.2948  0.4624
   46MOL   H38132871   2.200   2.374   4.588  0.9743  0.4447 -0.9197
   46MOL   H38232872   2.314   2.468   4.668  0.8574 -1.4278 -2.4505
   46MOL   H38332873   2.238   2.591   4.483  0.8478  2.1559  1.1001
   46MOL   H38432874   2.161   2.668   4.611 -0.3323 -1.5109  3.0304
   46MOL   H38532875   1.951   2.543   4.557 -0.5041  1.3534  0.8037
   46MOL   H38632876   2.011   2.657   4.440 -0.2860 -1.2833 -0.5503
   46MOL   H38732877   2.045   2.357   4.431 -1.0286 -0.7149 -1.7896
   46MOL   H38832878   2.094   2.463   4.303 -0.5949 -2.1897 -1.0838
   46MOL   H38932879   1.864   2.535   4.267  2.5272  0.4951  0.8309
   46MOL   H39032880   1.798   2.411   4.376  0.3387 -0.0582  0.9810
   46MOL   H39132881   1.763   2.314   4.172 -0.5300 -0.9629  0.6274
   46MOL   H39232882   1.907   2.374   4.105 -0.8352 -3.2900 -1.3859
   46MOL   H39332883   1.955   1.844   4.045  0.5666  1.7371 -3.1906
   46MOL   H39432884   2.117   1.929   4.022  0.6635 -0.8948  0.4665
   46MOL   H39532885   2.100   1.803   4.138 -2.3223 -1.6288  0.1525
   46MOL   H39632886   2.081   2.054   4.383 -0.9147 -0.5401 -0.8736
   46MOL   H39732887   2.131   1.888   4.340 -0.3440  0.0305  2.2473
   46MOL   C39832888   2.246   2.044   3.181  0.2302  0.2686  0.2122
   46MOL   C39932889   2.182   2.084   3.317 -0.1809  0.0045 -0.3304
   46MOL   C40032890   2.210   1.988   3.434 -0.3643 -0.0139  0.4920
   46MOL   C40132891   2.153   2.044   3.565 -0.3462 -0.2899 -0.3004
   46MOL   C40232892   2.265   2.116   3.646  0.0336  0.3334 -0.6785
   46MOL   C40332893   2.205   2.172   3.775 -0.1026 -0.1122  0.0490
   46MOL   C40432894   2.314   2.223   3.864 -0.7584 -0.4290 -0.1838
   46MOL   C40532895   2.267   2.274   3.998 -0.1811  0.7353 -0.4961
   46MOL   O40632896   2.239   2.168   4.086 -0.4971 -0.3031  0.2524
   46MOL   C40732897   2.273   2.175   4.219 -0.1160  0.4917 -0.3664
   46MOL   O40832898   2.285   2.276   4.288 -0.1004  0.8551 -0.3364
   46MOL   C40932899   2.273   2.033   4.280 -0.2421 -0.2396  0.0972
   46MOL   C41032900   2.338   2.049   4.422 -0.2868 -0.2695 -0.0597
   46MOL   C41132901   2.354   1.928   4.199 -0.1921  0.5335 -0.4268
   46MOL   H41232902   2.355   2.052   3.183  0.3044 -0.3260 -0.9797
   46MOL   H41332903   2.200   2.102   3.101  1.6804 -0.7816 -1.4281
   46MOL   H41432904   2.228   1.938   3.164  0.5238  0.4235 -1.0879
   46MOL   H41532905   2.076   2.094   3.295 -0.2384  2.3063  0.8217
   46MOL   H41632906   2.206   2.184   3.354  1.5060 -1.0736  1.5745
   46MOL   H41732907   2.170   1.889   3.414  0.7017 -0.5142  0.8314
   46MOL   H41832908   2.316   1.972   3.449 -0.3198 -0.2557 -0.0648
   46MOL   H41932909   2.105   1.961   3.617 -5.5670  2.7232  0.0536
   46MOL   H42032910   2.076   2.119   3.547 -1.7177 -1.0215  2.1709
   46MOL   H42132911   2.346   2.046   3.668 -1.3785 -1.3011 -0.6240
   46MOL   H42232912   2.312   2.192   3.583 -3.4659  1.1634 -2.4123
   46MOL   H42332913   2.145   2.090   3.816  1.4487 -2.2106 -1.7219
   46MOL   H42432914   2.141   2.256   3.750  0.6613  0.5255  0.2382
   46MOL   H42532915   2.391   2.152   3.893 -2.8276 -2.3308  0.8503
   46MOL   H42632916   2.374   2.304   3.822 -0.7686  0.3538  1.2866
   46MOL   H42732917   2.348   2.328   4.046  0.7904  1.2359 -2.6506
   46MOL   H42832918   2.177   2.334   3.983  0.9105  3.3629  2.7903
   46MOL   H42932919   2.439   2.089   4.409 -0.4000  1.1604  2.8946
   46MOL   H43032920   2.340   1.947   4.461 -3.5161 -0.0061  0.9221
   46MOL   H43132921   2.287   2.108   4.499 -1.1399 -0.1477 -0.7161
   46MOL   H43232922   2.300   1.928   4.104  0.9100  2.0327 -1.0816
   46MOL   H43332923   2.324   1.829   4.232  0.7042  0.3182 -0.2503
   46MOL   C43432924   3.199   1.507   4.588 -0.1995 -0.4880  0.5377
   46MOL   C43532925   3.228   1.646   4.533 -0.0415 -0.5420  0.0917
   46MOL   C43632926   3.108   1.704   4.455  0.2316  0.1411  0.3527
   46MOL   C43732927   3.146   1.830   4.375 -0.4956 -0.3417 -0.4684
   46MOL   C43832928   3.035   1.904   4.314  0.0561 -0.4679 -0.0799
   46MOL   C43932929   2.959   2.009   4.401 -0.1496 -0.2124  0.2493
   46MOL   C44032930   2.865   1.963   4.511  0.3498  0.2368  0.2061
   46MOL   C44132931   2.750   1.872   4.478 -0.6266  0.3731 -0.1847
   46MOL   O44232932   2.658   1.933   4.390  0.1349 -0.2226 -0.6739
   46MOL   C44332933   2.568   1.852   4.327 -0.0654  0.1496  0.2440
   46MOL   O44432934   2.552   1.731   4.371  0.2867  0.0087  0.0457
   46MOL   C44532935   2.509   1.918   4.194 -0.3576  0.6478  0.1323
   46MOL   C44632936   2.566   2.059   4.165  0.3308  0.3080 -0.1534
   46MOL   C44732937   2.527   1.815   4.081  1.1018 -0.2993  0.2326
   46MOL   H44832938   3.177   1.455   4.495  0.6530  0.8099 -0.4144
   46MOL   H44932939   3.116   1.508   4.659 -1.4268 -2.2970 -0.8113
   46MOL   H45032940   3.287   1.462   4.635  1.6230 -1.0908 -3.2846
   46MOL   H45132941   3.311   1.629   4.464  0.4724 -0.3120  0.6525
   46MOL   H45232942   3.258   1.709   4.617  0.3324 -0.8162  0.1628
   46MOL   H45332943   3.036   1.736   4.531 -0.0321 -2.8776  1.4385
   46MOL   H45432944   3.069   1.623   4.393  0.3805 -0.1541  0.6431
   46MOL   H45532945   3.214   1.808   4.293 -1.6284 -0.8657 -1.2809
   46MOL   H45632946   3.208   1.900   4.432 -0.0839 -0.5353 -0.6779
   46MOL   H45732947   3.069   1.948   4.221 -0.8482 -0.7158 -0.5309
   46MOL   H45832948   2.966   1.827   4.280 -0.7685 -0.3606  1.3072
   46MOL   H45932949   2.898   2.073   4.339 -2.2591  1.0719  3.5161
   46MOL   H46032950   3.040   2.072   4.440  1.0264 -0.0071 -2.4232
   46MOL   H46132951   2.924   1.915   4.589 -0.5828 -0.7891  0.2940
   46MOL   H46232952   2.820   2.058   4.541 -0.2577  0.0140  0.0064
   46MOL   H46332953   2.703   1.828   4.566  1.9268  0.1500  1.1007
   46MOL   H46432954   2.809   1.795   4.429 -0.5542 -1.0296  2.0601
   46MOL   H46532955   2.543   2.097   4.065 -0.3136  1.3889  0.4034
   46MOL   H46632956   2.533   2.125   4.245  1.6628 -1.6757  2.1097
   46MOL   H46732957   2.674   2.073   4.175  0.3320  1.7429 -1.8835
   46MOL   H46832958   2.484   1.722   4.116 -1.4886 -0.1874 -2.4368
   46MOL   H46932959   2.465   1.853   4.000  1.4184 -0.7701 -0.2349
   46MOL   C47032960   2.560   1.572   3.308 -0.0582  0.0584 -0.0384
   46MOL   C47132961   2.635   1.701   3.287  0.1830  0.8620 -0.3522
   46MOL   C47232962   2.596   1.796   3.400 -0.1197  0.4653  0.7495
   46MOL   C47332963   2.680   1.929   3.380  0.5110 -0.3356  0.2452
   46MOL   C47432964   2.630   2.040   3.477 -0.9926  0.1671  0.0369
   46MOL   C47532965   2.637   1.995   3.622 -0.3857 -0.6834 -0.2831
   46MOL   C47632966   2.657   2.113   3.723 -0.1179 -0.3708  0.6870
   46MOL   C47732967   2.751   2.077   3.840 -0.6277  0.5013  0.3827
   46MOL   O47832968   2.689   1.964   3.909  0.2940  0.3855 -0.3516
   46MOL   C47932969   2.755   1.877   3.988  0.5584 -0.2186 -0.0361
   46MOL   O48032970   2.875   1.875   4.015  0.1683  0.0289 -0.7908
   46MOL   C48132971   2.663   1.757   4.025 -0.1324 -1.3068  0.4852
   46MOL   C48232972   2.735   1.669   4.124  0.3732  0.4075  0.4283
   46MOL   C48332973   2.649   1.676   3.892  0.9366 -0.2091 -0.3213
   46MOL   H48432974   2.603   1.508   3.231 -0.4909 -1.3289  0.8582
   46MOL   H48532975   2.452   1.575   3.291 -0.4711 -2.3905  1.9562
   46MOL   H48632976   2.575   1.531   3.407 -1.5226 -0.8263 -0.1650
   46MOL   H48732977   2.741   1.676   3.286  0.2183  1.0157 -2.5087
   46MOL   H48832978   2.618   1.748   3.190 -0.6379  0.8962 -0.1935
   46MOL   H48932979   2.490   1.822   3.397  0.1414  1.3990 -0.7865
   46MOL   H49032980   2.617   1.741   3.491  3.0908 -1.8675 -1.3266
   46MOL   H49132981   2.787   1.914   3.395  0.5622  1.5756  2.1257
   46MOL   H49232982   2.677   1.970   3.278 -1.0128  0.1444  0.4611
   46MOL   H49332983   2.696   2.127   3.471 -0.9340  0.1096 -0.1857
   46MOL   H49432984   2.528   2.074   3.459 -0.1142  3.8688  1.5403
   46MOL   H49532985   2.549   1.938   3.653 -0.9687  0.4328  0.1544
   46MOL   H49632986   2.731   1.941   3.634  1.4146  2.2717 -0.4404
   46MOL   H49732987   2.696   2.202   3.674 -0.6500 -0.7490 -0.4243
   46MOL   H49832988   2.559   2.149   3.754  0.7626  3.1488 -0.4148
   46MOL   H49932989   2.766   2.151   3.919  0.1710 -0.3015  0.9921
   46MOL   H50032990   2.848   2.061   3.792 -0.1657  0.4031  1.3372
   46MOL   H50132991   2.787   1.729   4.199 -0.0357  0.7271  0.4584
   46MOL   H50232992   2.815   1.617   4.071 -0.1393 -0.2868  0.3340
   46MOL   H50332993   2.680   1.591   4.176 -1.1339  0.3958 -1.1350
   46MOL   H50432994   2.623   1.747   3.813 -1.2919  1.7541  2.0503
   46MOL   H50532995   2.748   1.644   3.862  2.1299  2.0845  1.0193
   46MOL   C50632996   1.607   1.841   3.546 -0.0794  0.3618 -0.0945
   46MOL   C50732997   1.654   1.714   3.609 -0.6124 -0.0749 -0.3611
   46MOL   C50832998   1.786   1.665   3.541 -0.5501  0.4981  0.1110
   46MOL   C50932999   1.859   1.550   3.613  0.0235  0.3920 -0.1450
   46MOL   C51033000   1.893   1.579   3.759  0.0441  0.6123 -0.3513
   46MOL   C51133001   1.995   1.696   3.773 -0.6001 -0.3092 -0.1822
   46MOL   C51233002   2.126   1.672   3.700 -0.3569 -0.7736  0.1185
   46MOL   C51333003   2.245   1.746   3.761  0.1990 -0.6163  0.0305
   46MOL   O51433004   2.367   1.682   3.772  0.8883  0.1819 -0.1359
   46MOL   C51533005   2.406   1.606   3.875 -0.1165  0.3142  0.3368
   46MOL   O51633006   2.336   1.592   3.971  0.2899  0.3511 -0.1134
   46MOL   C51733007   2.550   1.553   3.872  0.1256 -0.2685  0.1647
   46MOL   C51833008   2.573   1.493   3.728  0.2127 -0.0306  0.5819
   46MOL   C51933009   2.583   1.449   3.978  0.4210  0.1353  0.1028
   46MOL   H52033010   1.504   1.862   3.573 -0.4677  0.2705 -1.4810
   46MOL   H52133011   1.611   1.843   3.437 -2.3604  0.1108 -0.1934
   46MOL   H52233012   1.674   1.923   3.572 -1.2467  1.4746 -0.5400
   46MOL   H52333013   1.573   1.640   3.610  1.3539 -2.3257  2.2573
   46MOL   H52433014   1.674   1.739   3.713  0.4458 -0.5691 -0.4411
   46MOL   H52533015   1.777   1.646   3.434  1.6250 -0.4785  0.0790
   46MOL   H52633016   1.859   1.746   3.537  0.7864 -0.7491 -1.3253
   46MOL   H52733017   1.794   1.465   3.596  1.6614 -1.1135  1.0201
   46MOL   H52833018   1.953   1.543   3.558 -0.4880 -0.6493 -0.8981
   46MOL   H52933019   1.800   1.586   3.815  0.4316 -1.9956  0.6833
   46MOL   H53033020   1.950   1.493   3.796 -1.2468 -0.1131 -0.0306
   46MOL   H53133021   2.016   1.709   3.879 -1.1161  2.9132 -0.4228
   46MOL   H53233022   1.949   1.792   3.747  0.4984 -0.0262 -1.1244
   46MOL   H53333023   2.115   1.689   3.593 -1.8947  0.6884  0.4870
   46MOL   H53433024   2.160   1.569   3.703 -1.7200 -1.2061  1.4026
   46MOL   H53533025   2.226   1.781   3.863  1.7215 -0.1790  0.1835
   46MOL   H53633026   2.256   1.836   3.701 -0.6455 -1.0500 -0.7817
   46MOL   H53733027   2.670   1.444   3.714  0.8200  1.8017 -2.0542
   46MOL   H53833028   2.572   1.572   3.653  1.1692  1.0968  1.7391
   46MOL   H53933029   2.497   1.419   3.703 -0.9769  0.7633  1.7810
   46MOL   H54033030   2.689   1.448   4.002  0.6005  0.4899 -0.6632
   46MOL   H54133031   2.528   1.492   4.062 -0.9295 -2.6621  0.7167
   46MOL   C54233032   3.254   1.776   3.924  0.3702 -0.3204 -0.2061
   46MOL   C54333033   3.198   1.682   4.034 -0.8625  0.4281 -0.1819
   46MOL   C54433034   3.113   1.568   3.977  0.4566 -0.1883 -0.1774
   46MOL   C54533035   3.074   1.474   4.089  0.1081 -0.8011 -0.7274
   46MOL   C54633036   2.985   1.365   4.032  0.2021  0.4754 -0.0626
   46MOL   C54733037   3.068   1.261   3.948  0.7727  0.3622  0.6643
   46MOL   C54833038   2.996   1.131   3.947 -0.2359  0.1183 -0.2417
   46MOL   C54933039   2.862   1.128   3.871 -0.0979 -0.6087  0.2966
   46MOL   O55033040   2.759   1.205   3.932 -0.3994 -0.2415 -0.0014
   46MOL   C55133041   2.634   1.220   3.884 -1.1954  0.5062  0.8286
   46MOL   O55233042   2.599   1.170   3.777 -0.7419 -0.5929  0.4303
   46MOL   C55333043   2.537   1.300   3.977  0.7674 -0.0713 -0.1333
   46MOL   C55433044   2.387   1.285   3.932  0.4237  0.0183 -0.3087
   46MOL   C55533045   2.546   1.255   4.128 -0.0145 -0.1120 -0.6153
   46MOL   H55633046   3.311   1.862   3.961 -1.1881  0.6451  0.0095
   46MOL   H55733047   3.161   1.820   3.887 -0.3133  0.7330  2.6199
   46MOL   H55833048   3.300   1.722   3.841 -1.5969 -1.8256 -0.3410
   46MOL   H55933049   3.274   1.634   4.097  0.2627  3.6602  1.0258
   46MOL   H56033050   3.135   1.740   4.101  0.5464 -0.3843  1.8857
   46MOL   H56133051   3.172   1.509   3.907  0.4430  0.7337 -0.9875
   46MOL   H56233052   3.026   1.603   3.920  0.1695  0.1752  0.4713
   46MOL   H56333053   3.163   1.425   4.128  0.3495  1.4595  1.6340
   46MOL   H56433054   3.024   1.519   4.174 -0.4061  2.3878 -2.6224
   46MOL   H56533055   2.898   1.404   3.981  0.5926  0.0973 -1.0487
   46MOL   H56633056   2.943   1.327   4.125  2.0437 -1.2254  0.1167
   46MOL   H56733057   3.072   1.298   3.846 -0.5083  0.5241  0.6689
   46MOL   H56833058   3.166   1.245   3.995 -0.0325 -2.1565  1.5369
   46MOL   H56933059   3.055   1.053   3.898  0.1348  1.0750 -1.3334
   46MOL   H57033060   2.977   1.100   4.050 -1.8546  1.4815 -0.0995
   46MOL   H57133061   2.834   1.023   3.866 -0.1944 -0.5322 -1.2678
   46MOL   H57233062   2.880   1.167   3.770 -0.8936 -0.5861  0.1540
   46MOL   H57333063   2.305   1.329   3.989 -0.5051 -0.5326 -1.2161
   46MOL   H57433064   2.362   1.179   3.932  0.0531  0.0674  2.0544
   46MOL   H57533065   2.387   1.323   3.830 -0.1123  1.2781  0.1563
   46MOL   H57633066   2.500   1.338   4.182  1.4642 -0.0237  0.5185
   46MOL   H57733067   2.646   1.276   4.166 -0.4960  1.0430  0.0420
   46MOL   C57833068   1.980   0.232   4.280  0.2143 -0.2455  0.6700
   46MOL   C57933069   2.004   0.369   4.217 -0.7893 -0.0910  0.1096
   46MOL   C58033070   2.138   0.368   4.139  0.2452 -0.4801  0.2109
   46MOL   C58133071   2.165   0.504   4.078 -0.8287 -0.6551  0.1438
   46MOL   C58233072   2.319   0.540   4.067 -0.2410 -0.7877 -0.4810
   46MOL   C58333073   2.360   0.668   3.995  0.3079 -0.1755 -0.8159
   46MOL   C58433074   2.509   0.699   3.998  0.2599  0.3970 -0.1995
   46MOL   C58533075   2.547   0.831   3.936 -0.6856 -0.3242 -0.1106
   46MOL   O58633076   2.499   0.945   4.010  0.3707  0.1158 -0.0655
   46MOL   C58733077   2.578   0.994   4.111  0.2052 -0.2019  0.2915
   46MOL   O58833078   2.698   0.953   4.130  0.3937  0.1211 -0.1652
   46MOL   C58933079   2.505   1.112   4.187 -0.2754 -0.3895 -0.3432
   46MOL   C59033080   2.347   1.095   4.187 -0.2115  0.1964 -0.4326
   46MOL   C59133081   2.558   1.122   4.333 -0.5061 -0.2983 -0.7045
   46MOL   H59233082   1.975   0.148   4.210  2.4025  1.4531 -1.6695
   46MOL   H59333083   1.886   0.223   4.334 -1.2074 -0.8724 -1.8206
   46MOL   H59433084   2.051   0.203   4.358  0.4682  0.4232  0.6907
   46MOL   H59533085   1.999   0.449   4.292  0.1474 -0.9606  1.1312
   46MOL   H59633086   1.927   0.384   4.142 -0.4204  3.2729  0.2986
   46MOL   H59733087   2.129   0.294   4.059 -0.5567 -2.5305  2.1495
   46MOL   H59833088   2.214   0.320   4.200  1.5371 -0.0366 -1.0201
   46MOL   H59933089   2.116   0.579   4.139 -2.5026  0.5705 -2.6091
   46MOL   H60033090   2.128   0.511   3.975  1.4834 -0.3610 -0.6962
   46MOL   H60133091   2.355   0.451   4.015 -1.4328  0.0150 -2.7197
   46MOL   H60233092   2.372   0.532   4.162 -3.0980 -5.3468  0.9047
   46MOL   H60333093   2.304   0.747   4.047  0.3170 -0.0776 -0.9554
   46MOL   H60433094   2.324   0.655   3.893 -0.7686 -1.9164 -0.2422
   46MOL   H60533095   2.553   0.619   3.939  0.5771  1.4833 -1.4669
   46MOL   H60633096   2.550   0.685   4.098  2.4014 -0.0110 -1.1015
   46MOL   H60733097   2.653   0.835   3.910 -1.1628  1.1408 -1.9547
   46MOL   H60833098   2.500   0.849   3.839  2.6186  0.8250 -1.5878
   46MOL   H60933099   2.313   1.081   4.084  0.4038  0.5439 -0.6880
   46MOL   H61033100   2.315   1.006   4.241 -1.6711  2.1900  2.0713
   46MOL   H61133101   2.308   1.182   4.239 -0.6121 -0.5325  0.4959
   46MOL   H61233102   2.550   1.226   4.367  0.3546 -1.3846  3.0625
   46MOL   H61333103   2.666   1.107   4.331 -0.1408  1.2877  3.0249
   46MOL   C61433104   1.792   0.226   4.620  0.0831 -0.1758 -0.2593
   46MOL   C61533105   1.889   0.350   4.631  0.0145 -0.7758 -0.5822
   46MOL   C61633106   1.825   0.479   4.583  0.1902 -0.0449  0.7111
   46MOL   C61733107   1.908   0.604   4.607 -0.3438  0.2312 -0.5043
   46MOL   C61833108   1.853   0.734   4.541  0.2005 -0.0744  0.0414
   46MOL   C61933109   1.934   0.861   4.581  0.2888 -0.0635 -0.7040
   46MOL   C62033110   2.082   0.837   4.557 -0.5758 -0.7715  0.0508
   46MOL   C62133111   2.156   0.970   4.562  0.5206 -0.3359 -0.1461
   46MOL   O62233112   2.295   0.958   4.529  0.1669 -0.1614 -0.2523
   46MOL   C62333113   2.363   1.063   4.488  0.1195 -0.1687  0.2302
   46MOL   O62433114   2.321   1.173   4.486 -0.6896 -0.3778  0.1519
   46MOL   C62533115   2.515   1.029   4.444  0.6260  0.0502 -0.0071
   46MOL   C62633116   2.519   0.874   4.411  0.3692  0.0964 -0.3395
   46MOL   C62733117   2.598   1.058   4.575 -0.1950 -0.4492  0.3428
   46MOL   H62833118   1.845   0.138   4.657 -0.1794  0.8389  2.6391
   46MOL   H62933119   1.766   0.209   4.515 -2.2205  0.6731  0.1467
   46MOL   H63033120   1.695   0.234   4.671 -0.0020  1.8419 -0.7136
   46MOL   H63133121   1.920   0.369   4.734  3.5222  2.4373 -2.1312
   46MOL   H63233122   1.985   0.331   4.583  1.6323 -1.9291  2.9061
   46MOL   H63333123   1.740   0.488   4.651 -0.2934  1.4098 -0.0614
   46MOL   H63433124   1.780   0.458   4.486  2.0147  1.9809 -0.6259
   46MOL   H63533125   2.010   0.586   4.571 -0.1982 -0.1444  0.1013
   46MOL   H63633126   1.918   0.620   4.714  0.0868 -0.0387 -0.5039
   46MOL   H63733127   1.842   0.724   4.433  1.4955  2.9180 -0.4380
   46MOL   H63833128   1.754   0.745   4.586 -0.0121  0.3558 -0.5308
   46MOL   H63933129   1.901   0.950   4.529  1.0345  1.2925  1.0970
   46MOL   H64033130   1.920   0.876   4.688  1.1050 -0.7023 -0.5034
   46MOL   H64133131   2.109   0.779   4.468  0.6118  2.7584 -1.9830
   46MOL   H64233132   2.123   0.778   4.639  0.1232  0.3493  0.5203
   46MOL   H64333133   2.111   1.046   4.497 -0.9745 -1.5495 -0.5556
   46MOL   H64433134   2.129   1.000   4.663  1.4098 -1.5627  0.4612
   46MOL   H64533135   2.452   0.845   4.330  0.6035  1.0886 -0.8899
   46MOL   H64633136   2.493   0.827   4.506 -0.8495  0.7232 -0.3572
   46MOL   H64733137   2.621   0.846   4.383  0.7863  0.8451  0.4326
   46MOL   H64833138   2.569   0.979   4.644  0.8323 -0.5743  0.6280
   46MOL   H64933139   2.559   1.150   4.620 -0.2252 -1.3325  2.1656
   46MOL   C65033140   2.470   1.894   4.975 -0.1725  0.0370  0.3224
   46MOL   C65133141   2.608   1.834   4.950 -0.5335  0.2324 -0.0373
   46MOL   C65233142   2.614   1.696   4.989  0.5147 -0.2586  0.1469
   46MOL   C65333143   2.761   1.646   4.985 -0.7099  0.8602 -0.3959
   46MOL   C65433144   2.817   1.639   4.838 -0.4263  0.0035 -0.1887
   46MOL   C65533145   2.741   1.560   4.736 -0.1981  0.0162  0.3004
   46MOL   C65633146   2.822   1.517   4.619 -0.3268 -0.3029 -0.8049
   46MOL   C65733147   2.743   1.443   4.517  0.1612 -0.1254 -0.8643
   46MOL   O65833148   2.713   1.311   4.561 -0.4049 -0.6234 -0.0107
   46MOL   C65933149   2.803   1.210   4.533 -0.4473 -0.2470 -0.3839
   46MOL   O66033150   2.912   1.231   4.475 -0.5522  0.1081 -0.5753
   46MOL   C66133151   2.756   1.072   4.591  0.1532 -0.5055  0.1743
   46MOL   C66233152   2.827   0.960   4.520 -0.8640 -0.7336 -0.2333
   46MOL   C66333153   2.778   1.078   4.744 -0.1454  0.3988  0.2169
   46MOL   H66433154   2.434   1.872   5.075 -2.2792  1.0387 -0.1834
   46MOL   H66533155   2.397   1.844   4.911 -1.5072  0.5576  1.4152
   46MOL   H66633156   2.475   2.001   4.956  0.9969 -0.5084 -2.7715
   46MOL   H66733157   2.683   1.898   4.997  0.8017 -0.2563 -1.4752
   46MOL   H66833158   2.628   1.848   4.843 -0.8577  0.5700 -0.0540
   46MOL   H66933159   2.544   1.632   4.935 -0.6929  1.1155  0.0465
   46MOL   H67033160   2.583   1.681   5.092  3.0272 -1.1717  0.7903
   46MOL   H67133161   2.770   1.549   5.034  1.7365  1.2931  0.0942
   46MOL   H67233162   2.823   1.715   5.043 -2.5425  2.3539 -0.1594
   46MOL   H67333163   2.918   1.602   4.855 -0.4240 -0.3250 -0.9018
   46MOL   H67433164   2.842   1.736   4.796 -1.1776  0.6606  0.8529
   46MOL   H67533165   2.712   1.472   4.793  0.0171  0.6760  1.4351
   46MOL   H67633166   2.651   1.614   4.706 -0.5122  0.1344  1.4491
   46MOL   H67733167   2.903   1.457   4.660  0.6569  1.5141 -0.0498
   46MOL   H67833168   2.870   1.602   4.570 -0.6855 -1.1637 -2.7049
   46MOL   H67933169   2.793   1.442   4.420  0.8032 -1.5947 -0.5253
   46MOL   H68033170   2.648   1.494   4.501 -0.1433 -0.3098  0.3153
   46MOL   H68133171   2.932   0.956   4.550 -0.7955 -1.3988 -0.5381
   46MOL   H68233172   2.821   0.953   4.412 -1.7239 -1.0342 -0.1683
   46MOL   H68333173   2.792   0.861   4.548 -2.0121  0.1273  1.4869
   46MOL   H68433174   2.738   1.177   4.766  0.6426  0.9941 -1.0024
   46MOL   H68533175   2.700   1.016   4.788 -2.4193  2.4302 -0.8271
   46MOL   C68633176   2.615   0.802   5.578 -0.1297  0.4458  0.1158
   46MOL   C68733177   2.602   0.660   5.509  0.0672 -0.0194 -0.2010
   46MOL   C68833178   2.707   0.612   5.409  0.0977  0.7391 -0.5166
   46MOL   C68933179   2.695   0.695   5.285  0.3724 -0.4463 -0.5434
   46MOL   C69033180   2.804   0.642   5.187 -0.2738 -0.0686 -0.5904
   46MOL   C69133181   2.772   0.679   5.038 -0.4715  0.0520  0.1201
   46MOL   C69233182   2.874   0.620   4.934 -0.5080  0.0368  0.2532
   46MOL   C69333183   2.851   0.672   4.789  0.7031  0.7327  0.5674
   46MOL   O69433184   2.842   0.810   4.797 -0.0541  0.3482 -0.5144
   46MOL   C69533185   2.954   0.891   4.797 -0.4569 -0.1711  0.7022
   46MOL   O69633186   3.070   0.850   4.796  0.4978  0.2623  0.0829
   46MOL   C69733187   2.917   1.044   4.816 -0.7681  0.2297  0.2562
   46MOL   C69833188   2.903   1.068   4.966  0.3469  0.5697  0.2814
   46MOL   C69933189   3.035   1.134   4.773  0.2789  0.4033 -0.3422
   46MOL   H70033190   2.710   0.825   5.627  1.1352 -1.2432 -1.4579
   46MOL   H70133191   2.535   0.813   5.651  1.4962  1.7572  1.7568
   46MOL   H70233192   2.586   0.882   5.511  1.8247  0.8074 -0.3356
   46MOL   H70333193   2.509   0.670   5.453  0.1707  3.0548  0.1216
   46MOL   H70433194   2.595   0.588   5.591 -0.1222  1.6826  1.3178
   46MOL   H70533195   2.696   0.507   5.384  2.4123  0.3699 -0.0338
   46MOL   H70633196   2.807   0.617   5.451 -0.9274 -1.3755  2.3391
   46MOL   H70733197   2.715   0.799   5.313 -3.0937 -0.3866  2.1153
   46MOL   H70833198   2.590   0.690   5.255 -0.5558  1.0358  2.3161
   46MOL   H70933199   2.821   0.535   5.201 -0.1555  0.1714  1.2251
   46MOL   H71033200   2.899   0.687   5.214 -1.4012  1.9197  0.2139
   46MOL   H71133201   2.670   0.649   5.018 -0.1857  0.2533 -1.7803
   46MOL   H71233202   2.775   0.788   5.031 -1.7240  0.0271 -0.9837
   46MOL   H71333203   2.972   0.658   4.964 -1.4290  1.2792  1.7453
   46MOL   H71433204   2.870   0.511   4.938  1.0548 -0.0332  0.2004
   46MOL   H71533205   2.759   0.627   4.752  0.7371  1.2921 -0.2243
   46MOL   H71633206   2.934   0.638   4.728 -1.1267 -0.1229 -1.5171
   46MOL   H71733207   2.993   1.060   5.028  0.7979  1.2368 -0.2846
   46MOL   H71833208   2.846   1.157   4.994  0.1284  0.1613  1.1481
   46MOL   H71933209   2.839   0.990   5.007  0.6566 -0.0958 -0.5067
   46MOL   H72033210   3.071   1.097   4.677  1.0030 -2.7174  1.0429
   46MOL   H72133211   3.121   1.141   4.840 -0.8635 -0.9026  1.3271
   46MOL   H72233212   3.004   1.238   4.769  0.6825  0.6338  1.7013
   47MOL     C133213   3.078   3.549   2.384  0.1484  0.2762  0.0433
   47MOL     C233214   3.148   3.421   2.425 -0.3243 -0.4108  0.0778
   47MOL     C333215   3.187   3.433   2.572  0.6665 -0.1299  0.0209
   47MOL     C433216   3.241   3.304   2.634  0.6430 -0.0605  0.1279
   47MOL     C533217   3.267   3.321   2.779  0.4148  0.2345  1.0598
   47MOL     C633218   3.345   3.209   2.854 -0.1947 -0.2185  0.1351
   47MOL     C733219   3.256   3.093   2.890 -0.6031 -0.7446  0.2267
   47MOL     C833220   3.329   2.984   2.970 -0.0995  0.1115 -0.0995
   47MOL     O933221   3.357   3.039   3.099 -0.3699 -0.2741 -0.4549
   47MOL    C1033222   3.369   2.956   3.203  0.0524 -0.8160 -0.3040
   47MOL    O1133223   3.374   2.835   3.195  0.3146 -0.1013 -0.1278
   47MOL    C1233224   3.371   3.026   3.341 -0.2279  0.4636  0.0905
   47MOL    C1333225   3.519   3.049   3.385  0.7181 -0.5781 -0.5544
   47MOL    C1433226   3.297   3.158   3.349 -0.1745  0.0985  0.1318
   47MOL    H1533227   3.143   3.636   2.388  0.1772  0.2187  1.0462
   47MOL    H1633228   2.985   3.553   2.442 -0.9094  1.2290 -1.6855
   47MOL    H1733229   3.035   3.540   2.285 -2.4045  0.5318  1.0814
   47MOL    H1833230   3.239   3.410   2.367 -0.6278 -1.4374 -0.2131
   47MOL    H1933231   3.080   3.339   2.404 -0.8732  0.5916 -2.2947
   47MOL    H2033232   3.259   3.513   2.593  1.3209 -0.0297 -2.3839
   47MOL    H2133233   3.098   3.457   2.629  0.1623  0.6502 -1.0536
   47MOL    H2233234   3.178   3.220   2.605 -0.2386  0.9627 -0.9636
   47MOL    H2333235   3.333   3.268   2.586 -1.3681 -0.7138 -3.4067
   47MOL    H2433236   3.174   3.341   2.833 -0.7128 -0.5130 -0.5717
   47MOL    H2533237   3.322   3.415   2.781 -0.1059  0.5335  1.4011
   47MOL    H2633238   3.385   3.246   2.948 -0.4188 -0.6400  0.3999
   47MOL    H2733239   3.439   3.184   2.804 -0.4047 -0.0441 -0.3519
   47MOL    H2833240   3.200   3.048   2.808  1.5816 -1.2884 -1.0144
   47MOL    H2933241   3.167   3.126   2.943  0.2067 -0.0159  1.1402
   47MOL    H3033242   3.421   2.961   2.916  0.3469 -1.7216  1.4045
   47MOL    H3133243   3.265   2.897   2.973  0.0797  0.0233  1.3402
   47MOL    H3233244   3.557   3.119   3.310  0.5981  0.6892  0.5523
   47MOL    H3333245   3.518   3.108   3.477  1.5394 -0.5359 -0.5666
   47MOL    H3433246   3.578   2.958   3.394  0.9545 -0.4865 -1.1807
   47MOL    H3533247   3.326   3.215   3.260  1.3876  0.8945  1.1209
   47MOL    H3633248   3.340   3.220   3.428 -1.8012  1.6223 -0.1364
   47MOL    H3733249   3.344   2.949   3.413 -0.2052 -0.1916 -0.5907
   47MOL    C3833250   2.625   3.257   4.061  0.5597 -0.2473 -0.7192
   47MOL    C3933251   2.768   3.286   4.076 -0.0123 -0.3711  0.1161
   47MOL    C4033252   2.827   3.377   3.967  0.1593  0.2399 -0.2737
   47MOL    C4133253   2.969   3.412   3.982  0.5446  0.0287  0.2134
   47MOL    C4233254   3.012   3.520   3.879 -0.4341  0.0177  0.3665
   47MOL    C4333255   3.004   3.472   3.740  0.0692  0.5028  0.3572
   47MOL    C4433256   3.090   3.559   3.644  0.3356  0.8765  0.1113
   47MOL    C4533257   3.079   3.518   3.500  0.3136 -0.2256 -0.2160
   47MOL    O4633258   3.133   3.389   3.481 -0.1071 -0.0076  0.0985
   47MOL    C4733259   3.103   3.316   3.367  0.1734 -0.1571  0.0708
   47MOL    O4833260   3.053   3.363   3.265 -0.4118  0.1204 -0.1489
   47MOL    C4933261   3.142   3.157   3.373 -0.1651 -0.0568  0.4474
   47MOL    C5033262   3.123   3.100   3.513 -0.3469  0.5744 -0.3018
   47MOL    C5133263   3.072   3.076   3.260  0.4167  0.0323  0.3256
   47MOL    H5233264   2.559   3.343   4.045 -1.4585 -1.4055  1.0856
   47MOL    H5333265   2.588   3.201   4.146  2.0200  1.4926  1.1216
   47MOL    H5433266   2.623   3.194   3.972  4.6621 -1.0379 -0.3639
   47MOL    H5533267   2.817   3.189   4.080 -0.9473 -0.8563 -0.2180
   47MOL    H5633268   2.775   3.334   4.174 -0.4809 -2.5619  1.2556
   47MOL    H5733269   2.822   3.327   3.870 -0.1885 -0.2287 -0.0175
   47MOL    H5833270   2.762   3.464   3.967 -0.2041 -0.0301  0.0088
   47MOL    H5933271   3.031   3.323   3.984  0.6023  0.0647  0.0047
   47MOL    H6033272   3.000   3.450   4.080  1.6159  1.7517 -0.7715
   47MOL    H6133273   2.942   3.603   3.894 -0.3211  0.4899 -1.6030
   47MOL    H6233274   3.111   3.557   3.908 -1.6151  2.0400  2.0135
   47MOL    H6333275   3.039   3.369   3.747  0.4415  0.7748  3.0282
   47MOL    H6433276   2.904   3.456   3.700  0.3392  1.4319 -0.7147
   47MOL    H6533277   3.196   3.559   3.671  0.7408 -1.5869 -1.3339
   47MOL    H6633278   3.065   3.665   3.643 -1.6995  0.4011 -0.5280
   47MOL    H6733279   3.150   3.585   3.452 -0.0236 -0.1329 -0.5788
   47MOL    H6833280   2.980   3.516   3.454 -0.5850  0.8433  1.6201
   47MOL    H6933281   3.189   3.149   3.585 -0.6043  0.9008 -0.2874
   47MOL    H7033282   3.021   3.113   3.550 -0.2624 -0.9103  0.5205
   47MOL    H7133283   3.146   2.993   3.511 -1.9413  0.2242 -0.9912
   47MOL    H7233284   3.134   2.988   3.240 -0.3579 -0.2010 -1.0939
   47MOL    H7333285   3.082   3.142   3.175  2.4549  1.7188  1.8032
   47MOL    C7433286   3.511   2.114   3.613 -0.2894 -0.0408  0.1896
   47MOL    C7533287   3.565   2.237   3.689 -0.2086  0.0673 -0.7384
   47MOL    C7633288   3.528   2.365   3.616  0.5239 -1.0833 -0.2012
   47MOL    C7733289   3.379   2.398   3.617  0.5166 -0.1302  0.2898
   47MOL    C7833290   3.346   2.515   3.523  0.9571 -0.5251 -0.1876
   47MOL    C7933291   3.195   2.548   3.525 -0.0464 -0.6685  0.1396
   47MOL    C8033292   3.163   2.649   3.421  0.1877  0.5591 -0.3025
   47MOL    C8133293   3.049   2.737   3.462  0.4832 -0.2483  0.6282
   47MOL    O8233294   3.013   2.813   3.350  0.3030 -0.0586  0.3639
   47MOL    C8333295   2.927   2.911   3.368  0.2816  0.5955 -0.6120
   47MOL    O8433296   2.860   2.910   3.469  0.7571  0.0114  0.3788
   47MOL    C8533297   2.932   3.017   3.261 -0.2090 -0.5073 -1.0264
   47MOL    C8633298   2.828   3.129   3.280 -0.3846 -0.3284  0.0927
   47MOL    C8733299   2.909   2.962   3.116  0.3475  0.4777 -0.1940
   47MOL    H8833300   3.579   2.033   3.638 -1.2210 -0.4651  1.3553
   47MOL    H8933301   3.512   2.128   3.504  1.1575 -0.4653  0.1412
   47MOL    H9033302   3.407   2.096   3.640  0.0595  0.7649  2.1158
   47MOL    H9133303   3.673   2.230   3.684 -0.2024 -1.2395  0.8033
   47MOL    H9233304   3.541   2.240   3.796 -1.8516 -0.1754 -1.0805
   47MOL    H9333305   3.582   2.448   3.662 -1.3684 -0.6910  1.3458
   47MOL    H9433306   3.577   2.363   3.519  0.1230 -1.6630 -0.3924
   47MOL    H9533307   3.347   2.416   3.720  1.0858  0.4646  0.3678
   47MOL    H9633308   3.322   2.312   3.585 -1.9396  0.4853  2.8110
   47MOL    H9733309   3.394   2.609   3.549 -1.4098  0.7589 -0.3338
   47MOL    H9833310   3.379   2.484   3.424  0.7278  0.8194 -0.6990
   47MOL    H9933311   3.135   2.458   3.509 -0.1376 -0.1976 -2.3348
   47MOL   H10033312   3.177   2.589   3.625  0.0303  0.0827 -0.1526
   47MOL   H10133313   3.251   2.712   3.406  0.4268  0.1548 -0.5945
   47MOL   H10233314   3.144   2.600   3.325  2.2171  2.4854 -1.7487
   47MOL   H10333315   3.077   2.797   3.548  0.8817 -0.3322  0.5566
   47MOL   H10433316   2.961   2.675   3.479 -1.2907  1.2128 -2.8158
   47MOL   H10533317   2.843   3.178   3.376  2.8702 -2.0399  0.5335
   47MOL   H10633318   2.722   3.103   3.272 -0.3684 -1.2186  2.3591
   47MOL   H10733319   2.847   3.205   3.204 -2.4500 -0.8080 -0.9343
   47MOL   H10833320   2.926   3.044   3.046 -2.9497  1.0034 -0.4369
   47MOL   H10933321   2.996   2.898   3.104 -0.3155 -0.5003  0.2200
   47MOL   C11033322   1.994   3.060   3.473  0.2446  0.3124  0.1820
   47MOL   C11133323   2.109   3.148   3.508 -0.2568  0.0388  0.6028
   47MOL   C11233324   2.134   3.263   3.402 -0.0441  0.2409  0.6035
   47MOL   C11333325   2.219   3.210   3.284 -0.0149 -0.1002 -0.4105
   47MOL   C11433326   2.264   3.326   3.197 -0.1979  0.6774  0.4926
   47MOL   C11533327   2.331   3.264   3.076  0.0629  0.0416 -0.5108
   47MOL   C11633328   2.475   3.207   3.089 -0.4216  0.2231 -0.3833
   47MOL   C11733329   2.540   3.136   2.967  0.1049  0.1240  0.4329
   47MOL   O11833330   2.658   3.062   2.992  0.6787  0.0357  0.1323
   47MOL   C11933331   2.652   2.949   3.066 -0.4843  0.2593  0.5118
   47MOL   O12033332   2.549   2.910   3.123  0.4726  0.3141  0.7308
   47MOL   C12133333   2.787   2.876   3.065 -0.2557  0.1822  0.6975
   47MOL   C12233334   2.772   2.747   3.153 -0.0263  0.2588  0.0471
   47MOL   C12333335   2.826   2.845   2.911  0.0797 -0.0522  0.1109
   47MOL   H12433336   1.914   3.127   3.444  0.8782  0.8658 -0.3084
   47MOL   H12533337   2.022   2.979   3.406  1.8263 -1.1001  2.4286
   47MOL   H12633338   1.961   3.006   3.562  2.2965  1.2864  1.5690
   47MOL   H12733339   2.198   3.087   3.522 -0.5688 -0.7385 -0.8222
   47MOL   H12833340   2.088   3.195   3.604 -1.5171  2.6827 -0.8967
   47MOL   H12933341   2.182   3.349   3.447  0.4681  0.7730 -0.9516
   47MOL   H13033342   2.041   3.314   3.378 -0.0806 -0.5270 -0.9325
   47MOL   H13133343   2.304   3.159   3.328  0.0772  1.3551  1.1836
   47MOL   H13233344   2.167   3.140   3.218 -0.6180  2.5177 -2.8001
   47MOL   H13333345   2.321   3.401   3.251 -0.6932  0.8830  0.7316
   47MOL   H13433346   2.172   3.367   3.157 -0.6571 -0.0588  0.7798
   47MOL   H13533347   2.260   3.193   3.034 -1.2328 -0.5101  2.4957
   47MOL   H13633348   2.330   3.341   2.998  1.1331  2.1950  1.5214
   47MOL   H13733349   2.476   3.141   3.176  0.7783 -0.0977 -0.6211
   47MOL   H13833350   2.538   3.289   3.125 -0.3904 -0.8913  2.2782
   47MOL   H13933351   2.460   3.073   2.928 -0.5610  1.5163 -0.5407
   47MOL   H14033352   2.556   3.223   2.903  1.3274  0.8872  1.7565
   47MOL   H14133353   2.748   2.774   3.255  0.8184  1.1517  0.0123
   47MOL   H14233354   2.682   2.689   3.131  0.4878 -0.0025 -1.4346
   47MOL   H14333355   2.870   2.698   3.150 -0.1428 -0.0809  1.3884
   47MOL   H14433356   2.932   2.821   2.919  0.2168  0.0879 -1.2782
   47MOL   H14533357   2.817   2.939   2.856  1.0541 -0.5000 -0.8094
   47MOL   C14633358   3.476   2.817   2.599  1.2254 -0.1139 -0.1637
   47MOL   C14733359   3.501   2.674   2.656  0.1547  0.2521  0.4239
   47MOL   C14833360   3.378   2.599   2.701 -0.2204 -0.4371  0.4649
   47MOL   C14933361   3.345   2.614   2.852 -0.2170 -0.0702 -0.8084
   47MOL   C15033362   3.230   2.513   2.888 -0.4409 -0.2127 -0.0693
   47MOL   C15133363   3.179   2.529   3.028 -0.1438  0.6022 -0.0192
   47MOL   C15233364   3.050   2.451   3.061  0.3326 -0.1746 -0.0513
   47MOL   C15333365   2.948   2.431   2.945  0.0093  0.2724 -0.3098
   47MOL   O15433366   2.905   2.563   2.909 -0.0230 -0.0684 -0.0945
   47MOL   C15533367   2.783   2.593   2.876  0.2150 -0.0279 -0.6040
   47MOL   O15633368   2.687   2.515   2.892  0.0836  0.3513  0.3903
   47MOL   C15733369   2.759   2.734   2.823  0.4409 -0.2875  0.0128
   47MOL   C15833370   2.610   2.763   2.810  0.4557 -0.1932  0.7953
   47MOL   C15933371   2.822   2.751   2.687 -0.0726 -0.0366  0.3662
   47MOL   H16033372   3.566   2.855   2.551  0.3943  0.3700 -1.3602
   47MOL   H16133373   3.445   2.887   2.677 -0.2225  1.0222 -1.7132
   47MOL   H16233374   3.403   2.806   2.518  0.1746  1.4633  0.5265
   47MOL   H16333375   3.552   2.622   2.575 -1.7575 -0.1631 -0.5250
   47MOL   H16433376   3.575   2.677   2.737  0.3869  0.0990  0.2183
   47MOL   H16533377   3.387   2.492   2.682 -0.4071  0.0128 -2.4513
   47MOL   H16633378   3.296   2.624   2.633 -1.4805 -1.0788  1.7292
   47MOL   H16733379   3.429   2.579   2.911 -0.4471  1.1932  0.2847
   47MOL   H16833380   3.315   2.715   2.881 -1.0476 -0.5657  0.0934
   47MOL   H16933381   3.248   2.408   2.865 -0.1684 -0.4962  1.3859
   47MOL   H17033382   3.151   2.542   2.818  0.9266 -0.9238 -1.9741
   47MOL   H17133383   3.172   2.634   3.055 -2.2671  0.2948  0.6785
   47MOL   H17233384   3.250   2.478   3.094  1.6870  0.5860 -1.9422
   47MOL   H17333385   3.085   2.353   3.093  1.2839  0.1596 -0.0761
   47MOL   H17433386   3.003   2.478   3.155 -0.2156  0.8352 -0.6127
   47MOL   H17533387   2.968   2.390   2.846 -1.6445  3.1498 -1.9039
   47MOL   H17633388   2.861   2.377   2.981 -1.2564  3.1270  1.0128
   47MOL   H17733389   2.558   2.767   2.906 -0.0091 -1.8058  0.6284
   47MOL   H17833390   2.553   2.681   2.766 -3.3041  1.8606  1.7024
   47MOL   H17933391   2.587   2.856   2.759  0.2435 -0.7064 -0.0422
   47MOL   H18033392   2.929   2.729   2.691 -0.2877 -1.1540  0.1264
   47MOL   H18133393   2.807   2.855   2.655  1.0706 -0.2129 -0.7857
   47MOL   C18233394   2.101   3.295   2.056 -0.0117 -0.1666 -0.4347
   47MOL   C18333395   2.148   3.160   1.997 -0.2986  0.0893 -0.0230
   47MOL   C18433396   2.284   3.110   2.038 -0.1681 -1.0976 -0.1377
   47MOL   C18533397   2.330   2.990   1.947  0.0031 -0.2351 -0.2089
   47MOL   C18633398   2.451   2.907   1.992  0.2957 -0.0967 -0.0439
   47MOL   C18733399   2.416   2.831   2.121 -0.2370 -0.6661  0.4485
   47MOL   C18833400   2.542   2.779   2.185 -0.8849 -0.3949 -0.2604
   47MOL   C18933401   2.514   2.682   2.298  0.3734 -0.6883  0.4589
   47MOL   O19033402   2.620   2.653   2.377  0.0580  0.1122  0.3253
   47MOL   C19133403   2.660   2.724   2.476  0.1140 -0.6124  0.0676
   47MOL   O19233404   2.601   2.828   2.514 -0.0043  0.6819  0.0820
   47MOL   C19333405   2.784   2.673   2.556  0.0657  0.0961  0.6404
   47MOL   C19433406   2.755   2.524   2.594  0.0042 -0.1767 -0.2642
   47MOL   C19533407   2.907   2.657   2.453 -0.4852 -0.1032  0.4464
   47MOL   H19633408   2.185   3.365   2.049 -0.7479  0.5240 -2.6123
   47MOL   H19733409   2.020   3.328   1.992 -1.5457 -0.2585  1.4083
   47MOL   H19833410   2.090   3.291   2.164 -0.3406 -2.0642 -0.5395
   47MOL   H19933411   2.147   3.173   1.889 -0.4607  1.5333  0.1427
   47MOL   H20033412   2.073   3.081   2.003 -1.3975  1.1702  0.7279
   47MOL   H20133413   2.355   3.191   2.018  0.2103 -1.9495 -2.4014
   47MOL   H20233414   2.280   3.089   2.145  1.2691  0.6282  0.2916
   47MOL   H20333415   2.247   2.921   1.939 -0.1583 -0.0464 -0.1568
   47MOL   H20433416   2.345   3.030   1.847 -0.4325 -2.1562 -1.0598
   47MOL   H20533417   2.541   2.963   2.014 -1.4132  2.6738  0.1282
   47MOL   H20633418   2.481   2.832   1.919 -1.0615 -0.0359 -0.6901
   47MOL   H20733419   2.343   2.751   2.107  1.1563 -1.7835 -0.5950
   47MOL   H20833420   2.371   2.890   2.202 -3.6393 -0.8465 -1.2355
   47MOL   H20933421   2.617   2.738   2.117 -0.5051 -0.3116  0.1032
   47MOL   H21033422   2.593   2.866   2.227  1.2275 -0.8223 -1.9081
   47MOL   H21133423   2.471   2.586   2.270  1.7865 -1.5424  1.1676
   47MOL   H21233424   2.436   2.730   2.357 -0.5459  0.3066 -1.5293
   47MOL   H21333425   2.842   2.482   2.645 -1.1111 -1.0595  0.9552
   47MOL   H21433426   2.660   2.508   2.646 -0.6962 -0.5524 -1.6158
   47MOL   H21533427   2.735   2.461   2.507  0.3491 -0.2561 -0.2872
   47MOL   H21633428   2.973   2.583   2.499 -1.8243  0.6238  3.6918
   47MOL   H21733429   2.868   2.621   2.358 -1.5223  2.9972 -0.3606
   47MOL   C21833430   3.728   2.235   2.425 -0.0803  0.0587 -0.0141
   47MOL   C21933431   3.740   2.327   2.309  0.4870  0.0538 -0.4602
   47MOL   C22033432   3.631   2.429   2.312 -0.0855 -0.0341  0.2372
   47MOL   C22133433   3.481   2.380   2.295 -0.0734  0.0195  0.2239
   47MOL   C22233434   3.430   2.374   2.153 -0.2155  0.5356  0.4775
   47MOL   C22333435   3.289   2.317   2.138 -0.7478  0.1966 -0.3504
   47MOL   C22433436   3.176   2.393   2.210  0.3003  0.0485 -0.4399
   47MOL   C22533437   3.150   2.537   2.144  0.0925  0.2514  0.1701
   47MOL   O22633438   3.056   2.619   2.216 -0.6795  0.1204  0.6248
   47MOL   C22733439   3.102   2.692   2.313  0.3549 -0.5478 -0.2872
   47MOL   O22833440   3.223   2.691   2.344  0.0300  0.3116  0.1319
   47MOL   C22933441   2.999   2.769   2.396 -0.0475 -0.1128  0.6335
   47MOL   C23033442   3.079   2.829   2.513 -0.3080  0.3835 -0.0013
   47MOL   C23133443   2.918   2.877   2.313  0.1001  0.0409 -0.2409
   47MOL   H23233444   3.807   2.160   2.431 -0.9680 -0.8618  0.3638
   47MOL   H23333445   3.638   2.174   2.421 -0.6189  0.6018  3.1248
   47MOL   H23433446   3.719   2.288   2.519 -0.0223  1.6563 -0.8836
   47MOL   H23533447   3.732   2.263   2.221  2.3784  0.3050 -0.8434
   47MOL   H23633448   3.837   2.375   2.302  0.4741  0.4728  1.8617
   47MOL   H23733449   3.625   2.472   2.412 -1.9344  0.0445  0.1086
   47MOL   H23833450   3.655   2.515   2.250 -1.4868 -0.1954 -0.5442
   47MOL   H23933451   3.467   2.289   2.353  0.5983 -1.1238 -1.3615
   47MOL   H24033452   3.418   2.450   2.349 -2.3663  0.5437 -2.9258
   47MOL   H24133453   3.433   2.478   2.123 -0.8714  0.5036  0.2845
   47MOL   H24233454   3.495   2.327   2.079  0.2928  0.0215  1.2490
   47MOL   H24333455   3.258   2.309   2.034  0.0436  0.3957 -0.6110
   47MOL   H24433456   3.296   2.217   2.182  1.2152  0.4483 -0.0330
   47MOL   H24533457   3.209   2.397   2.313 -2.2895  0.0041  0.4222
   47MOL   H24633458   3.081   2.341   2.197  0.5973 -0.1431 -1.9621
   47MOL   H24733459   3.109   2.524   2.044  0.5552 -0.3593  0.0487
   47MOL   H24833460   3.248   2.584   2.138  0.5810 -0.9692 -2.1494
   47MOL   H24933461   3.157   2.899   2.485 -0.9805  1.1969  0.1086
   47MOL   H25033462   3.125   2.748   2.569  1.1488 -0.4123 -2.2787
   47MOL   H25133463   3.014   2.898   2.567 -4.1664 -1.1805 -2.4492
   47MOL   H25233464   2.835   2.820   2.269 -0.9524  1.8226 -0.6137
   47MOL   H25333465   2.862   2.930   2.390  0.9849 -1.8633  1.7907
   47MOL   C25433466   2.826   2.022   1.736  0.2924 -0.2069  0.2833
   47MOL   C25533467   2.761   2.148   1.790  0.6663 -0.4823 -0.2561
   47MOL   C25633468   2.854   2.211   1.894  0.1522 -0.3879 -0.1152
   47MOL   C25733469   2.817   2.345   1.955 -0.1391 -0.0840  0.0762
   47MOL   C25833470   2.821   2.464   1.860  0.8148 -0.6079  0.3527
   47MOL   C25933471   2.771   2.594   1.923 -0.1152  0.6402 -0.0566
   47MOL   C26033472   2.816   2.726   1.856  0.7252 -0.1997  0.2395
   47MOL   C26133473   2.951   2.771   1.912 -0.0218  0.2021 -0.3750
   47MOL   O26233474   2.923   2.841   2.033 -0.3396  0.3409  0.9440
   47MOL   C26333475   3.019   2.919   2.084  0.1346 -0.4190 -0.7450
   47MOL   O26433476   3.132   2.929   2.042  0.0650 -0.0883 -0.0439
   47MOL   C26533477   2.973   2.990   2.213 -0.2945  0.5630 -0.6770
   47MOL   C26633478   3.099   3.060   2.287 -0.6889 -0.4003 -0.1378
   47MOL   C26733479   2.856   3.090   2.186 -0.2042  0.0066  0.1145
   47MOL   H26833480   2.757   1.948   1.694  1.5348 -1.0639 -0.2904
   47MOL   H26933481   2.909   2.047   1.670  0.7902  0.6692  1.2455
   47MOL   H27033482   2.872   1.963   1.815  0.4618 -1.2733 -0.5857
   47MOL   H27133483   2.748   2.213   1.704 -1.5276 -0.2342  0.2290
   47MOL   H27233484   2.657   2.130   1.818  0.3016 -1.2692 -2.0654
   47MOL   H27333485   2.956   2.227   1.861 -0.1750 -0.2467 -1.0798
   47MOL   H27433486   2.871   2.134   1.968 -2.8118  0.5412  1.6317
   47MOL   H27533487   2.879   2.356   2.044 -0.9203  1.6306  0.4215
   47MOL   H27633488   2.716   2.333   1.992  0.5424  0.4599  2.1829
   47MOL   H27733489   2.922   2.485   1.826  0.3096 -1.8421 -2.0727
   47MOL   H27833490   2.762   2.447   1.769  0.5803 -2.4613  0.8261
   47MOL   H27933491   2.803   2.589   2.027  1.9831  1.5361 -0.6201
   47MOL   H28033492   2.662   2.587   1.922 -0.0654 -0.5017  1.0020
   47MOL   H28133493   2.819   2.714   1.748  0.6729 -1.8505  0.4150
   47MOL   H28233494   2.744   2.804   1.882 -0.9181 -1.5292 -0.2555
   47MOL   H28333495   3.017   2.684   1.911  0.7201  0.7507 -2.2232
   47MOL   H28433496   2.986   2.837   1.832 -0.3740  0.9706  0.1037
   47MOL   H28533497   3.131   3.153   2.239 -1.0251 -1.5819 -2.7298
   47MOL   H28633498   3.077   3.096   2.388  1.7530  0.3105  0.1664
   47MOL   H28733499   3.187   2.999   2.305  0.3706  1.2451  0.4407
   47MOL   H28833500   2.853   3.151   2.276  1.1616  2.0550 -1.1970
   47MOL   H28933501   2.762   3.037   2.169  0.6460 -0.9575 -1.7364
   47MOL   C29033502   2.180   4.154   1.925 -0.2644  0.8962 -0.3708
   47MOL   C29133503   2.223   4.044   2.024  0.3970  0.5063  0.5635
   47MOL   C29233504   2.256   3.901   1.969  0.1562  0.7986  0.0317
   47MOL   C29333505   2.274   3.792   2.073  0.1681  0.2086  0.1832
   47MOL   C29433506   2.329   3.657   2.022 -0.3300  0.7593 -0.0638
   47MOL   C29533507   2.394   3.557   2.119  0.0593 -0.0028 -0.2023
   47MOL   C29633508   2.490   3.457   2.060  0.3378  0.6352 -0.6625
   47MOL   C29733509   2.549   3.366   2.176 -0.6305 -0.1113  0.3443
   47MOL   O29833510   2.646   3.274   2.140  0.1774  0.1731  0.1128
   47MOL   C29933511   2.772   3.316   2.121  0.4175 -0.3193  0.6984
   47MOL   O30033512   2.814   3.434   2.145 -0.5645  0.6603  0.9910
   47MOL   C30133513   2.857   3.198   2.067  0.5134 -0.0043  0.2066
   47MOL   C30233514   2.992   3.252   2.035  0.5570 -0.5977 -0.2254
   47MOL   C30333515   2.782   3.134   1.943  0.2974 -0.3811  0.6181
   47MOL   H30433516   2.083   4.131   1.883  0.5520  0.6821 -2.1724
   47MOL   H30533517   2.257   4.163   1.848  1.1761 -0.0656  0.9129
   47MOL   H30633518   2.180   4.245   1.986 -0.3171  0.1861  0.6869
   47MOL   H30733519   2.145   4.039   2.101  2.9277 -0.4478  3.1650
   47MOL   H30833520   2.314   4.074   2.075  1.2379  2.2800 -1.9114
   47MOL   H30933521   2.344   3.911   1.905 -0.0132  1.8200 -0.0461
   47MOL   H31033522   2.171   3.874   1.906 -0.7717  1.0665  1.1486
   47MOL   H31133523   2.346   3.828   2.147 -1.1649  0.6089  1.3171
   47MOL   H31233524   2.181   3.780   2.128 -0.2321  1.4348 -0.2038
   47MOL   H31333525   2.249   3.603   1.972 -1.6768  1.1262  1.6315
   47MOL   H31433526   2.403   3.682   1.946  0.1234  1.0307  0.4658
   47MOL   H31533527   2.316   3.519   2.184  1.6380  1.3156  2.5248
   47MOL   H31633528   2.457   3.614   2.187 -0.8353 -0.3358  0.9204
   47MOL   H31733529   2.577   3.506   2.018  1.7055  0.1257  1.4670
   47MOL   H31833530   2.443   3.389   1.989 -2.0763  2.3764 -0.8110
   47MOL   H31933531   2.463   3.310   2.213 -1.5082  0.4771 -0.7661
   47MOL   H32033532   2.593   3.429   2.254 -2.1777 -0.1463  1.2745
   47MOL   H32133533   3.045   3.295   2.120  0.6705 -2.3899  0.6351
   47MOL   H32233534   2.976   3.338   1.970  0.0524  0.0228  0.7106
   47MOL   H32333535   3.058   3.180   1.988 -0.3282 -1.6429  0.1201
   47MOL   H32433536   2.808   3.029   1.931  2.0091  0.1307 -0.2391
   47MOL   H32533537   2.676   3.128   1.969 -0.1715  2.6230 -0.3830
   47MOL   C32633538   3.476   3.290   1.099 -0.0106 -0.2916  0.3045
   47MOL   C32733539   3.470   3.341   1.245 -0.0243  0.2429 -0.0362
   47MOL   C32833540   3.532   3.242   1.340 -0.1905  0.1450  0.6675
   47MOL   C32933541   3.557   3.316   1.478  0.6249  0.0808 -0.1622
   47MOL   C33033542   3.427   3.339   1.552 -0.5561 -0.1110  0.4926
   47MOL   C33133543   3.375   3.225   1.639 -0.7800 -0.0241  0.1481
   47MOL   C33233544   3.243   3.252   1.707 -0.0883 -0.0513  0.1030
   47MOL   C33333545   3.117   3.250   1.625  0.0825 -0.3556 -0.0037
   47MOL   O33433546   2.999   3.268   1.702 -0.2528  0.1677 -0.0761
   47MOL   C33533547   2.910   3.170   1.723  0.0261 -0.5422  0.2493
   47MOL   O33633548   2.936   3.055   1.693  0.1215 -0.0697 -0.1314
   47MOL   C33733549   2.775   3.200   1.792 -0.1978 -0.3493 -0.5431
   47MOL   C33833550   2.668   3.114   1.722  0.4159 -0.4436 -1.2026
   47MOL   C33933551   2.730   3.350   1.800 -0.2596 -0.1132  0.4332
   47MOL   H34033552   3.432   3.364   1.032 -2.1806 -0.6210  1.3332
   47MOL   H34133553   3.417   3.199   1.089 -1.6504  0.8617 -0.7234
   47MOL   H34233554   3.574   3.276   1.053 -0.9881 -1.1003 -1.5978
   47MOL   H34333555   3.365   3.361   1.263 -0.0412 -1.1282  1.5263
   47MOL   H34433556   3.539   3.424   1.259 -1.7561  1.8817 -1.0958
   47MOL   H34533557   3.629   3.216   1.298 -1.2775 -1.9968 -0.6218
   47MOL   H34633558   3.471   3.151   1.340 -0.0029 -0.0400 -2.1020
   47MOL   H34733559   3.605   3.413   1.467  0.4534  0.0506 -1.2151
   47MOL   H34833560   3.624   3.252   1.536 -1.7133 -1.1092  1.3129
   47MOL   H34933561   3.441   3.431   1.609 -0.8731  1.7028 -2.2687
   47MOL   H35033562   3.353   3.373   1.478 -0.6329  0.0017  0.6198
   47MOL   H35133563   3.373   3.132   1.581 -2.2270 -1.6693  2.7175
   47MOL   H35233564   3.442   3.196   1.720  0.4099  1.2173 -0.3749
   47MOL   H35333565   3.251   3.347   1.760  0.8675  0.4092 -0.8649
   47MOL   H35433566   3.227   3.170   1.778 -1.1125  0.0450 -0.0035
   47MOL   H35533567   3.132   3.336   1.560  0.9805 -0.2782  0.2990
   47MOL   H35633568   3.126   3.155   1.571  0.1668  1.1241 -2.6721
   47MOL   H35733569   2.567   3.143   1.750  1.3457  0.7592  1.0860
   47MOL   H35833570   2.673   3.097   1.615 -0.5414 -1.2200 -1.1267
   47MOL   H35933571   2.684   3.008   1.740 -1.0468 -0.6686 -1.2176
   47MOL   H36033572   2.651   3.353   1.875  0.0056 -1.4740  0.7930
   47MOL   H36133573   2.819   3.405   1.830 -0.8884  1.9653 -1.3768
   47MOL   C36233574   2.171   4.105   1.532 -0.0401 -0.0043  0.1505
   47MOL   C36333575   2.266   3.992   1.531 -0.9597 -0.3555 -0.4488
   47MOL   C36433576   2.219   3.864   1.592 -0.2120  0.6572  0.2644
   47MOL   C36533577   2.135   3.766   1.506 -0.0473 -0.0169 -0.2769
   47MOL   C36633578   2.107   3.634   1.583  0.0014 -0.6310 -0.4486
   47MOL   C36733579   2.239   3.553   1.593  0.0068  0.1672  0.3937
   47MOL   C36833580   2.220   3.420   1.664 -0.0844  0.4736  0.0893
   47MOL   C36933581   2.326   3.322   1.612  0.9280  0.0943  0.5274
   47MOL   O37033582   2.450   3.360   1.669  0.6012 -0.2770 -0.2349
   47MOL   C37133583   2.557   3.366   1.597 -0.3465  0.0085  0.4028
   47MOL   O37233584   2.564   3.329   1.482  0.7458 -0.3903 -0.1100
   47MOL   C37333585   2.679   3.429   1.666 -0.1706  0.3018 -0.4598
   47MOL   C37433586   2.789   3.436   1.556 -0.0567 -0.2262  0.1957
   47MOL   C37533587   2.631   3.573   1.710 -0.4065  0.0944  0.4803
   47MOL   H37633588   2.157   4.160   1.625  0.4316  1.8350 -0.8446
   47MOL   H37733589   2.201   4.178   1.457 -0.0231  1.5325  1.6191
   47MOL   H37833590   2.074   4.071   1.495 -0.3412 -0.6287  1.4797
   47MOL   H37933591   2.353   4.023   1.589 -0.4276 -1.3143 -0.7211
   47MOL   H38033592   2.307   3.974   1.431 -0.2458  1.5143 -0.5097
   47MOL   H38133593   2.165   3.880   1.685 -0.3014 -1.7531  0.6735
   47MOL   H38233594   2.314   3.814   1.611  0.8965  2.6555  0.1066
   47MOL   H38333595   2.170   3.752   1.404  0.0169 -0.9365 -0.1304
   47MOL   H38433596   2.039   3.816   1.491 -0.2371 -0.1535  0.4490
   47MOL   H38533597   2.071   3.659   1.684  3.7793 -0.9867  1.0451
   47MOL   H38633598   2.036   3.572   1.529  1.0274 -0.6568 -1.7787
   47MOL   H38733599   2.314   3.602   1.654 -0.5359 -0.4920  1.6211
   47MOL   H38833600   2.274   3.528   1.493 -1.8795  0.6043 -0.3954
   47MOL   H38933601   2.120   3.383   1.641  0.5041 -1.6482  0.8273
   47MOL   H39033602   2.231   3.434   1.771 -1.8018 -0.9283  0.4696
   47MOL   H39133603   2.314   3.220   1.650 -0.2907  0.7879  2.0614
   47MOL   H39233604   2.335   3.316   1.504  2.0820  0.3733  0.5989
   47MOL   H39333605   2.752   3.498   1.474  2.2298  0.1895 -0.5460
   47MOL   H39433606   2.878   3.482   1.597 -0.5095  0.8787 -0.0424
   47MOL   H39533607   2.818   3.336   1.521 -1.1156 -0.1759 -0.8738
   47MOL   H39633608   2.553   3.599   1.638  0.6648  2.8028  0.2263
   47MOL   H39733609   2.577   3.565   1.804 -0.6064 -0.8944  0.2862
   47MOL   C39833610   2.297   3.317   0.826  0.0373 -0.2170  0.2617
   47MOL   C39933611   2.296   3.390   0.966 -0.0497  0.0898 -0.2350
   47MOL   C40033612   2.399   3.337   1.068  0.1997 -0.3925 -0.3118
   47MOL   C40133613   2.414   3.418   1.200  0.1311 -0.0061  0.2938
   47MOL   C40233614   2.485   3.552   1.178 -0.4084 -0.2371  0.1353
   47MOL   C40333615   2.522   3.633   1.309  0.0818  0.6740  0.6686
   47MOL   C40433616   2.622   3.747   1.268  0.2114  0.1036 -0.6959
   47MOL   C40533617   2.657   3.845   1.380 -0.6917  0.4147  0.1909
   47MOL   O40633618   2.645   3.796   1.511  0.6172  0.3401 -0.5861
   47MOL   C40733619   2.755   3.751   1.581  0.1241  0.0010  0.2045
   47MOL   O40833620   2.868   3.738   1.531 -0.0211  0.2320  0.4024
   47MOL   C40933621   2.721   3.707   1.727  0.1056  0.3107 -0.1537
   47MOL   C41033622   2.633   3.812   1.791  0.1069  0.1408  0.1300
   47MOL   C41133623   2.844   3.678   1.822 -0.3103  0.3008  0.2758
   47MOL   H41233624   2.273   3.211   0.838  1.3961 -0.7055 -1.1685
   47MOL   H41333625   2.401   3.325   0.794 -0.0656 -0.0333 -0.0229
   47MOL   H41433626   2.242   3.355   0.741 -1.2044 -1.4138  0.5188
   47MOL   H41533627   2.196   3.404   1.006 -1.0677  1.4865 -3.1217
   47MOL   H41633628   2.327   3.492   0.944  1.1025 -0.5334 -1.6002
   47MOL   H41733629   2.368   3.239   1.104  0.8043 -0.3187  0.4196
   47MOL   H41833630   2.496   3.326   1.019 -0.5638  0.7933 -2.1685
   47MOL   H41933631   2.484   3.363   1.263 -1.0460 -0.5073  1.1578
   47MOL   H42033632   2.324   3.441   1.257  0.1158  0.0723  0.2391
   47MOL   H42133633   2.574   3.531   1.120  0.0546  0.3885  0.6131
   47MOL   H42233634   2.425   3.625   1.123 -0.3372 -0.4628 -0.2454
   47MOL   H42333635   2.572   3.579   1.389  1.9422 -0.3300 -1.1348
   47MOL   H42433636   2.432   3.680   1.349  0.6116  1.5176  0.8919
   47MOL   H42533637   2.709   3.702   1.221 -0.5094 -0.9960 -1.0169
   47MOL   H42633638   2.578   3.796   1.182  1.5842  0.4471 -1.2129
   47MOL   H42733639   2.751   3.900   1.375  0.2138 -1.1086  0.1045
   47MOL   H42833640   2.578   3.917   1.358 -1.1262 -0.6955 -2.0513
   47MOL   H42933641   2.626   3.799   1.899  0.9169  2.6416  0.5124
   47MOL   H43033642   2.541   3.832   1.737 -0.1924 -0.3735  0.4411
   47MOL   H43133643   2.688   3.906   1.793 -1.1570  0.9120 -0.8879
   47MOL   H43233644   2.909   3.606   1.772  1.6408  1.4697  1.0314
   47MOL   H43333645   2.822   3.614   1.907 -0.1777  0.0009  0.0860
   47MOL   C43433646   2.575   3.785   2.964 -0.0416  0.2058  0.3155
   47MOL   C43533647   2.512   3.656   2.912 -0.3586 -0.4010  0.3938
   47MOL   C43633648   2.605   3.601   2.794  0.2846  0.1998  0.1014
   47MOL   C43733649   2.604   3.696   2.670  0.3150 -0.2569  0.9017
   47MOL   C43833650   2.684   3.661   2.545 -0.1938 -0.4829  0.5274
   47MOL   C43933651   2.682   3.781   2.448 -0.2586  0.4316  0.2899
   47MOL   C44033652   2.742   3.733   2.304  0.3506 -0.0313 -1.0083
   47MOL   C44133653   2.775   3.841   2.208  0.1312  0.3437 -0.4671
   47MOL   O44233654   2.822   3.791   2.091  0.3740  0.4218 -0.0602
   47MOL   C44333655   2.872   3.872   2.000  0.1879 -0.9093 -0.0442
   47MOL   O44433656   2.867   3.996   2.006 -0.5705  0.1813 -0.0092
   47MOL   C44533657   2.941   3.796   1.876 -0.2855  0.0306  0.0536
   47MOL   C44633658   2.982   3.899   1.771  0.5482 -0.0792  0.1089
   47MOL   C44733659   3.066   3.705   1.936  0.0949  0.0284 -0.0685
   47MOL   H44833660   2.542   3.801   3.066 -0.4640  2.2707 -0.1263
   47MOL   H44933661   2.532   3.871   2.912 -0.0737  0.0105  0.0161
   47MOL   H45033662   2.684   3.792   2.956  0.1489 -0.9264  1.6926
   47MOL   H45133663   2.409   3.675   2.880  0.6139  0.2634 -2.5178
   47MOL   H45233664   2.517   3.580   2.990  0.8656 -1.4600 -0.6972
   47MOL   H45333665   2.584   3.499   2.763 -1.5957  0.3423  0.8520
   47MOL   H45433666   2.708   3.592   2.829  0.4173 -1.0637 -0.5935
   47MOL   H45533667   2.613   3.803   2.687 -4.5298  1.0646 -3.6207
   47MOL   H45633668   2.499   3.692   2.641 -0.2278  0.1450  2.7446
   47MOL   H45733669   2.790   3.645   2.564  0.0265 -1.1206 -1.1508
   47MOL   H45833670   2.636   3.574   2.499  0.3511  0.0574 -1.0915
   47MOL   H45933671   2.750   3.851   2.496  0.6937  0.7421 -1.4824
   47MOL   H46033672   2.578   3.812   2.440 -0.9483 -1.9032 -0.1698
   47MOL   H46133673   2.828   3.671   2.330 -1.7196 -1.3099  3.2062
   47MOL   H46233674   2.662   3.672   2.263 -0.2317 -1.7049  2.4071
   47MOL   H46333675   2.846   3.910   2.254 -0.6439  1.4624 -0.9317
   47MOL   H46433676   2.681   3.896   2.202  0.4505  1.1314  1.2796
   47MOL   H46533677   3.035   3.982   1.818  2.8170 -2.3619  1.7323
   47MOL   H46633678   3.039   3.849   1.693  1.3276  2.5837 -1.0962
   47MOL   H46733679   2.898   3.947   1.722  0.0148 -0.4012  0.7009
   47MOL   H46833680   3.041   3.654   2.029  1.2560 -1.4731 -0.5517
   47MOL   H46933681   3.089   3.623   1.868 -1.0804 -0.7232  0.4268
   47MOL   C47033682   2.803   3.333   1.037  0.6898 -0.2716 -0.0560
   47MOL   C47133683   2.872   3.382   1.168  0.5840 -0.5665 -0.3314
   47MOL   C47233684   3.005   3.454   1.155  0.0834  0.0768  0.3214
   47MOL   C47333685   3.043   3.534   1.280  1.3727 -0.0494 -0.5207
   47MOL   C47433686   3.160   3.622   1.252  0.0444  0.2524  0.6769
   47MOL   C47533687   3.201   3.719   1.367 -0.2695 -0.3202 -0.8279
   47MOL   C47633688   3.217   3.657   1.508 -0.0838 -0.7227  0.2959
   47MOL   C47733689   3.298   3.752   1.596 -0.1038  0.1013 -0.0709
   47MOL   O47833690   3.256   3.725   1.732 -0.1810  0.3503  0.0180
   47MOL   C47933691   3.264   3.815   1.831 -0.3110  0.2612  0.0959
   47MOL   O48033692   3.332   3.918   1.829  0.5641 -0.4241  0.2265
   47MOL   C48133693   3.201   3.771   1.959  0.1778  0.1593 -0.4641
   47MOL   C48233694   3.187   3.895   2.055  0.2112 -0.3965 -0.9094
   47MOL   C48333695   3.289   3.666   2.034  0.2141  0.4883  0.1809
   47MOL   H48433696   2.863   3.274   0.967  0.5211 -1.4456  0.7828
   47MOL   H48533697   2.759   3.422   0.993 -0.8360 -1.2085 -0.4330
   47MOL   H48633698   2.727   3.256   1.051 -0.6956  0.4545 -3.1094
   47MOL   H48733699   2.810   3.448   1.229  1.2977 -0.5855  0.4355
   47MOL   H48833700   2.894   3.297   1.233  1.4745  0.4984  0.7775
   47MOL   H48933701   3.074   3.389   1.103 -1.1618 -0.4636 -0.6901
   47MOL   H49033702   2.994   3.529   1.077  1.6114 -1.4073 -1.3287
   47MOL   H49133703   2.960   3.598   1.309 -0.1101 -1.5524 -1.3022
   47MOL   H49233704   3.056   3.463   1.362 -1.0035 -0.8739 -0.8090
   47MOL   H49333705   3.245   3.555   1.244 -1.2455 -1.2709 -0.5542
   47MOL   H49433706   3.148   3.669   1.154 -0.2598 -0.9369  0.1351
   47MOL   H49533707   3.287   3.782   1.345 -0.9576  1.0356  0.3287
   47MOL   H49633708   3.127   3.799   1.369 -0.2458 -0.3151 -0.2480
   47MOL   H49733709   3.125   3.619   1.552 -0.6486 -1.5630 -1.5649
   47MOL   H49833710   3.284   3.572   1.493  0.7633 -0.0824  0.4032
   47MOL   H49933711   3.273   3.857   1.578  1.7516  0.9052  1.8189
   47MOL   H50033712   3.406   3.745   1.589 -0.3028 -0.3172 -3.5895
   47MOL   H50133713   3.283   3.945   2.067  0.3377 -1.6001  3.8987
   47MOL   H50233714   3.150   3.881   2.156  0.2323 -1.4070 -1.0393
   47MOL   H50333715   3.128   3.975   2.010 -3.0500 -0.4654  3.0180
   47MOL   H50433716   3.237   3.634   2.125 -1.1986  2.6001  0.1438
   47MOL   H50533717   3.286   3.570   1.982 -0.2263  1.3379 -1.3630
   47MOL   C50633718   3.932   3.973   0.980 -0.6752  0.0446  0.6616
   47MOL   C50733719   3.970   3.875   1.088 -0.4922 -0.3254 -0.2950
   47MOL   C50833720   3.863   3.871   1.203  0.2857  0.3601 -0.1158
   47MOL   C50933721   3.893   3.789   1.330 -0.0272  0.5454  0.7291
   47MOL   C51033722   3.773   3.787   1.426  0.2492  0.6032 -0.1626
   47MOL   C51133723   3.808   3.705   1.551  0.3936  0.3034  0.2532
   47MOL   C51233724   3.705   3.715   1.663  0.1557 -0.4100 -0.4788
   47MOL   C51333725   3.732   3.635   1.793  0.0646  0.5842 -0.4108
   47MOL   O51433726   3.651   3.682   1.901  0.2409  0.4274 -0.4527
   47MOL   C51533727   3.526   3.628   1.922  0.2476 -0.3224  0.2543
   47MOL   O51633728   3.471   3.562   1.834  0.2559  0.0961 -0.5836
   47MOL   C51733729   3.448   3.664   2.057 -0.1786  0.3152  0.6851
   47MOL   C51833730   3.491   3.802   2.106 -0.4805  0.1956  0.2992
   47MOL   C51933731   3.489   3.573   2.181  1.0519  0.0626  0.4469
   47MOL   H52033732   4.015   3.989   0.910  0.8731  1.3146  2.7415
   47MOL   H52133733   3.927   4.068   1.033  1.2759 -0.6744  2.1761
   47MOL   H52233734   3.845   3.940   0.924 -0.3418 -2.4766  1.5913
   47MOL   H52333735   4.067   3.917   1.114  0.3431 -1.1821 -1.9131
   47MOL   H52433736   3.984   3.776   1.044  0.6392  0.0342 -0.7465
   47MOL   H52533737   3.838   3.970   1.241 -0.6028 -0.0281  0.3174
   47MOL   H52633738   3.775   3.830   1.154 -1.6754  1.1915  2.6004
   47MOL   H52733739   3.917   3.686   1.305  2.0422  1.2143 -0.1768
   47MOL   H52833740   3.982   3.824   1.384  0.3386  0.4018  0.2197
   47MOL   H52933741   3.737   3.888   1.444 -0.7162  0.0856  0.8411
   47MOL   H53033742   3.695   3.731   1.374  0.8669 -0.9361  0.5119
   47MOL   H53133743   3.905   3.732   1.593  1.0783  0.5137 -1.4308
   47MOL   H53233744   3.819   3.600   1.523 -2.2347 -0.5473  2.2551
   47MOL   H53333745   3.613   3.672   1.622 -1.2627  0.8016  1.3390
   47MOL   H53433746   3.686   3.816   1.701 -0.9782 -0.8387  0.1273
   47MOL   H53533747   3.838   3.636   1.821 -0.3131  0.2938  1.0928
   47MOL   H53633748   3.712   3.533   1.762 -0.5967  1.1578 -1.9353
   47MOL   H53733749   3.599   3.801   2.124 -0.3861 -0.3858 -0.3114
   47MOL   H53833750   3.436   3.839   2.193 -0.6757  0.8760 -0.1069
   47MOL   H53933751   3.484   3.877   2.027  0.1039  1.4449  1.3976
   47MOL   H54033752   3.571   3.618   2.237  0.8393  0.4919  0.4157
   47MOL   H54133753   3.413   3.591   2.257 -0.7884 -2.8236 -0.6359
   47MOL   C54233754   4.553   3.722   2.110  0.1233  0.7837  0.6360
   47MOL   C54333755   4.601   3.597   2.026 -0.0437 -0.1755 -0.0073
   47MOL   C54433756   4.508   3.476   2.035  0.1191  0.2091  0.6172
   47MOL   C54533757   4.380   3.501   1.957 -0.2061 -0.1426 -0.4134
   47MOL   C54633758   4.254   3.522   2.051  0.9071 -0.3024 -0.1648
   47MOL   C54733759   4.115   3.476   2.005 -0.0734 -0.1659 -0.1395
   47MOL   C54833760   3.995   3.497   2.108  0.3189 -0.4310  0.0845
   47MOL   C54933761   3.869   3.432   2.043  0.3920  0.4748 -0.6563
   47MOL   O55033762   3.755   3.461   2.117  0.5736  0.4331 -0.5942
   47MOL   C55133763   3.641   3.394   2.080  0.1218 -0.3558 -0.6194
   47MOL   O55233764   3.635   3.309   1.988 -0.1889 -0.3881 -0.8349
   47MOL   C55333765   3.522   3.425   2.169 -0.7266  0.4301  0.7337
   47MOL   C55433766   3.404   3.335   2.128  0.2496 -0.0845 -0.0164
   47MOL   C55533767   3.559   3.383   2.310  0.4090 -0.1097  0.3056
   47MOL   H55633768   4.452   3.748   2.078 -0.3304 -1.7151 -0.0629
   47MOL   H55733769   4.625   3.803   2.121  0.8842 -0.1290  2.5832
   47MOL   H55833770   4.541   3.689   2.214 -3.7177  2.4403  0.8217
   47MOL   H55933771   4.623   3.627   1.924  2.1673  0.3611  0.5972
   47MOL   H56033772   4.704   3.583   2.061  0.7621  3.0941 -0.9216
   47MOL   H56133773   4.488   3.452   2.140 -0.2376  0.2701  0.5647
   47MOL   H56233774   4.565   3.395   1.990 -1.0104 -1.3155  1.8638
   47MOL   H56333775   4.397   3.570   1.874  1.1246 -1.9730 -1.6984
   47MOL   H56433776   4.362   3.405   1.909 -0.0783  0.4478 -1.6569
   47MOL   H56533777   4.244   3.628   2.073 -0.4676 -0.2305 -1.0456
   47MOL   H56633778   4.269   3.474   2.148  0.7358 -0.2507 -0.1133
   47MOL   H56733779   4.095   3.526   1.910  1.0810 -1.3187 -1.0026
   47MOL   H56833780   4.109   3.372   1.972 -0.9956  0.5348 -2.2265
   47MOL   H56933781   4.028   3.455   2.202 -0.1487 -3.3042 -0.9874
   47MOL   H57033782   3.976   3.603   2.123 -0.5660 -0.1956 -2.3360
   47MOL   H57133783   3.885   3.324   2.040 -2.0193  0.1127 -1.3555
   47MOL   H57233784   3.853   3.464   1.940  1.5824 -0.0580 -1.0121
   47MOL   H57333785   3.436   3.238   2.089  0.5274 -0.5471  1.3133
   47MOL   H57433786   3.345   3.375   2.046  0.3846 -1.5974 -0.8766
   47MOL   H57533787   3.337   3.323   2.213  0.0298  2.3947  0.2082
   47MOL   H57633788   3.471   3.376   2.373 -0.0995 -2.9594 -0.6580
   47MOL   H57733789   3.630   3.454   2.354  0.9054  0.7360 -1.7566
   47MOL   C57833790   3.280   2.392   1.741 -0.3414 -0.1704 -0.1868
   47MOL   C57933791   3.337   2.504   1.647  0.1286 -0.0858  0.0698
   47MOL   C58033792   3.393   2.625   1.719 -0.4920  0.1866  0.3033
   47MOL   C58133793   3.295   2.741   1.739  0.6535  0.1618 -0.4636
   47MOL   C58233794   3.353   2.869   1.807  0.4454 -0.3065 -0.0678
   47MOL   C58333795   3.418   2.828   1.942 -0.4521  0.2629 -0.0570
   47MOL   C58433796   3.464   2.949   2.020 -0.3416  0.4221 -0.3269
   47MOL   C58533797   3.518   2.928   2.163  0.0159 -0.1113 -0.2277
   47MOL   O58633798   3.572   3.052   2.213 -0.4050  0.4043  0.5716
   47MOL   C58733799   3.529   3.118   2.322  0.0317  0.3230  0.5798
   47MOL   O58833800   3.433   3.090   2.398 -0.2374 -0.4089  0.1726
   47MOL   C58933801   3.622   3.240   2.352  0.1579  0.0545  0.7249
   47MOL   C59033802   3.629   3.249   2.503 -0.3080  0.4024 -0.0381
   47MOL   C59133803   3.769   3.209   2.295  0.3713 -0.2222 -0.4201
   47MOL   H59233804   3.188   2.419   1.793 -0.6842 -2.2723  0.3675
   47MOL   H59333805   3.350   2.362   1.820  1.7129  0.8702 -1.5809
   47MOL   H59433806   3.239   2.310   1.682  0.0895 -0.9521  0.5700
   47MOL   H59533807   3.253   2.539   1.586  0.9253  0.9410 -0.4366
   47MOL   H59633808   3.412   2.459   1.582  0.2363 -0.6720  0.5984
   47MOL   H59733809   3.485   2.652   1.668 -0.7752 -1.1242 -0.9356
   47MOL   H59833810   3.437   2.583   1.810 -2.7586 -2.2302  0.3635
   47MOL   H59933811   3.218   2.703   1.805  0.5842  1.5381  0.2668
   47MOL   H60033812   3.241   2.771   1.649 -1.0124  1.3368  0.8982
   47MOL   H60133813   3.276   2.943   1.829  0.4762  0.0995 -1.2620
   47MOL   H60233814   3.432   2.915   1.747  1.2367 -1.0117  0.4326
   47MOL   H60333815   3.496   2.754   1.925 -2.3636 -1.3093 -2.5475
   47MOL   H60433816   3.346   2.768   1.998  0.9466  0.1577  1.6468
   47MOL   H60533817   3.380   3.017   2.039 -0.9171 -0.2933 -0.2662
   47MOL   H60633818   3.526   3.007   1.953 -0.6806  1.1489 -0.0115
   47MOL   H60733819   3.431   2.904   2.224 -0.1187  0.2656 -0.2703
   47MOL   H60833820   3.590   2.848   2.180 -0.3678 -0.1791  1.2262
   47MOL   H60933821   3.661   3.161   2.558 -0.7214  0.2317 -0.0724
   47MOL   H61033822   3.696   3.327   2.540  1.8910 -1.8849  0.8858
   47MOL   H61133823   3.535   3.273   2.553  0.9296  1.7757  1.7231
   47MOL   H61233824   3.818   3.306   2.302  1.1389 -0.6669  0.4712
   47MOL   H61333825   3.768   3.179   2.190 -0.4554  0.9673 -0.7679
   47MOL   C61433826   4.663   4.003   2.755  0.2626 -0.7249  0.0492
   47MOL   C61533827   4.593   3.866   2.781 -0.1896  0.1686  0.2745
   47MOL   C61633828   4.496   3.824   2.669  0.2588 -0.2707 -0.5418
   47MOL   C61733829   4.417   3.698   2.719 -0.9868 -0.5935 -0.4129
   47MOL   C61833830   4.337   3.630   2.604  0.1405 -0.6855  0.1919
   47MOL   C61933831   4.246   3.508   2.658 -0.0296  0.0352 -0.3024
   47MOL   C62033832   4.173   3.444   2.539  0.2717  0.2441  0.0292
   47MOL   C62133833   4.066   3.345   2.586  0.4920 -0.8366 -0.0602
   47MOL   O62233834   3.991   3.289   2.477 -0.3522 -0.3801  0.7796
   47MOL   C62333835   3.929   3.170   2.503  0.0893 -0.0901 -0.7072
   47MOL   O62433836   3.910   3.116   2.610  0.3944 -0.4382 -0.0147
   47MOL   C62533837   3.870   3.108   2.370  0.5615 -0.6357  0.6635
   47MOL   C62633838   3.796   2.969   2.411  0.5611 -0.3546 -0.4698
   47MOL   C62733839   3.984   3.073   2.264 -0.0146  0.4015  0.0724
   47MOL   H62833840   4.754   4.018   2.813 -0.0176  0.6134  0.1692
   47MOL   H62933841   4.599   4.091   2.766  1.5369  0.2418 -0.2742
   47MOL   H63033842   4.683   4.006   2.648  2.2274  0.0125  0.4271
   47MOL   H63133843   4.660   3.782   2.797 -0.5277  0.2542  2.2782
   47MOL   H63233844   4.534   3.885   2.871  1.4143  0.1308  1.3652
   47MOL   H63333845   4.554   3.803   2.580 -1.5959 -0.0334 -1.8295
   47MOL   H63433846   4.430   3.908   2.648  0.5622  0.3903  1.0752
   47MOL   H63533847   4.352   3.714   2.805 -1.4185  3.4589 -1.3746
   47MOL   H63633848   4.485   3.622   2.757 -0.2724  0.7703  1.1208
   47MOL   H63733849   4.273   3.705   2.558  1.7931  0.4818 -0.2445
   47MOL   H63833850   4.398   3.588   2.525 -1.7368 -1.6785 -0.7718
   47MOL   H63933851   4.305   3.439   2.718 -0.7756  0.3586  0.8171
   47MOL   H64033852   4.176   3.549   2.731  2.4959  0.8756  1.7304
   47MOL   H64133853   4.247   3.391   2.480 -1.6799 -1.5316 -0.8740
   47MOL   H64233854   4.123   3.523   2.482 -1.3967 -1.6398 -1.1689
   47MOL   H64333855   4.119   3.265   2.638  1.4118 -1.4820 -1.9585
   47MOL   H64433856   3.991   3.396   2.647 -0.2311 -1.0794 -0.7411
   47MOL   H64533857   3.879   2.905   2.442  0.2826  0.0886  1.2085
   47MOL   H64633858   3.748   2.912   2.331 -1.7980  1.7664 -0.6149
   47MOL   H64733859   3.729   2.975   2.496  1.0778 -2.4836  0.1153
   47MOL   H64833860   4.010   3.174   2.235 -2.9320  1.7859  2.0546
   47MOL   H64933861   3.938   3.037   2.172  1.0975 -2.1151  0.4582
   47MOL   C65033862   3.639   2.265   1.535  0.4886 -0.5603 -0.6474
   47MOL   C65133863   3.739   2.303   1.646 -0.5467 -0.2914 -0.5031
   47MOL   C65233864   3.742   2.453   1.657  0.0896  0.1154 -0.2350
   47MOL   C65333865   3.814   2.498   1.782  0.1277  0.4542 -0.8920
   47MOL   C65433866   3.834   2.646   1.790  0.2931  0.0397  0.3844
   47MOL   C65533867   3.912   2.688   1.913 -0.6698  0.4267  0.3132
   47MOL   C65633868   3.841   2.643   2.046  0.8514 -0.1441 -0.1878
   47MOL   C65733869   3.937   2.666   2.159 -0.4762 -0.0829 -0.2858
   47MOL   O65833870   3.960   2.799   2.194 -0.4745  0.0013  0.2715
   47MOL   C65933871   4.082   2.826   2.251 -0.0356 -0.4817 -0.3435
   47MOL   O66033872   4.169   2.742   2.272  0.3484 -0.7833  0.3611
   47MOL   C66133873   4.112   2.974   2.286  0.1367 -0.0110  0.1174
   47MOL   C66233874   4.160   2.973   2.434  0.1503  0.3156 -0.5215
   47MOL   C66333875   4.241   3.021   2.206 -0.3405 -0.5253 -0.2950
   47MOL   H66433876   3.632   2.350   1.468 -3.5166 -0.1289  0.1918
   47MOL   H66533877   3.538   2.256   1.576  0.1498  2.0921 -0.8488
   47MOL   H66633878   3.649   2.169   1.484  0.1861  0.0047 -1.7665
   47MOL   H66733879   3.842   2.283   1.617 -0.9750  0.2734 -2.4812
   47MOL   H66833880   3.721   2.254   1.742 -0.0345  1.8000  0.6708
   47MOL   H66933881   3.637   2.483   1.650  0.6126  2.4140  1.1792
   47MOL   H67033882   3.800   2.489   1.572  3.2947 -1.7451  1.0734
   47MOL   H67133883   3.899   2.439   1.816  0.9774  2.0530 -0.1976
   47MOL   H67233884   3.734   2.460   1.845  0.5127 -0.8302 -1.1544
   47MOL   H67333885   3.733   2.687   1.794  0.7123  1.3768 -2.0560
   47MOL   H67433886   3.874   2.670   1.692 -1.3853 -0.2829 -0.3976
   47MOL   H67533887   4.013   2.648   1.903 -0.0765  1.8078  0.5964
   47MOL   H67633888   3.936   2.794   1.911  0.9835  0.0604 -1.6837
   47MOL   H67733889   3.801   2.543   2.034 -1.9869  0.8009  1.0513
   47MOL   H67833890   3.760   2.715   2.047  0.5218 -0.5192 -0.0515
   47MOL   H67933891   4.032   2.617   2.137 -0.7056 -0.1937 -1.0288
   47MOL   H68033892   3.894   2.607   2.240 -0.1526 -1.3169 -0.9886
   47MOL   H68133893   4.203   3.062   2.479  0.6880 -1.2984  2.2724
   47MOL   H68233894   4.237   2.898   2.451 -0.6271 -0.3955 -0.0502
   47MOL   H68333895   4.083   2.929   2.498  0.9561  0.3954  0.5268
   47MOL   H68433896   4.275   3.119   2.238  1.4484 -1.9878  2.4952
   47MOL   H68533897   4.324   2.957   2.236 -0.9754 -0.3667  1.8821
   47MOL   C68633898   4.124   2.237   2.519  0.4080 -0.3265 -0.0699
   47MOL   C68733899   4.102   2.277   2.371 -0.9945  0.0585  1.1795
   47MOL   C68833900   4.235   2.272   2.288 -0.2542  0.3187 -0.8604
   47MOL   C68933901   4.354   2.359   2.334  0.3088  0.2422 -0.5823
   47MOL   C69033902   4.475   2.361   2.236 -0.1798 -0.0110  0.1113
   47MOL   C69133903   4.440   2.458   2.114 -0.4298 -0.1483  0.1476
   47MOL   C69233904   4.469   2.610   2.142 -0.2248 -0.5278 -0.7349
   47MOL   C69333905   4.457   2.703   2.013 -0.1918  0.2221 -0.9786
   47MOL   O69433906   4.424   2.843   2.040  0.0392  0.6530  0.2607
   47MOL   C69533907   4.302   2.889   1.992 -0.3310  0.6500 -0.2925
   47MOL   O69633908   4.232   2.836   1.900 -0.8286 -0.0502 -0.4959
   47MOL   C69733909   4.252   3.024   2.048  0.0329 -0.8393  0.0533
   47MOL   C69833910   4.349   3.135   2.008 -0.7875 -0.4651  0.4702
   47MOL   C69933911   4.113   3.073   1.980 -0.3488  0.1843 -0.4574
   47MOL   H70033912   4.226   2.256   2.552  0.4579 -1.1133  0.2578
   47MOL   H70133913   4.095   2.134   2.539  0.1947 -0.2793 -0.1447
   47MOL   H70233914   4.054   2.294   2.580 -0.9771 -0.3560 -1.6034
   47MOL   H70333915   4.074   2.383   2.370  2.5501  1.0343  0.5126
   47MOL   H70433916   4.023   2.223   2.319 -0.9463 -0.0624  1.2327
   47MOL   H70533917   4.205   2.309   2.189  1.0367  2.4827 -0.4604
   47MOL   H70633918   4.263   2.168   2.271 -2.5039 -0.2001 -1.6012
   47MOL   H70733919   4.395   2.316   2.425  0.4280  1.7003  0.0684
   47MOL   H70833920   4.316   2.457   2.365 -0.4057  0.1137 -1.0445
   47MOL   H70933921   4.498   2.263   2.194 -1.2435  0.7942 -2.4318
   47MOL   H71033922   4.570   2.385   2.282 -0.1929 -1.9627  1.2010
   47MOL   H71133923   4.513   2.425   2.040  1.6367  0.5548  1.8171
   47MOL   H71233924   4.341   2.442   2.072  0.0219 -2.1888 -0.1811
   47MOL   H71333925   4.389   2.643   2.208 -0.6529 -0.2358 -1.3925
   47MOL   H71433926   4.561   2.624   2.199  0.2412  1.0151 -1.8346
   47MOL   H71533927   4.387   2.661   1.941 -0.3934 -0.0621 -0.6125
   47MOL   H71633928   4.548   2.693   1.953 -0.1840 -1.3764 -0.7011
   47MOL   H71733929   4.326   3.230   2.055  1.3866  1.0623 -1.4056
   47MOL   H71833930   4.454   3.110   2.026 -0.3683 -0.3602 -1.6059
   47MOL   H71933931   4.344   3.158   1.901 -0.0890  0.5732  0.6476
   47MOL   H72033932   4.070   3.161   2.028 -0.3774  0.1606 -0.4387
   47MOL   H72133933   4.038   2.994   1.992 -0.7379  0.4431 -1.1471
   47MOL   H72233934   4.117   3.107   1.877 -0.8177  1.6736  0.0025
   48MOL     C133935   5.890   6.980   2.756 -0.4985  0.4700  0.3277
   48MOL     C233936   5.816   6.968   2.891  0.4681 -0.1109 -0.6596
   48MOL     C333937   5.799   7.097   2.974 -0.1494 -0.7723 -0.0827
   48MOL     C433938   5.730   7.073   3.111  0.1882 -0.0876  0.3822
   48MOL     C533939   5.712   7.216   3.179  0.3830  0.1118  0.0389
   48MOL     C633940   5.666   7.208   3.334  0.0586  0.2808 -0.0912
   48MOL     C733941   5.792   7.182   3.425 -0.2057 -0.1443  0.0123
   48MOL     C833942   5.771   7.166   3.573 -0.0737  0.3304 -0.1021
   48MOL     O933943   5.896   7.149   3.643 -0.2232 -0.4744  0.0996
   48MOL    C1033944   5.897   7.134   3.777 -0.5590 -0.0848 -0.5358
   48MOL    O1133945   5.798   7.155   3.843  0.7750 -0.1379 -0.6168
   48MOL    C1233946   6.031   7.090   3.840  0.0221  0.3113 -1.4545
   48MOL    C1333947   6.088   6.972   3.766  0.1809  0.0700 -0.0682
   48MOL    C1433948   6.124   7.217   3.825  0.5401  0.1786 -0.1705
   48MOL    H1533949   5.917   6.877   2.730 -1.5460 -0.0706  1.3218
   48MOL    H1633950   5.976   7.044   2.776  0.3999  0.0904 -2.0976
   48MOL    H1733951   5.841   7.023   2.669  0.0234 -0.0737 -0.2403
   48MOL    H1833952   5.872   6.894   2.949  1.0418  2.6443  2.4786
   48MOL    H1933953   5.716   6.932   2.868 -0.3452 -0.1844  2.6390
   48MOL    H2033954   5.896   7.140   3.000  0.1335 -0.1952 -2.0123
   48MOL    H2133955   5.749   7.171   2.912 -1.5219 -0.1967  1.6727
   48MOL    H2233956   5.630   7.037   3.086  0.0396  0.9004 -0.4736
   48MOL    H2333957   5.772   7.002   3.182 -1.7320 -0.7136  0.9359
   48MOL    H2433958   5.656   7.282   3.112  1.1319  0.9937  0.2796
   48MOL    H2533959   5.806   7.269   3.164  0.1563  0.2217 -1.0448
   48MOL    H2633960   5.587   7.134   3.348 -0.3509  0.1599 -2.6805
   48MOL    H2733961   5.627   7.307   3.360 -0.3278  0.7528 -2.3684
   48MOL    H2833962   5.851   7.269   3.397 -1.2743  0.6719  0.3005
   48MOL    H2933963   5.847   7.095   3.388  0.6957  0.5453 -0.2934
   48MOL    H3033964   5.691   7.095   3.594 -0.8066  1.2704  0.2880
   48MOL    H3133965   5.741   7.263   3.612  2.5097  0.8412  0.7173
   48MOL    H3233966   6.119   6.991   3.663 -1.6684 -2.6774 -1.1739
   48MOL    H3333967   6.178   6.935   3.815  0.3615  1.9261  1.0498
   48MOL    H3433968   6.024   6.885   3.758  1.4046 -0.7427 -1.2356
   48MOL    H3533969   6.071   7.301   3.781  3.9050  2.1209 -0.7184
   48MOL    H3633970   6.195   7.187   3.748 -0.7811 -1.3987 -0.8062
   48MOL    H3733971   6.015   7.056   3.943 -0.0735 -1.5650 -2.0677
   48MOL    C3833972   6.623   7.126   3.127  0.6227 -0.1555  0.5187
   48MOL    C3933973   6.551   7.080   3.253  0.4605  0.4752 -0.1003
   48MOL    C4033974   6.573   6.932   3.292 -0.5681  0.5903  0.0282
   48MOL    C4133975   6.493   6.894   3.422 -0.2581  0.0583 -0.7489
   48MOL    C4233976   6.566   6.914   3.558  0.2363 -0.5886 -0.5936
   48MOL    C4333977   6.473   6.933   3.682  0.4189  0.1455 -0.0464
   48MOL    C4433978   6.551   6.997   3.800  0.5957 -0.5107 -0.3094
   48MOL    C4533979   6.473   7.005   3.930  0.0263  0.0108 -0.3395
   48MOL    O4633980   6.364   7.091   3.904  0.0732 -0.1008 -0.0670
   48MOL    C4733981   6.287   7.142   4.004  0.6833  0.1530  0.2592
   48MOL    O4833982   6.305   7.110   4.124  0.7348 -0.0915  0.6899
   48MOL    C4933983   6.203   7.262   3.955  0.1963  0.0191  0.2571
   48MOL    C5033984   6.090   7.299   4.059 -0.5828  0.4517  0.5029
   48MOL    C5133985   6.286   7.385   3.913 -0.0771 -0.4548 -0.2496
   48MOL    H5233986   6.596   7.227   3.096  1.7395 -0.3037 -0.9870
   48MOL    H5333987   6.619   7.053   3.046  1.0335  1.1757 -0.7249
   48MOL    H5433988   6.727   7.124   3.158  1.0348 -0.2099 -0.8263
   48MOL    H5533989   6.450   7.088   3.213  0.1572  3.8502  1.1016
   48MOL    H5633990   6.566   7.160   3.326 -2.2097  1.8927 -1.0113
   48MOL    H5733991   6.543   6.874   3.206  1.4043  0.8641 -0.8745
   48MOL    H5833992   6.678   6.906   3.309 -0.5865  0.7546  0.4133
   48MOL    H5933993   6.430   6.806   3.411 -1.0505  0.2095  2.1133
   48MOL    H6033994   6.419   6.973   3.431  2.1751  2.1382  2.4234
   48MOL    H6133995   6.638   6.834   3.571  0.4815  0.2198  3.4165
   48MOL    H6233996   6.626   7.005   3.552  0.8089 -0.7898  1.6254
   48MOL    H6333997   6.386   6.993   3.654  1.9583  1.1642 -2.7889
   48MOL    H6433998   6.444   6.834   3.716  1.0458  0.1444  0.5036
   48MOL    H6533999   6.581   7.096   3.767 -0.1301 -0.6120 -1.3105
   48MOL    H6634000   6.651   6.954   3.808  0.8125 -0.3258 -1.9133
   48MOL    H6734001   6.533   7.056   4.006 -1.8381  0.2861  0.9825
   48MOL    H6834002   6.432   6.910   3.963  1.0690 -0.5922 -0.7534
   48MOL    H6934003   6.134   7.315   4.157 -0.8679  3.4590  0.1680
   48MOL    H7034004   6.043   7.393   4.032 -0.7422 -0.3436 -2.1697
   48MOL    H7134005   6.006   7.229   4.065  1.6040 -2.2185  1.3636
   48MOL    H7234006   6.206   7.452   3.884 -0.1243  0.0150  0.9359
   48MOL    H7334007   6.328   7.363   3.815  1.3734 -2.4004  0.7570
   48MOL    C7434008   6.346   0.781   3.788 -0.0951 -0.1783 -0.3473
   48MOL    C7534009   6.286   0.754   3.927  0.3681  0.6748 -0.4245
   48MOL    C7634010   6.272   0.605   3.942  0.3729 -0.6119  0.3286
   48MOL    C7734011   6.241   0.558   4.083 -0.3836 -0.0481 -0.0035
   48MOL    C7834012   6.203   0.406   4.101 -0.3643  0.4951 -0.4030
   48MOL    C7934013   6.321   0.315   4.055 -0.0879  0.0447 -0.3082
   48MOL    C8034014   6.280   0.164   4.062  0.0342  0.1155  0.3884
   48MOL    C8134015   6.389   0.071   4.005 -0.2119  0.2284 -0.0952
   48MOL    O8234016   6.382   7.712   4.049  0.1396 -0.0634  0.1313
   48MOL    C8334017   6.383   7.611   3.947 -0.7942 -0.1332 -0.7918
   48MOL    O8434018   6.384   7.630   3.824  0.0253  0.0548  0.3259
   48MOL    C8534019   6.387   7.459   3.998  0.5351  0.3369 -0.2780
   48MOL    C8634020   6.349   7.463   4.154  0.6208  0.2394 -0.7202
   48MOL    C8734021   6.523   7.392   3.979 -0.0700 -0.4562  0.1982
   48MOL    H8834022   6.299   0.736   3.700  0.0770 -2.1926  0.5765
   48MOL    H8934023   6.442   0.731   3.781  0.1912  0.3321 -0.1005
   48MOL    H9034024   6.352   0.887   3.761  2.9353 -0.0658  0.5800
   48MOL    H9134025   6.184   0.793   3.932 -0.1550 -0.6332 -0.5647
   48MOL    H9234026   6.340   0.807   4.006 -1.3339 -0.3937  1.5089
   48MOL    H9334027   6.190   0.558   3.888  1.1234 -0.7594 -0.7187
   48MOL    H9434028   6.359   0.546   3.912  0.0854 -0.4961 -0.7477
   48MOL    H9534029   6.158   0.619   4.119 -2.0127 -2.6437  0.7864
   48MOL    H9634030   6.330   0.577   4.143 -1.3896  2.6869  0.6964
   48MOL    H9734031   6.184   0.393   4.207 -2.8855  4.3971 -0.2948
   48MOL    H9834032   6.118   0.381   4.036 -0.0626 -0.8320 -0.3166
   48MOL    H9934033   6.365   0.329   3.957  1.6410 -2.3589  0.0634
   48MOL   H10034034   6.406   0.345   4.117 -1.8257  0.7377  1.8010
   48MOL   H10134035   6.261   0.128   4.163  0.1432 -0.7752  0.0949
   48MOL   H10234036   6.180   0.144   4.024 -0.2176  0.7901  0.6893
   48MOL   H10334037   6.489   0.110   4.025 -0.3051  0.1982  0.4254
   48MOL   H10434038   6.382   0.083   3.897 -2.2384  1.8465  0.1887
   48MOL   H10534039   6.409   7.532   4.213 -0.7136  0.2690  0.6155
   48MOL   H10634040   6.351   7.366   4.204 -1.1302  0.2393 -0.6192
   48MOL   H10734041   6.251   7.508   4.170  0.7444  0.6435 -1.0697
   48MOL   H10834042   6.503   7.285   3.970 -0.6084 -0.2845 -0.7137
   48MOL   H10934043   6.540   7.412   3.873 -1.4371 -0.8650 -0.1134
   48MOL   C11034044   7.012   6.831   3.751  0.8472 -0.2893 -0.2184
   48MOL   C11134045   6.984   6.779   3.896  0.7359  0.6956 -0.3130
   48MOL   C11234046   6.849   6.818   3.953  0.2877 -0.1043  0.0912
   48MOL   C11334047   6.850   6.780   4.103  0.1055 -0.5250  0.8425
   48MOL   C11434048   6.730   6.832   4.183  0.0044  0.1408  0.0685
   48MOL   C11534049   6.745   6.974   4.247 -0.7755 -0.4558 -0.4795
   48MOL   C11634050   6.608   7.016   4.309 -0.9132 -0.0283  0.2006
   48MOL   C11734051   6.597   7.165   4.323 -0.7838  0.2390  0.3269
   48MOL   O11834052   6.610   7.235   4.199 -0.1353  0.3412  0.2556
   48MOL   C11934053   6.650   7.355   4.198 -0.0533 -0.7767  0.2316
   48MOL   O12034054   6.667   7.418   4.299  0.0776 -0.1428 -0.4978
   48MOL   C12134055   6.662   7.416   4.052  0.0776  0.7466  0.0007
   48MOL   C12234056   6.693   7.567   4.054  0.3391  0.0686 -0.1734
   48MOL   C12334057   6.773   7.329   3.973  1.2185 -0.4525  0.8936
   48MOL   H12434058   7.023   6.938   3.733 -2.0496  0.2593  1.0318
   48MOL   H12534059   7.111   6.794   3.723  1.2208 -0.2417  1.0267
   48MOL   H12634060   6.933   6.794   3.686 -1.4505 -1.6268  3.1970
   48MOL   H12734061   7.062   6.823   3.957  0.1090  1.2112  0.1270
   48MOL   H12834062   7.000   6.671   3.890 -0.4597  0.5176 -0.4283
   48MOL   H12934063   6.776   6.764   3.892 -0.6626 -0.1332  1.2262
   48MOL   H13034064   6.826   6.925   3.948  0.1929 -0.1671 -0.8562
   48MOL   H13134065   6.859   6.671   4.111  3.4204 -0.3182  0.5522
   48MOL   H13234066   6.946   6.818   4.138  0.2877 -0.8226  0.6744
   48MOL   H13334067   6.724   6.757   4.263 -0.4549 -0.5974 -0.6475
   48MOL   H13434068   6.638   6.826   4.124 -0.7230  1.3640  1.0600
   48MOL   H13534069   6.827   7.006   4.312  0.8127 -0.0105 -2.6374
   48MOL   H13634070   6.757   7.036   4.159 -1.7023 -1.4357 -1.3199
   48MOL   H13734071   6.603   6.970   4.407 -1.2711  0.5350  0.4468
   48MOL   H13834072   6.523   6.981   4.250 -0.9559  0.5551 -0.0849
   48MOL   H13934073   6.507   7.203   4.371 -0.3781  2.5591 -0.6809
   48MOL   H14034074   6.689   7.189   4.376 -0.2876 -0.6092 -0.1352
   48MOL   H14134075   6.773   7.587   4.125 -0.2413  1.0906  0.2090
   48MOL   H14234076   6.710   7.613   3.956 -3.3879  1.9988  0.0105
   48MOL   H14334077   6.616   7.629   4.099  0.6900  1.7221 -1.7955
   48MOL   H14434078   6.752   7.344   3.867  1.7046  2.6083  1.1733
   48MOL   H14534079   6.758   7.222   3.982  1.6360 -0.4994  1.0357
   48MOL   C14634080   7.541   7.342   4.860  0.3969 -0.5314 -0.1492
   48MOL   C14734081   7.595   7.209   4.808 -0.0053 -0.3385  0.4920
   48MOL   C14834082   7.550   7.187   4.661 -0.0905 -0.0822  0.2708
   48MOL   C14934083   7.398   7.205   4.639  0.7873 -0.9571  0.8218
   48MOL   C15034084   7.355   7.221   4.490 -0.6063 -0.4720 -0.4638
   48MOL   C15134085   7.203   7.230   4.489  0.2138  0.5843 -0.0687
   48MOL   C15234086   7.151   7.217   4.349 -0.2417  0.4617 -0.4597
   48MOL   C15334087   7.001   7.235   4.331 -0.1275  0.0395  0.4532
   48MOL   O15434088   6.960   7.240   4.193  0.3492  0.2734 -0.0785
   48MOL   C15534089   6.969   7.356   4.133 -0.0961  0.2711 -0.3448
   48MOL   O15634090   6.995   7.461   4.194 -0.5702  0.5784 -0.7674
   48MOL   C15734091   6.926   7.348   3.984  0.3557  0.6898 -0.2733
   48MOL   C15834092   6.981   7.216   3.927 -0.4207 -0.3508  0.5114
   48MOL   C15934093   6.986   7.482   3.914  0.1292  0.1498  0.3200
   48MOL   H16034094   7.604   7.382   4.940  1.1846 -0.6936 -0.6861
   48MOL   H16134095   7.438   7.331   4.892  0.4489  1.1313  0.6146
   48MOL   H16234096   7.545   7.424   4.789  1.5819  0.4400  1.0279
   48MOL   H16334097   7.703   7.196   4.816  0.2151 -0.3081 -2.1249
   48MOL   H16434098   7.570   7.133   4.882 -1.4487 -0.5952 -0.2392
   48MOL   H16534099   7.585   7.093   4.618  0.9386  0.0132  0.8827
   48MOL   H16634100   7.595   7.268   4.604 -1.8462 -0.2418 -1.4135
   48MOL   H16734101   7.344   7.125   4.690 -0.0365 -0.2197  1.1247
   48MOL   H16834102   7.366   7.294   4.694 -2.7362 -1.3115 -0.5506
   48MOL   H16934103   7.384   7.136   4.429  0.1691 -0.7893  0.3347
   48MOL   H17034104   7.396   7.313   4.449  1.1954 -1.4479 -0.9246
   48MOL   H17134105   7.176   7.321   4.542 -3.0591 -0.9955  1.1781
   48MOL   H17234106   7.152   7.153   4.547  0.1677  0.7402  0.0981
   48MOL   H17334107   7.210   7.283   4.285  1.7659 -0.9502 -0.1296
   48MOL   H17434108   7.160   7.113   4.317  0.6160  0.5529 -0.5206
   48MOL   H17534109   6.955   7.150   4.381  0.0160 -0.6661 -0.5967
   48MOL   H17634110   6.975   7.325   4.387 -0.8460  0.3978 -0.4453
   48MOL   H17734111   6.944   7.196   3.826  0.8121 -1.0876  0.1949
   48MOL   H17834112   6.953   7.132   3.990 -0.1066  0.0388  1.1775
   48MOL   H17934113   7.089   7.203   3.922 -0.1900  1.6319  0.0357
   48MOL   H18034114   6.967   7.565   3.982  2.6593 -0.1399  1.4323
   48MOL   H18134115   6.917   7.507   3.834  0.3446  0.5392  0.2562
   48MOL   C18234116   7.667   0.016   2.946  0.1426 -0.0349 -0.2773
   48MOL   C18334117   7.625   7.713   3.067  0.1118  0.4168 -0.2944
   48MOL   C18434118   7.589   7.570   3.032  0.8111  0.4079  0.2076
   48MOL   C18534119   7.574   7.472   3.144  1.1987  0.1041 -0.4570
   48MOL   C18634120   7.450   7.505   3.242  0.6829  1.0276 -0.3687
   48MOL   C18734121   7.430   7.416   3.358  0.2846 -0.0015  0.0118
   48MOL   C18834122   7.352   7.477   3.467  0.4764  0.0140 -0.5306
   48MOL   C18934123   7.329   7.377   3.582  1.1562  1.0597  0.4140
   48MOL   O19034124   7.281   7.427   3.701 -0.5567  0.6108  0.4823
   48MOL   C19134125   7.156   7.415   3.739  0.0756  1.2253 -0.2594
   48MOL   O19234126   7.072   7.352   3.683 -0.0412  0.2167  0.0334
   48MOL   C19334127   7.128   7.509   3.860  0.1587 -0.2863 -0.2603
   48MOL   C19434128   7.222   7.473   3.970  0.1963  0.2245 -0.1242
   48MOL   C19534129   7.156   7.663   3.826  0.0927  0.4259 -0.2169
   48MOL   H19634130   7.696   0.118   2.969  0.7888  0.5544 -3.4471
   48MOL   H19734131   7.747   7.733   2.906  0.6251 -0.1577  0.8663
   48MOL   H19834132   7.588   0.020   2.871 -0.9092 -0.6750  0.7906
   48MOL   H19934133   7.537   7.767   3.100 -0.7977 -1.0833 -0.2235
   48MOL   H20034134   7.706   7.712   3.140 -0.2305  0.0650  0.0836
   48MOL   H20134135   7.493   7.574   2.981  0.7754  0.5967  0.2863
   48MOL   H20234136   7.668   7.545   2.962 -0.8990 -1.9116 -0.9525
   48MOL   H20334137   7.565   7.372   3.103  1.0190  0.0092 -0.1867
   48MOL   H20434138   7.669   7.459   3.196  0.6837 -1.1969  0.1898
   48MOL   H20534139   7.363   7.507   3.177 -0.0269  1.5643  0.5873
   48MOL   H20634140   7.463   7.612   3.262  2.4041  0.7233  0.2226
   48MOL   H20734141   7.519   7.373   3.404 -1.8157 -2.4323  1.9273
   48MOL   H20834142   7.373   7.330   3.325 -2.8283  1.2425  1.8570
   48MOL   H20934143   7.408   7.562   3.505  1.8079 -0.3159 -1.7179
   48MOL   H21034144   7.259   7.521   3.431  0.3062  0.1144  0.0251
   48MOL   H21134145   7.426   7.332   3.604  0.9196 -0.1652 -0.9764
   48MOL   H21234146   7.257   7.300   3.553  0.6431  1.6975 -0.0028
   48MOL   H21334147   7.209   7.532   4.061  0.7735 -0.2334  0.2597
   48MOL   H21434148   7.218   7.370   4.004 -3.2898  0.2767 -0.1968
   48MOL   H21534149   7.326   7.475   3.936 -0.2078  0.9559 -1.3274
   48MOL   H21634150   7.180   7.717   3.917 -1.2252  1.3578 -0.4203
   48MOL   H21734151   7.256   7.661   3.782  0.2396  0.7404  0.0991
   48MOL   C21834152   6.663   0.917   4.165  0.4417  1.0832  0.7304
   48MOL   C21934153   6.664   0.761   4.194 -0.2468  0.0599  0.0998
   48MOL   C22034154   6.727   0.692   4.069 -0.0514 -0.7520 -0.4141
   48MOL   C22134155   6.715   0.541   4.068 -0.1403 -0.5556 -0.4307
   48MOL   C22234156   6.763   0.473   3.944  0.1380  0.6695  0.4914
   48MOL   C22334157   6.757   0.317   3.958  0.1600 -0.5106 -0.3249
   48MOL   C22434158   6.875   0.267   4.046 -0.0789  0.8791  0.2436
   48MOL   C22534159   6.885   0.112   4.043 -0.6519  0.0529 -0.3064
   48MOL   O22634160   6.983   0.078   3.947 -0.3062  1.0347  0.4116
   48MOL   C22734161   6.953   0.029   3.829  0.9438 -0.7111  0.3497
   48MOL   O22834162   6.838   0.012   3.793 -0.5223 -0.5777 -0.0834
   48MOL   C22934163   7.069   7.759   3.739 -0.1789  0.1998 -1.2648
   48MOL   C23034164   7.019   7.687   3.615 -0.4254 -0.5548  0.2478
   48MOL   C23134165   7.158   0.092   3.692 -0.2918  0.6319 -0.0011
   48MOL   H23234166   6.748   0.942   4.102 -1.2298 -1.2691 -2.6468
   48MOL   H23334167   6.670   0.969   4.260 -1.4336 -1.5648  2.4074
   48MOL   H23434168   6.566   0.943   4.123  1.5330 -0.9814 -3.3096
   48MOL   H23534169   6.564   0.728   4.222 -0.3596  0.9906  0.8380
   48MOL   H23634170   6.736   0.750   4.276  1.4526  2.4954 -1.0142
   48MOL   H23734171   6.672   0.716   3.977  0.8472 -2.4677 -1.4289
   48MOL   H23834172   6.828   0.732   4.056 -0.6161  0.5135 -1.1260
   48MOL   H23934173   6.768   0.516   4.160  0.0695 -0.3170 -0.4846
   48MOL   H24034174   6.613   0.517   4.098 -0.1833  0.2599  0.1178
   48MOL   H24134175   6.708   0.488   3.851  0.8062  0.2631  0.0213
   48MOL   H24234176   6.862   0.514   3.924  1.3285 -0.3045  4.0382
   48MOL   H24334177   6.668   0.289   4.014  0.9249 -2.3508  0.0221
   48MOL   H24434178   6.753   0.257   3.866 -0.2311 -2.6966  1.0722
   48MOL   H24534179   6.855   0.302   4.148 -3.4525 -1.3540  0.4614
   48MOL   H24634180   6.963   0.312   4.002 -1.0155  0.0109 -2.6404
   48MOL   H24734181   6.784   0.076   4.025 -0.8541  0.9568 -1.0633
   48MOL   H24834182   6.923   0.097   4.144  1.2616  0.9582 -0.8689
   48MOL   H24934183   6.941   7.613   3.637 -2.8177  2.4835  2.5536
   48MOL   H25034184   7.104   7.649   3.558 -1.4081 -0.5314 -1.2502
   48MOL   H25134185   6.971   7.771   3.565  2.6074 -0.4262 -2.5761
   48MOL   H25234186   7.220   0.123   3.776 -0.9025  0.4609  0.5185
   48MOL   H25334187   7.234   0.041   3.632 -2.0280 -2.6002  0.4175
   48MOL   C25434188   7.573   1.255   3.070 -0.7784 -0.2179 -0.4683
   48MOL   C25534189   7.592   1.179   3.201 -0.2934  0.5904 -0.2740
   48MOL   C25634190   7.491   1.069   3.229  0.6622  0.4155 -0.1084
   48MOL   C25734191   7.514   0.964   3.337 -0.3630 -0.4734 -0.5749
   48MOL   C25834192   7.401   0.861   3.347 -0.2549 -1.0761 -0.3049
   48MOL   C25934193   7.419   0.744   3.437 -0.5381 -0.0369  0.7487
   48MOL   C26034194   7.317   0.627   3.411  1.0795  1.0176  0.9058
   48MOL   C26134195   7.348   0.514   3.509  0.3606  0.4515  0.4371
   48MOL   O26234196   7.242   0.410   3.507 -0.6725  0.0484  0.1873
   48MOL   C26334197   7.248   0.317   3.609  0.4292  0.6889 -0.6433
   48MOL   O26434198   7.349   0.301   3.682 -0.9594  0.3647  0.0061
   48MOL   C26534199   7.119   0.232   3.617  0.1458 -0.1630  0.2049
   48MOL   C26634200   7.025   0.322   3.710  0.1204 -0.0145  0.6080
   48MOL   C26734201   7.049   0.220   3.468 -0.5267  0.9445 -0.5925
   48MOL   H26834202   7.665   1.278   3.016 -0.4033  0.5246  0.4654
   48MOL   H26934203   7.500   1.204   3.007 -1.0996  0.3560 -0.5586
   48MOL   H27034204   7.539   1.355   3.095  0.3111  0.2595 -0.8824
   48MOL   H27134205   7.694   1.142   3.199 -0.3402  0.4451  0.0753
   48MOL   H27234206   7.602   1.245   3.286  0.0553  1.2315 -0.8061
   48MOL   H27334207   7.485   1.007   3.140  1.1267  0.9841 -0.5464
   48MOL   H27434208   7.392   1.114   3.241  0.0157 -0.6464 -1.4014
   48MOL   H27534209   7.546   1.001   3.435 -1.4932 -1.9824  0.3819
   48MOL   H27634210   7.594   0.903   3.297 -0.4969 -1.0591  0.0373
   48MOL   H27734211   7.313   0.924   3.366  0.3163 -0.6044  0.8794
   48MOL   H27834212   7.390   0.824   3.246  1.3805 -1.3114 -0.4057
   48MOL   H27934213   7.415   0.773   3.542  0.4812 -0.1483  0.8242
   48MOL   H28034214   7.516   0.696   3.421  0.3379  1.7229  0.6663
   48MOL   H28134215   7.212   0.655   3.415  0.9016  0.6674 -1.1713
   48MOL   H28234216   7.321   0.575   3.316 -0.4801 -1.1975  1.9998
   48MOL   H28334217   7.438   0.456   3.491  0.1268 -0.0754  0.9206
   48MOL   H28434218   7.352   0.551   3.612 -0.3040  1.0053  0.2660
   48MOL   H28534219   6.924   0.282   3.702  1.0077 -2.4795  1.3317
   48MOL   H28634220   7.069   0.334   3.809  2.0773  0.5094 -0.2873
   48MOL   H28734221   7.032   0.422   3.668  1.0210  0.2726  1.4277
   48MOL   H28834222   7.016   0.321   3.444 -1.7791  0.9470  1.0050
   48MOL   H28934223   6.946   0.185   3.472 -0.1403 -0.4921 -2.7588
   48MOL   C29034224   0.208   0.784   3.456 -0.2162  0.6778  0.0879
   48MOL   C29134225   0.070   0.720   3.426  0.1194  0.2114  0.2175
   48MOL   C29234226   0.075   0.586   3.356  0.3332 -0.3600 -0.0761
   48MOL   C29334227   7.719   0.516   3.333 -0.3693  0.5529  0.3083
   48MOL   C29434228   7.734   0.382   3.260  0.2652  0.6981  0.6051
   48MOL   C29534229   7.608   0.294   3.273  0.2586 -0.1233  0.1012
   48MOL   C29634230   7.591   0.214   3.403 -0.6900 -0.3307 -0.8754
   48MOL   C29734231   7.473   0.113   3.408  0.2544 -0.1040  0.6512
   48MOL   O29834232   7.344   0.165   3.386 -0.5463 -0.7982 -0.8943
   48MOL   C29934233   7.248   0.088   3.357  0.2711 -0.4703 -0.4594
   48MOL   O30034234   7.253   7.748   3.349 -0.4484  0.2123  0.1887
   48MOL   C30134235   7.116   0.177   3.334 -0.0576 -0.4238  1.6430
   48MOL   C30234236   7.011   0.083   3.261  0.1627  0.3904 -0.5100
   48MOL   C30334237   7.150   0.298   3.242 -0.7141 -0.6639  0.0394
   48MOL   H30434238   0.255   0.748   3.547  0.2629  0.7467 -0.1261
   48MOL   H30534239   0.197   0.891   3.475  1.1401  0.9708 -0.7149
   48MOL   H30634240   0.282   0.775   3.376 -0.4451 -0.0988 -0.0426
   48MOL   H30734241   0.025   0.795   3.361 -0.8528  0.8363  1.5821
   48MOL   H30834242   0.019   0.714   3.522  0.7673  0.5950  0.5953
   48MOL   H30934243   0.140   0.527   3.420  0.9493 -0.2808 -0.6235
   48MOL   H31034244   0.120   0.582   3.257 -0.1907 -1.5091 -0.2796
   48MOL   H31134245   7.664   0.514   3.427 -2.9642 -1.2330 -1.1851
   48MOL   H31234246   7.644   0.562   3.268 -0.9660  0.0227  0.6094
   48MOL   H31334247   7.763   0.391   3.156  3.6189 -0.1465  1.4070
   48MOL   H31434248   0.042   0.329   3.298 -1.0191 -1.1841  1.0225
   48MOL   H31534249   7.612   0.217   3.196 -0.2353  1.1133 -1.1993
   48MOL   H31634250   7.516   0.347   3.247  1.5852  2.2593  0.0934
   48MOL   H31734251   7.583   0.280   3.490  1.4273 -1.0025 -0.1412
   48MOL   H31834252   7.680   0.154   3.420  0.1475  1.3100  0.8204
   48MOL   H31934253   7.467   0.071   3.508 -0.7858 -0.5008  0.4303
   48MOL   H32034254   7.488   0.029   3.340  1.3230  0.4230  0.2301
   48MOL   H32134255   7.040   0.016   3.181 -1.4100 -1.4702  0.4178
   48MOL   H32234256   6.930   0.148   3.229 -0.6876 -0.2395  0.3085
   48MOL   H32334257   6.963   0.013   3.330 -0.3591  1.5253  0.2905
   48MOL   H32434258   7.067   0.369   3.249  1.2502  1.9072 -1.5653
   48MOL   H32534259   7.232   0.354   3.286 -2.9017  2.2042  0.6483
   48MOL   C32634260   6.977   1.489   3.230 -0.0082 -0.5466 -0.2914
   48MOL   C32734261   7.068   1.384   3.152 -0.4899 -0.3395  0.2534
   48MOL   C32834262   7.056   1.245   3.210 -0.1126 -0.1144  0.8172
   48MOL   C32934263   7.113   1.149   3.106 -0.2829 -0.1888 -0.1169
   48MOL   C33034264   7.071   1.007   3.138 -0.4204  0.1671 -0.6039
   48MOL   C33134265   7.144   0.906   3.051  0.2371  0.1311 -0.0713
   48MOL   C33234266   7.112   0.761   3.102  0.0242 -0.7104  0.9994
   48MOL   C33334267   7.167   0.648   3.016  0.6518 -0.5830  0.3292
   48MOL   O33434268   7.148   0.526   3.073  0.8608 -0.5768  0.2899
   48MOL   C33534269   7.236   0.418   3.041  0.0595 -0.5700 -0.4204
   48MOL   O33634270   7.337   0.431   2.973 -0.2880 -0.3231  0.0979
   48MOL   C33734271   7.185   0.283   3.088  0.3994  0.5390  0.2661
   48MOL   C33834272   7.302   0.171   3.059  0.1200 -0.2401  0.3101
   48MOL   C33934273   7.054   0.241   3.009 -0.1312 -0.0947 -1.2422
   48MOL   H34034274   6.871   1.478   3.208 -0.0745 -0.9170  0.2088
   48MOL   H34134275   6.989   1.591   3.195 -0.8704  0.2536  1.6779
   48MOL   H34234276   6.996   1.495   3.337 -0.7689  0.0816 -0.1948
   48MOL   H34334277   7.171   1.413   3.173  0.0824 -0.7874 -1.8032
   48MOL   H34434278   7.031   1.378   3.050 -0.5223 -0.7740  0.2900
   48MOL   H34534279   6.948   1.230   3.210 -0.0457 -0.6445  0.1703
   48MOL   H34634280   7.097   1.221   3.308  0.1211 -0.8717  0.5320
   48MOL   H34734281   7.222   1.147   3.107 -0.1786  1.9852 -1.9836
   48MOL   H34834282   7.095   1.169   3.001  1.1246  0.6910 -0.2098
   48MOL   H34934283   7.075   0.976   3.242 -0.5494  0.7635 -0.4173
   48MOL   H35034284   6.967   0.981   3.118  0.0943 -2.9935  0.5130
   48MOL   H35134285   7.112   0.912   2.947 -1.0872  0.4281  0.3529
   48MOL   H35234286   7.251   0.930   3.048 -0.1562  1.8295 -0.7525
   48MOL   H35334287   7.003   0.756   3.091  0.1245  0.1252 -0.5284
   48MOL   H35434288   7.137   0.737   3.205  2.0370 -2.5408  0.1212
   48MOL   H35534289   7.118   0.642   2.919  0.2977  0.6548  0.4202
   48MOL   H35634290   7.274   0.667   3.008  0.9450 -2.2757  0.1245
   48MOL   H35734291   7.378   0.198   3.132 -1.2398  1.4123  1.1674
   48MOL   H35834292   7.276   0.069   3.084  2.5428 -0.7866  0.6592
   48MOL   H35934293   7.355   0.166   2.964 -0.1461 -2.5757  0.2768
   48MOL   H36034294   7.054   0.133   3.022 -1.6916  0.0710  0.3368
   48MOL   H36134295   6.966   0.276   3.063  0.8945  2.6531 -1.2780
   48MOL   C36234296   5.990   7.550   3.160 -0.3370  0.3791  0.2928
   48MOL   C36334297   6.121   7.507   3.087  0.0068  0.5463 -0.0224
   48MOL   C36434298   6.226   7.616   3.090  0.9303 -0.4657 -0.1110
   48MOL   C36534299   6.363   7.574   3.044 -0.2049 -0.1531 -0.0537
   48MOL   C36634300   6.459   7.698   3.040 -0.1798 -0.7526 -0.1206
   48MOL   C36734301   6.594   7.641   2.995  0.2215 -0.2916 -0.3349
   48MOL   C36834302   6.697   7.751   2.990 -1.1084  0.3878 -0.3527
   48MOL   C36934303   6.690   0.068   2.872 -0.8479  0.8797  0.1510
   48MOL   O37034304   6.800   0.162   2.896  0.0199  0.3265  0.2339
   48MOL   C37134305   6.915   0.150   2.825  0.9420 -0.3145 -0.1390
   48MOL   O37234306   6.941   0.049   2.760 -0.1881 -0.2513  0.1458
   48MOL   C37334307   7.022   0.255   2.855 -0.0544 -0.4897 -0.1481
   48MOL   C37434308   7.146   0.217   2.769 -0.3557  0.1892 -0.3100
   48MOL   C37534309   6.977   0.404   2.825 -0.6618 -0.0983  0.1238
   48MOL   H37634310   5.972   7.653   3.129  2.3168  1.1131  1.0470
   48MOL   H37734311   5.903   7.486   3.143  0.1502  0.0691 -1.0408
   48MOL   H37834312   5.994   7.559   3.269  1.0929  0.8039  0.2091
   48MOL   H37934313   6.098   7.483   2.983 -0.6565 -0.8419  0.4370
   48MOL   H38034314   6.157   7.414   3.130 -3.9920 -2.3470 -2.6109
   48MOL   H38134315   6.244   7.654   3.190 -1.2186 -2.3984  1.0515
   48MOL   H38234316   6.186   7.695   3.026 -0.0767  0.0997  1.2219
   48MOL   H38334317   6.356   7.519   2.950  0.0215 -1.0021  0.4190
   48MOL   H38434318   6.394   7.499   3.117  1.3303  1.2410  0.7690
   48MOL   H38534319   6.414   0.000   2.983 -2.0863 -0.5371  1.6197
   48MOL   H38634320   6.462   7.743   3.139 -0.7131  0.1185 -0.4863
   48MOL   H38734321   6.584   7.579   2.906 -1.3295  1.0784 -1.1317
   48MOL   H38834322   6.627   7.573   3.074 -0.3711 -0.4284 -0.2027
   48MOL   H38934323   6.788   7.690   2.988 -2.2596 -1.4774  1.7882
   48MOL   H39034324   6.703   0.025   3.085  2.0583 -0.6374  0.0909
   48MOL   H39134325   6.690   0.013   2.779 -1.9081 -0.0242  0.6787
   48MOL   H39234326   6.596   0.123   2.877 -0.9282  0.7693 -0.1838
   48MOL   H39334327   7.122   0.209   2.663 -2.0830 -0.6809  0.1405
   48MOL   H39434328   7.236   0.278   2.778  0.0657 -0.3085 -1.0496
   48MOL   H39534329   7.179   0.114   2.783 -1.0931 -0.0836 -0.5351
   48MOL   H39634330   6.916   0.436   2.909 -1.2042  0.0254 -0.3117
   48MOL   H39734331   7.070   0.461   2.820  0.5997 -2.2316 -2.1579
   48MOL   C39834332   0.090   0.767   3.016  0.4601  0.2586  0.6959
   48MOL   C39934333   7.739   0.690   2.997 -0.0860 -0.0337 -0.6608
   48MOL   C40034334   7.699   0.689   2.849 -0.2435  0.4715 -0.0205
   48MOL   C40134335   7.574   0.616   2.822 -0.1672 -0.5152 -0.2231
   48MOL   C40234336   7.530   0.622   2.669 -0.4280  0.4678  0.3428
   48MOL   C40334337   7.395   0.555   2.652  0.2000  0.3116  0.5639
   48MOL   C40434338   7.348   0.535   2.503 -0.1665 -0.0908 -0.1155
   48MOL   C40534339   7.222   0.445   2.484 -0.1036  0.0617 -1.0729
   48MOL   O40634340   7.128   0.484   2.586 -0.6334  0.1444  0.4315
   48MOL   C40734341   6.999   0.440   2.572 -0.2353 -0.2600  0.5394
   48MOL   O40834342   6.957   0.376   2.474 -0.1913  0.1393  0.5052
   48MOL   C40934343   6.912   0.466   2.699  0.7484 -0.1895  0.1333
   48MOL   C41034344   6.772   0.401   2.686  0.3122  0.0735  0.5904
   48MOL   C41134345   6.888   0.620   2.720  0.3230  0.3676 -0.0506
   48MOL   H41234346   0.091   0.800   3.120 -2.3867  0.3833  0.7293
   48MOL   H41334347   0.102   0.862   2.965  2.2157 -0.9195 -1.1935
   48MOL   H41434348   0.182   0.717   2.985  0.5641 -0.1691  1.6463
   48MOL   H41534349   7.657   0.735   3.052 -0.1057  1.2584 -1.7276
   48MOL   H41634350   7.745   0.586   3.029  1.9949  0.3959  0.4589
   48MOL   H41734351   7.691   0.793   2.815  0.6364 -0.0357 -1.8429
   48MOL   H41834352   0.005   0.661   2.787  0.2061  3.5830 -0.9045
   48MOL   H41934353   7.499   0.666   2.884  0.8938 -0.9638  1.4589
   48MOL   H42034354   7.573   0.520   2.874 -5.1475 -0.7488 -0.4967
   48MOL   H42134355   7.526   0.724   2.631  2.2128  0.3690 -0.2745
   48MOL   H42234356   7.605   0.570   2.609 -0.9148 -0.4110  0.4972
   48MOL   H42334357   7.319   0.620   2.694 -0.2124  1.4028 -1.8025
   48MOL   H42434358   7.409   0.458   2.699  1.4364  0.6961  0.9972
   48MOL   H42534359   7.328   0.633   2.459 -1.9854 -1.1241 -1.6556
   48MOL   H42634360   7.426   0.488   2.444 -1.3499  0.3010 -2.0551
   48MOL   H42734361   7.175   0.446   2.386 -0.7175 -1.0926 -0.7854
   48MOL   H42834362   7.241   0.340   2.505  0.2926  0.4349  0.5409
   48MOL   H42934363   6.765   0.299   2.648 -0.0503 -0.8735  3.1183
   48MOL   H43034364   6.712   0.457   2.614  1.0017 -0.7928 -0.6771
   48MOL   H43134365   6.714   0.412   2.778  1.0367 -0.3823  1.1064
   48MOL   H43234366   6.984   0.654   2.760  0.1774  1.8408 -0.9161
   48MOL   H43334367   6.821   0.616   2.806 -1.8612 -0.6637 -1.7790
   48MOL   C43434368   6.202   1.367   2.989 -0.1908 -0.9506 -0.3592
   48MOL   C43534369   6.353   1.358   2.986  0.0726  0.0304 -0.6639
   48MOL   C43634370   6.415   1.327   3.121  0.5661  0.7342 -0.3879
   48MOL   C43734371   6.564   1.373   3.124 -0.0923 -0.0538  0.2731
   48MOL   C43834372   6.661   1.309   3.012  0.5025 -0.5032 -0.1476
   48MOL   C43934373   6.655   1.152   3.012  0.4759  0.4666  0.0940
   48MOL   C44034374   6.740   1.082   2.904  0.1399 -0.2741  0.2869
   48MOL   C44134375   6.719   0.925   2.913  0.3037 -0.3552  0.0043
   48MOL   O44234376   6.791   0.860   2.810  0.8850 -0.1499  0.2326
   48MOL   C44334377   6.744   0.818   2.690 -0.0438  0.1799  0.1466
   48MOL   O44434378   6.632   0.838   2.649  0.1670  0.5777  0.8826
   48MOL   C44534379   6.851   0.727   2.614  0.1481 -0.1216 -0.2562
   48MOL   C44634380   6.777   0.670   2.493  0.5799 -0.1792 -0.0198
   48MOL   C44734381   6.969   0.815   2.584 -0.0801  0.1166 -0.4764
   48MOL   H44834382   6.165   1.440   3.062  1.0492 -1.3673  0.7037
   48MOL   H44934383   6.164   1.269   3.019 -1.0947 -0.1994  1.0208
   48MOL   H45034384   6.159   1.390   2.892 -1.4275  0.5546  0.5215
   48MOL   H45134385   6.397   1.449   2.948  1.8686 -1.0193 -1.1584
   48MOL   H45234386   6.387   1.275   2.923  2.4989  0.6606 -0.2360
   48MOL   H45334387   6.410   1.218   3.126 -0.7162  0.8226  0.2065
   48MOL   H45434388   6.361   1.358   3.210 -1.2204 -1.0991 -0.7979
   48MOL   H45534389   6.617   1.356   3.218  0.0409  0.1525  0.2344
   48MOL   H45634390   6.579   1.481   3.124  1.4686 -0.2656 -0.0378
   48MOL   H45734391   6.621   1.358   2.923  2.5255  3.1012  0.8012
   48MOL   H45834392   6.759   1.353   3.025  0.3410 -0.6004  1.5652
   48MOL   H45934393   6.553   1.116   2.999  1.4260 -2.0217 -0.9847
   48MOL   H46034394   6.692   1.108   3.105  1.4454  0.1872 -0.4191
   48MOL   H46134395   6.698   1.112   2.808 -0.2896  0.1671  0.6135
   48MOL   H46234396   6.847   1.105   2.899 -0.5714  2.9934 -1.5686
   48MOL   H46334397   6.615   0.894   2.902  1.3417 -3.7233 -0.9749
   48MOL   H46434398   6.756   0.889   3.009 -0.2615 -0.6525  0.1147
   48MOL   H46534399   6.816   0.582   2.441 -1.1812 -0.1405 -1.4693
   48MOL   H46634400   6.676   0.643   2.524  1.0022 -0.5755  1.0353
   48MOL   H46734401   6.744   0.750   2.427  2.9546 -0.6770 -1.8620
   48MOL   H46834402   6.996   0.883   2.665  3.2231 -2.5045  0.7511
   48MOL   H46934403   7.051   0.744   2.590  2.3013  2.8000 -0.3890
   48MOL   C47034404   7.446   1.362   1.807 -0.0224  0.0748  0.5427
   48MOL   C47134405   7.401   1.232   1.743  0.0084  0.6789 -0.0894
   48MOL   C47234406   7.280   1.177   1.810 -0.2770  0.5754  0.3064
   48MOL   C47334407   7.229   1.051   1.743 -0.2673  0.1510 -0.2794
   48MOL   C47434408   7.095   1.004   1.793 -0.2371  0.3711 -0.2447
   48MOL   C47534409   7.101   0.935   1.931  0.9253 -0.7257  0.1932
   48MOL   C47634410   6.955   0.894   1.983  0.6098  0.6701  0.1788
   48MOL   C47734411   6.961   0.798   2.104 -0.0226 -1.3227  0.5682
   48MOL   O47834412   6.970   0.875   2.226  0.9730  0.5028  0.1649
   48MOL   C47934413   7.000   0.812   2.337 -0.3502  0.0220  0.1300
   48MOL   O48034414   7.033   0.690   2.341 -0.0235 -0.2020 -0.2893
   48MOL   C48134415   6.989   0.904   2.459  0.7723 -0.1554 -0.0816
   48MOL   C48234416   6.868   0.996   2.449  0.1440  0.1548 -0.6836
   48MOL   C48334417   7.128   0.988   2.462  0.5597  0.1710 -0.2135
   48MOL   H48434418   7.378   1.440   1.775 -0.3753 -0.2033  0.6086
   48MOL   H48534419   7.548   1.380   1.775  0.4917  0.3167  2.2466
   48MOL   H48634420   7.459   1.362   1.916 -0.5447  1.1090  0.6113
   48MOL   H48734421   7.377   1.261   1.640 -2.1626 -0.7554 -0.0079
   48MOL   H48834422   7.485   1.163   1.737 -1.9189 -1.7531  0.0697
   48MOL   H48934423   7.317   1.137   1.905 -0.1352  3.5721  1.5700
   48MOL   H49034424   7.209   1.255   1.838 -2.3969 -0.6608 -1.4897
   48MOL   H49134425   7.220   1.084   1.640 -0.8135  0.0978 -0.2478
   48MOL   H49234426   7.298   0.967   1.749 -1.2954 -0.5765  2.0748
   48MOL   H49334427   7.023   1.086   1.800  0.7414  1.1414  1.0137
   48MOL   H49434428   7.065   0.932   1.716  0.3461 -0.1015 -0.0291
   48MOL   H49534429   7.166   0.847   1.927  0.2889 -1.1561 -1.2610
   48MOL   H49634430   7.148   0.996   2.007 -0.2217 -0.0789  0.3894
   48MOL   H49734431   6.900   0.985   2.007 -1.9342 -0.2222 -2.0535
   48MOL   H49834432   6.908   0.845   1.898  0.7858  3.7184 -1.7772
   48MOL   H49934433   7.051   0.737   2.095  0.8434  0.0323 -0.1296
   48MOL   H50034434   6.874   0.733   2.100  0.1799 -1.5572 -0.1376
   48MOL   H50134435   6.853   1.034   2.550  2.7619 -0.3229 -0.0730
   48MOL   H50234436   6.778   0.952   2.405 -0.2828  1.6999 -1.3789
   48MOL   H50334437   6.884   1.088   2.394 -1.1810  0.9509  0.2408
   48MOL   H50434438   7.209   0.918   2.442 -1.6058 -2.1805 -0.9218
   48MOL   H50534439   7.126   1.060   2.379 -2.7298  0.3106 -0.0510
   48MOL   C50634440   6.724   1.866   3.227  0.2186 -0.4129 -0.2514
   48MOL   C50734441   6.695   1.787   3.095  0.7333 -0.6151 -0.2487
   48MOL   C50834442   6.813   1.782   3.006 -0.4253  0.2957  0.1568
   48MOL   C50934443   6.772   1.716   2.878 -0.1443  0.5218  0.6680
   48MOL   C51034444   6.882   1.652   2.796 -0.0760 -0.5601 -0.1127
   48MOL   C51134445   6.839   1.516   2.737 -0.7362  0.2278  0.5049
   48MOL   C51234446   6.956   1.452   2.670 -0.0300  0.5134 -0.3235
   48MOL   C51334447   6.917   1.326   2.596  0.2731  0.0653 -0.2271
   48MOL   O51434448   7.018   1.244   2.564  0.1265 -0.6587 -0.2583
   48MOL   C51534449   7.070   1.151   2.655 -0.4081 -0.0113  0.4302
   48MOL   O51634450   7.039   1.145   2.774 -0.4347  0.2010  0.6069
   48MOL   C51734451   7.184   1.067   2.588 -0.1285  0.3384  0.1949
   48MOL   C51834452   7.247   0.963   2.694 -0.4224 -0.3519 -0.3479
   48MOL   C51934453   7.303   1.151   2.525 -0.2587 -0.6268 -1.2046
   48MOL   H52034454   6.796   1.820   3.294 -0.2773 -2.4747 -1.0885
   48MOL   H52134455   6.643   1.897   3.293  0.2837 -0.9038  0.0539
   48MOL   H52234456   6.762   1.957   3.180 -2.0274  0.7216  0.0135
   48MOL   H52334457   6.620   1.841   3.036  0.9532 -0.5888 -0.5066
   48MOL   H52434458   6.653   1.693   3.131  0.7923  0.0580  1.6221
   48MOL   H52534459   6.850   1.879   2.972  0.1032  0.7083  1.8800
   48MOL   H52634460   6.885   1.717   3.055 -0.3834 -1.0021 -1.5685
   48MOL   H52734461   6.692   1.642   2.889 -1.6551  2.2842  1.8623
   48MOL   H52834462   6.724   1.794   2.819  0.6315  1.0281  0.7003
   48MOL   H52934463   6.909   1.721   2.716 -0.2423  0.1956  0.4722
   48MOL   H53034464   6.960   1.628   2.869  1.7656  0.7557 -1.5967
   48MOL   H53134465   6.771   1.517   2.652  1.9517 -2.3375 -1.7872
   48MOL   H53234466   6.795   1.449   2.810  0.6478 -3.1758 -1.6505
   48MOL   H53334467   7.020   1.425   2.755 -1.1663 -0.5703  0.2239
   48MOL   H53434468   7.007   1.516   2.598 -1.4478  0.8262 -1.0546
   48MOL   H53534469   6.866   1.358   2.506  0.1835  0.6140  0.0178
   48MOL   H53634470   6.836   1.266   2.638 -0.6548 -0.5452 -2.8037
   48MOL   H53734471   7.301   1.010   2.776  0.5134 -4.1646  1.3557
   48MOL   H53834472   7.319   0.893   2.653  0.5806  0.0152  0.7511
   48MOL   H53934473   7.182   0.895   2.749 -1.2076  0.9679  0.3770
   48MOL   H54034474   7.356   1.091   2.451 -0.4088  0.6973 -2.4216
   48MOL   H54134475   7.247   1.217   2.458  0.9642  0.1042 -1.5333
   48MOL   C54234476   0.719   1.438   2.717 -0.1238  0.4419  0.1078
   48MOL   C54334477   0.610   1.333   2.713 -0.1634  0.1645  0.2559
   48MOL   C54434478   0.510   1.361   2.824 -0.4172 -0.3021 -0.1753
   48MOL   C54534479   0.382   1.276   2.813  0.4571  0.4459  0.3163
   48MOL   C54634480   0.281   1.312   2.917 -0.5516 -0.4524  0.5000
   48MOL   C54734481   0.153   1.224   2.904  0.4188 -0.0265  0.1634
   48MOL   C54834482   0.049   1.268   2.796  0.2023  0.0334 -0.7964
   48MOL   C54934483   7.725   1.170   2.758 -0.5718  0.6275  0.3489
   48MOL   O55034484   7.613   1.232   2.702 -0.1297 -0.1098 -0.1883
   48MOL   C55134485   7.525   1.160   2.638  0.2913 -0.5226 -0.1182
   48MOL   O55234486   7.534   1.045   2.607 -0.0179  0.3327 -0.8666
   48MOL   C55334487   7.404   1.244   2.601  0.1418  0.0467  0.2846
   48MOL   C55434488   7.337   1.304   2.725  0.0444  0.0420 -0.0610
   48MOL   C55534489   7.448   1.372   2.519 -0.4461  0.2843 -0.3687
   48MOL   H55634490   0.773   1.427   2.812 -3.6297 -1.9685  1.9239
   48MOL   H55734491   0.672   1.536   2.725  0.4440  0.7027  0.2970
   48MOL   H55834492   0.786   1.433   2.631 -0.2584  0.2731  0.0128
   48MOL   H55934493   0.560   1.342   2.616  1.5798 -1.9204 -0.8908
   48MOL   H56034494   0.652   1.234   2.733  0.3213  0.3011 -0.0814
   48MOL   H56134495   0.487   1.467   2.822 -1.2984 -0.5035 -1.0454
   48MOL   H56234496   0.558   1.342   2.920  1.2646 -1.5917 -1.2382
   48MOL   H56334497   0.334   1.296   2.717 -0.8309 -0.0651  0.8419
   48MOL   H56434498   0.404   1.170   2.807 -2.8109 -0.2414 -0.2849
   48MOL   H56534499   0.258   1.418   2.910  0.8759 -0.0717  1.4315
   48MOL   H56634500   0.334   1.305   3.012 -0.4045  2.4516  0.6499
   48MOL   H56734501   0.183   1.121   2.883 -0.2011  0.0200 -0.9551
   48MOL   H56834502   0.108   1.224   3.004 -0.5661 -0.8182 -0.2731
   48MOL   H56934503   7.770   1.355   2.828  0.4155 -0.1511  0.1069
   48MOL   H57034504   0.098   1.290   2.702  0.3176 -0.2156 -0.7948
   48MOL   H57134505   7.686   1.112   2.841 -0.4870  1.4599  0.9744
   48MOL   H57234506   7.768   1.098   2.688 -0.0337  0.1029  1.2107
   48MOL   H57334507   7.295   1.244   2.806 -0.7000 -0.1276 -0.5721
   48MOL   H57434508   7.251   1.365   2.698 -0.6945  0.3162  2.7307
   48MOL   H57534509   7.403   1.373   2.779  0.9969  0.3840 -1.6421
   48MOL   H57634510   7.511   1.427   2.590  1.0523  0.7004 -1.9820
   48MOL   H57734511   7.357   1.431   2.508 -0.8950 -0.3289  0.0176
   48MOL   C57834512   6.759   1.813   2.451 -0.2289 -0.6127  0.0808
   48MOL   C57934513   6.686   1.761   2.321  0.4219 -1.1998  0.3770
   48MOL   C58034514   6.706   1.611   2.311 -0.1153 -0.2818 -0.4966
   48MOL   C58134515   6.851   1.561   2.292  0.0846  0.9626 -0.0876
   48MOL   C58234516   6.934   1.570   2.160  0.4041  0.3261  0.1613
   48MOL   C58334517   7.072   1.510   2.164  0.6272 -0.8288 -0.0631
   48MOL   C58434518   7.081   1.363   2.194  0.5815  0.1083  0.2295
   48MOL   C58534519   7.217   1.304   2.160 -0.2642 -0.1201  0.2196
   48MOL   O58634520   7.323   1.362   2.235  0.3126  0.1207 -0.5194
   48MOL   C58734521   7.437   1.291   2.276 -0.0216  0.0312 -0.0565
   48MOL   O58834522   7.477   1.186   2.222 -0.0456  0.4653 -0.3367
   48MOL   C58934523   7.525   1.368   2.384  0.2463  0.6445 -0.6384
   48MOL   C59034524   7.660   1.293   2.391 -0.1921 -0.0771 -0.0345
   48MOL   C59134525   7.544   1.522   2.351  0.2983 -0.2063  0.9046
   48MOL   H59234526   6.743   1.919   2.470  0.9725 -0.4614  0.2493
   48MOL   H59334527   6.867   1.805   2.442 -0.2155  0.2184 -0.5149
   48MOL   H59434528   6.726   1.768   2.545  0.6715 -0.1597  0.6153
   48MOL   H59534529   6.716   1.815   2.231 -1.3878 -0.0471  0.4534
   48MOL   H59634530   6.581   1.776   2.345  0.0444 -0.0540 -1.8827
   48MOL   H59734531   6.640   1.576   2.232 -2.4848 -1.4553  1.9562
   48MOL   H59834532   6.679   1.557   2.401 -0.1608 -0.3654 -0.5610
   48MOL   H59934533   6.832   1.454   2.298 -0.0193  0.9843 -0.0325
   48MOL   H60034534   6.923   1.584   2.370  0.3350  1.0517 -0.3440
   48MOL   H60134535   6.941   1.673   2.126  2.0105 -0.8309 -3.3230
   48MOL   H60234536   6.882   1.523   2.076  0.8217 -0.8395  0.5452
   48MOL   H60334537   7.136   1.566   2.232  1.2733 -1.5410 -0.0726
   48MOL   H60434538   7.108   1.537   2.065 -0.6362  0.1260 -0.2693
   48MOL   H60534539   7.007   1.298   2.147  0.7900 -0.6035  0.8678
   48MOL   H60634540   7.063   1.372   2.301 -0.6478  1.1949 -0.0557
   48MOL   H60734541   7.208   1.200   2.190  0.8967 -0.4646 -0.6089
   48MOL   H60834542   7.240   1.307   2.054  0.1358 -1.1819  0.2768
   48MOL   H60934543   7.644   1.185   2.394 -0.5249  0.0200  1.8208
   48MOL   H61034544   7.727   1.319   2.309  1.9708  0.5970  1.8936
   48MOL   H61134545   7.715   1.325   2.479 -1.1927  0.7382  0.3017
   48MOL   H61234546   7.580   1.572   2.442  0.6854  0.7979  0.2129
   48MOL   H61334547   7.448   1.572   2.343  1.2907  1.3213 -2.0251
   48MOL   C61434548   7.628   1.818   3.230 -0.0389 -0.0483  0.4239
   48MOL   C61534549   7.646   1.824   3.081  0.3307  0.4959  0.1564
   48MOL   C61634550   7.678   1.686   3.026  0.6636  0.0570 -0.3113
   48MOL   C61734551   7.724   1.691   2.869  0.5891  0.0734  0.1603
   48MOL   C61834552   0.067   1.767   2.834  0.0257 -0.5630 -0.1424
   48MOL   C61934553   0.101   1.765   2.686 -0.5088 -0.2832  0.1955
   48MOL   C62034554   0.111   1.625   2.620 -0.3485 -0.0531  0.7490
   48MOL   C62134555   0.136   1.611   2.474  0.5305  0.1480  0.3613
   48MOL   O62234556   0.019   1.638   2.401  0.2541 -0.2908 -0.1736
   48MOL   C62334557   7.777   1.586   2.274 -0.0528 -0.4469  0.5705
   48MOL   O62434558   0.078   1.547   2.192  0.2333 -0.2429  0.8912
   48MOL   C62534559   7.628   1.585   2.233  0.2101 -0.6411 -0.3380
   48MOL   C62634560   7.604   1.505   2.104 -0.4390 -0.6599  0.5212
   48MOL   C62734561   7.580   1.736   2.211 -0.0240 -0.5661  0.9751
   48MOL   H62834562   7.542   1.758   3.257 -1.6075  1.7299 -0.5247
   48MOL   H62934563   7.621   1.910   3.289  2.7114 -0.2964  1.2421
   48MOL   H63034564   7.719   1.777   3.276 -0.9614 -1.9859  0.5686
   48MOL   H63134565   7.558   1.863   3.030 -0.7374  0.3394  1.8525
   48MOL   H63234566   7.729   1.893   3.061  1.1277  0.3986  2.9988
   48MOL   H63334567   7.591   1.621   3.034  0.7360 -0.1135 -0.8686
   48MOL   H63434568   7.758   1.646   3.088  0.0091 -0.7147  0.0469
   48MOL   H63534569   7.639   1.716   2.805  0.0509 -0.5234  0.6446
   48MOL   H63634570   7.734   1.584   2.851 -0.7567 -0.2202  1.0851
   48MOL   H63734571   0.048   1.870   2.865 -1.5304 -1.3408  1.6167
   48MOL   H63834572   0.151   1.732   2.893 -0.3467  2.0248  2.0021
   48MOL   H63934573   0.017   1.808   2.631 -1.0444 -2.0171 -0.3599
   48MOL   H64034574   0.192   1.815   2.653  0.3887  0.0442  3.0753
   48MOL   H64134575   0.026   1.559   2.638 -1.0254  0.7217  0.4497
   48MOL   H64234576   0.190   1.580   2.679 -1.0507 -0.4984  1.3661
   48MOL   H64334577   0.210   1.691   2.460 -1.1177  1.2009 -2.7625
   48MOL   H64434578   0.185   1.515   2.458 -1.3281 -0.8439  0.4673
   48MOL   H64534579   7.499   1.499   2.076 -0.0181  0.1546 -1.3493
   48MOL   H64634580   7.633   1.399   2.101  2.8171  0.1721  0.4075
   48MOL   H64734581   7.667   1.548   2.026  0.9715 -0.9132  1.5097
   48MOL   H64834582   7.653   1.799   2.261 -0.0077 -0.6629  1.0724
   48MOL   H64934583   7.492   1.764   2.268 -1.1598 -0.2230 -0.9145
   48MOL   C65034584   7.298   1.386   0.945 -0.8399  0.2009  0.5030
   48MOL   C65134585   7.254   1.496   1.041 -0.3363  0.3305 -0.2423
   48MOL   C65234586   7.328   1.490   1.175  0.3105  0.4732 -0.1698
   48MOL   C65334587   7.264   1.585   1.279 -0.7797  0.2953  0.7959
   48MOL   C65434588   7.361   1.614   1.397  0.0140 -0.4163 -0.2198
   48MOL   C65534589   7.303   1.696   1.519 -0.0134 -0.3104 -0.4339
   48MOL   C65634590   7.413   1.714   1.622  0.4146 -0.2521  0.2344
   48MOL   C65734591   7.356   1.736   1.762 -0.0643  0.1262 -0.2850
   48MOL   O65834592   7.467   1.768   1.847 -0.1066  0.5044 -0.0116
   48MOL   C65934593   7.450   1.764   1.982  0.6116  0.0005  0.2430
   48MOL   O66034594   7.347   1.721   2.034  0.1292  0.0490  0.6151
   48MOL   C66134595   7.573   1.805   2.066 -0.1825 -0.6813  0.4323
   48MOL   C66234596   7.707   1.796   1.983 -0.0241  0.3916 -0.8750
   48MOL   C66334597   7.555   1.962   2.110  0.7976  0.4534  0.3339
   48MOL   H66434598   7.228   1.362   0.865 -0.7288  1.1723  0.1073
   48MOL   H66534599   7.308   1.291   0.998 -0.3475 -0.2764 -0.4316
   48MOL   H66634600   7.394   1.410   0.900 -0.3608 -0.3647  1.2252
   48MOL   H66734601   7.147   1.487   1.063  0.3131 -1.8990  2.3865
   48MOL   H66834602   7.275   1.586   0.984 -1.1139  0.1039 -0.8942
   48MOL   H66934603   7.431   1.515   1.148 -0.1310  0.6400 -1.7413
   48MOL   H67034604   7.317   1.391   1.218  0.4063 -0.4691 -2.2469
   48MOL   H67134605   7.174   1.546   1.328 -1.0736 -0.0976 -0.0560
   48MOL   H67234606   7.243   1.677   1.224 -0.8850 -0.7364 -0.9309
   48MOL   H67334607   7.443   1.674   1.358 -1.2456  0.3621 -1.7568
   48MOL   H67434608   7.401   1.523   1.441 -0.9446 -0.9524 -0.4281
   48MOL   H67534609   7.276   1.798   1.492 -1.8958 -0.1294  1.9440
   48MOL   H67634610   7.215   1.651   1.566 -0.5426  1.0581 -0.0842
   48MOL   H67734611   7.478   1.796   1.592 -0.4023 -0.1550 -1.3420
   48MOL   H67834612   7.464   1.618   1.634  2.6078  1.0134  1.3340
   48MOL   H67934613   7.310   1.647   1.805 -1.1666  0.9684  0.3281
   48MOL   H68034614   7.278   1.812   1.762  0.3398  0.5441 -0.7114
   48MOL   H68134615   7.702   1.742   1.889 -0.2212  1.1893 -1.3310
   48MOL   H68234616   0.006   1.753   2.045 -0.5730  0.9291  0.2094
   48MOL   H68334617   7.741   1.894   1.949  2.1445  0.2290  0.7064
   48MOL   H68434618   7.521   1.973   2.213 -0.6616  0.2617 -0.1203
   48MOL   H68534619   7.658   1.992   2.131  1.0841  0.5311 -1.1546
   48MOL   C68634620   7.268   1.681   3.005  0.3691 -0.3788  0.8091
   48MOL   C68734621   7.274   1.661   2.856 -0.4656  1.1683 -0.2809
   48MOL   C68834622   7.238   1.797   2.786 -0.2323 -0.2363  0.2273
   48MOL   C68934623   7.274   1.790   2.637  0.3542 -0.3528  0.3926
   48MOL   C69034624   7.215   1.913   2.564 -0.8163  0.2729 -0.0163
   48MOL   C69134625   7.211   1.893   2.411  0.6023  0.1022  1.1165
   48MOL   C69234626   7.136   2.009   2.341  0.1288  0.1066  0.0695
   48MOL   C69334627   7.156   2.035   2.193  0.1532  0.1532  0.2056
   48MOL   O69434628   7.295   2.065   2.176  0.6011 -0.3873  0.3037
   48MOL   C69534629   7.341   2.084   2.045  1.0923 -0.0600  0.1586
   48MOL   O69634630   7.272   2.116   1.952 -0.2537  0.2608 -0.0578
   48MOL   C69734631   7.493   2.072   2.019 -0.5078 -1.1113 -0.7214
   48MOL   C69834632   7.535   2.065   1.865 -0.1312  0.3798 -0.5658
   48MOL   C69934633   7.536   2.215   2.071  0.1411  0.3178  0.5928
   48MOL   H70034634   7.349   1.744   3.041  1.5429 -1.4253  0.0366
   48MOL   H70134635   7.279   1.592   3.067  2.8047 -1.2653 -0.8257
   48MOL   H70234636   7.167   1.717   3.027  0.8924  1.3606  0.4489
   48MOL   H70334637   7.207   1.583   2.819  1.3510 -0.4543 -0.2001
   48MOL   H70434638   7.377   1.627   2.849 -0.3190  1.5551 -0.0875
   48MOL   H70534639   7.301   1.875   2.828 -0.9735  0.6832 -0.3371
   48MOL   H70634640   7.134   1.821   2.807  0.0747  0.2328  1.2350
   48MOL   H70734641   7.225   1.708   2.586  0.9498  0.3047 -1.2698
   48MOL   H70834642   7.380   1.772   2.619  0.4804  2.6335 -2.3614
   48MOL   H70934643   7.267   2.006   2.586  2.9674 -1.3722 -1.6511
   48MOL   H71034644   7.113   1.927   2.601 -0.8385  3.6297 -1.2209
   48MOL   H71134645   7.309   1.887   2.363 -0.9206  0.6217 -2.2110
   48MOL   H71234646   7.177   1.796   2.376  0.5791  0.9511 -1.3138
   48MOL   H71334647   7.027   2.004   2.353 -0.0782  1.0150 -1.2727
   48MOL   H71434648   7.177   2.095   2.395  1.5336 -0.0872 -0.6763
   48MOL   H71534649   7.096   2.112   2.145 -1.5018 -1.2249  0.0198
   48MOL   H71634650   7.146   1.944   2.134 -2.0617  0.3631  0.2059
   48MOL   H71734651   7.643   2.057   1.854 -0.2269 -1.5594 -0.2919
   48MOL   H71834652   7.478   1.991   1.808 -1.6929  1.5823 -0.5932
   48MOL   H71934653   7.501   2.161   1.827 -1.4198  0.3960  0.5924
   48MOL   H72034654   7.645   2.217   2.079  0.1990 -0.2302 -0.0081
   48MOL   H72134655   7.487   2.246   2.163 -0.4204  1.0466  0.0483
   48MOL   H72234656   7.510   2.299   2.007 -2.2747 -0.9820 -0.2029
   49MOL     C134657   0.315   7.119   5.354  0.3359  0.4688 -0.0347
   49MOL     C234658   0.275   7.198   5.234  0.1034 -0.5617 -0.6509
   49MOL     C334659   0.128   7.158   5.196 -0.3929 -0.1451 -0.2236
   49MOL     C434660   0.115   7.017   5.144  0.5331 -0.7551  0.8234
   49MOL     C534661   7.760   6.964   5.108 -0.5931  0.3460  0.4632
   49MOL     C634662   7.660   6.938   5.225  0.1655 -0.2916  0.0312
   49MOL     C734663   7.707   6.846   5.337 -0.6359 -0.2292  0.0376
   49MOL     C834664   7.612   6.795   5.447  0.1372 -0.4494  0.5275
   49MOL     O934665   7.551   6.899   5.512  0.0988 -0.1591 -0.2859
   49MOL    C1034666   7.500   6.873   5.641  0.1777 -0.4160  0.3032
   49MOL    O1134667   7.497   6.764   5.700 -0.3410 -0.0746  0.1906
   49MOL    C1234668   7.434   6.995   5.694  0.5865 -0.3382  0.0771
   49MOL    C1334669   7.325   6.972   5.803  0.1825 -0.4218 -0.1142
   49MOL    C1434670   7.538   7.106   5.739  0.5636  0.6864 -0.2282
   49MOL    H1534671   0.417   7.144   5.382  1.7024 -3.6573 -0.9495
   49MOL    H1634672   0.327   7.011   5.342 -0.8377  0.4391 -1.0485
   49MOL    H1734673   0.245   7.138   5.434  1.6705  0.2251  1.2051
   49MOL    H1834674   0.347   7.176   5.156  0.9614 -1.0756  0.2763
   49MOL    H1934675   0.282   7.305   5.256 -1.5971 -0.7649  1.0721
   49MOL    H2034676   0.063   7.186   5.279 -1.9534  0.2800 -1.5578
   49MOL    H2134677   0.096   7.228   5.119 -2.9796  0.1092  1.0464
   49MOL    H2234678   0.192   7.003   5.068  0.9377 -0.1634  1.1180
   49MOL    H2334679   0.155   6.946   5.216  0.0020 -2.7048 -0.7644
   49MOL    H2434680   0.008   6.875   5.051 -0.2863 -0.5356  1.9584
   49MOL    H2534681   7.716   7.036   5.039  0.0875 -0.0227 -0.3673
   49MOL    H2634682   7.563   6.896   5.199 -0.0472 -0.5195  1.1751
   49MOL    H2734683   7.629   7.029   5.275 -0.1053 -0.0040 -0.6574
   49MOL    H2834684   0.013   6.895   5.385 -1.5714  2.1085 -0.6303
   49MOL    H2934685   7.741   6.754   5.289  0.6737  1.1491 -1.7603
   49MOL    H3034686   7.664   6.737   5.523 -0.4121 -3.1448 -1.0992
   49MOL    H3134687   7.548   6.730   5.387 -0.9973  0.0973  1.1412
   49MOL    H3234688   7.232   7.028   5.805 -0.4899 -1.5350  2.2539
   49MOL    H3334689   7.297   6.867   5.813 -1.7219  0.1442  0.7454
   49MOL    H3434690   7.366   7.000   5.900 -2.6834  0.3561  0.9344
   49MOL    H3534691   7.638   7.062   5.731 -0.0803 -0.6999 -0.8300
   49MOL    H3634692   7.522   7.128   5.844  0.8559 -0.9476  0.1777
   49MOL    H3734693   7.386   7.032   5.603  2.3043  0.5550 -0.4953
   49MOL    C3834694   6.631   7.359   6.278  0.5312  0.1900  0.2440
   49MOL    C3934695   6.571   7.330   6.141 -0.0636 -0.5221 -0.0160
   49MOL    C4034696   6.668   7.275   6.035  0.2655  0.2362 -0.0255
   49MOL    C4134697   6.787   7.360   6.004  0.2977  0.1487  0.4251
   49MOL    C4234698   6.900   7.287   5.924  0.6078  0.3767 -0.5585
   49MOL    C4334699   7.021   7.383   5.918  0.6485 -0.6779  0.4572
   49MOL    C4434700   7.141   7.314   5.849 -0.1474 -0.7246 -0.1626
   49MOL    C4534701   7.252   7.414   5.835  0.7754 -0.4272  0.1154
   49MOL    O4634702   7.369   7.337   5.811 -0.1851  0.0591 -0.3320
   49MOL    C4734703   7.404   7.309   5.681  0.4495  0.1017  0.2922
   49MOL    O4834704   7.333   7.341   5.586  0.2874 -0.0155  0.1808
   49MOL    C4934705   7.538   7.240   5.661 -0.0724  0.3449 -0.9228
   49MOL    C5034706   7.567   7.207   5.515  0.0069 -0.0013 -0.4166
   49MOL    C5134707   7.659   7.315   5.724 -0.0283  0.2168 -0.0675
   49MOL    H5234708   6.704   7.285   6.311  0.9631  0.6330  0.2868
   49MOL    H5334709   6.548   7.384   6.344 -1.8813  0.1247 -2.6266
   49MOL    H5434710   6.689   7.451   6.270 -0.7468  1.0514  0.7302
   49MOL    H5534711   6.510   7.413   6.105  0.2195 -0.8893 -1.3678
   49MOL    H5634712   6.501   7.249   6.160 -1.1379  0.0879 -1.3418
   49MOL    H5734713   6.700   7.177   6.070  1.7302  1.0796  1.0694
   49MOL    H5834714   6.630   7.255   5.935 -2.2641 -0.1626  0.9865
   49MOL    H5934715   6.823   7.399   6.099  1.0879 -1.0270  0.6107
   49MOL    H6034716   6.750   7.447   5.949  0.6647  0.0495  0.0228
   49MOL    H6134717   6.936   7.199   5.977 -1.4866  0.5541  1.2646
   49MOL    H6234718   6.872   7.259   5.822  1.6053 -3.0142  0.0472
   49MOL    H6334719   6.994   7.475   5.865 -0.3552 -0.4705  1.3142
   49MOL    H6434720   7.046   7.416   6.018 -3.8839  0.8764  1.1904
   49MOL    H6534721   7.109   7.267   5.756 -0.1395  0.7095 -0.9058
   49MOL    H6634722   7.174   7.232   5.913 -0.8431 -0.3504  0.6944
   49MOL    H6734723   7.264   7.473   5.926 -1.4509  2.3862 -1.3403
   49MOL    H6834724   7.226   7.474   5.748  2.5155  2.0961  1.2977
   49MOL    H6934725   7.500   7.125   5.488  0.1182 -0.7586  1.4748
   49MOL    H7034726   7.550   7.295   5.452 -1.9544  0.1839  0.3302
   49MOL    H7134727   7.668   7.169   5.502  0.0730  0.5261 -1.4351
   49MOL    H7234728   7.747   7.253   5.741  0.3333 -0.1264 -2.9507
   49MOL    H7334729   7.624   7.328   5.827  1.5560 -3.4337  0.9982
   49MOL    C7434730   0.593   0.120   4.801  0.3144  0.0237  0.1172
   49MOL    C7534731   0.597   0.201   4.932  0.3409 -0.0906  0.1872
   49MOL    C7634732   0.471   0.185   5.011  0.2205  0.1176 -0.3447
   49MOL    C7734733   0.457   0.054   5.093  0.7039  0.2404  0.0319
   49MOL    C7834734   0.324   0.033   5.172  0.0285  0.3895 -0.6148
   49MOL    C7934735   0.297   7.674   5.217 -0.5248  0.5693 -0.6201
   49MOL    C8034736   0.188   7.670   5.319  0.9415  0.2406 -0.2198
   49MOL    C8134737   0.138   7.529   5.355  0.1753 -0.8912 -0.6641
   49MOL    O8234738   0.054   7.546   5.469  0.3589 -0.1682 -0.2939
   49MOL    C8334739   0.029   7.435   5.549 -0.7468 -0.0429 -1.0499
   49MOL    O8434740   0.084   7.325   5.530  0.2720 -0.1726 -0.6682
   49MOL    C8534741   7.716   7.458   5.671  0.6026 -0.0128 -0.0551
   49MOL    C8634742   7.606   7.551   5.630 -0.3516  0.3987 -0.8281
   49MOL    C8734743   0.022   7.532   5.781 -0.3396  0.4206 -0.4117
   49MOL    H8834744   0.512   0.148   4.734 -0.2551 -2.1156 -0.1240
   49MOL    H8934745   0.576   0.015   4.825  0.8131  0.1467  1.0529
   49MOL    H9034746   0.687   0.127   4.746  0.3277 -0.6532  0.0448
   49MOL    H9134747   0.600   0.307   4.910 -0.5187 -0.1732 -0.3531
   49MOL    H9234748   0.681   0.177   4.998 -0.6943  1.1338  1.9840
   49MOL    H9334749   0.460   0.266   5.084 -1.1844 -1.6330  1.4411
   49MOL    H9434750   0.393   0.190   4.936 -1.0750  0.8998  1.0206
   49MOL    H9534751   0.540   0.035   5.162 -0.1967  1.8322  1.6006
   49MOL    H9634752   0.457   7.754   5.019  1.7663  1.1371 -0.9563
   49MOL    H9734753   0.315   0.105   5.253  1.9007 -2.0002  1.8492
   49MOL    H9834754   0.243   0.064   5.105 -1.2197  1.3075  1.2792
   49MOL    H9934755   0.275   7.607   5.134  1.0109  1.8957 -2.1425
   49MOL   H10034756   0.386   7.626   5.258 -1.6704  0.2880  1.5921
   49MOL   H10134757   0.236   7.713   5.406 -4.1339  2.4091  1.7372
   49MOL   H10234758   0.106   7.730   5.278 -0.2378 -0.9170  0.4256
   49MOL   H10334759   0.222   7.462   5.378 -0.1650 -0.8289  0.8175
   49MOL   H10434760   0.065   7.499   5.281 -2.6660 -0.2374  1.7574
   49MOL   H10534761   7.528   7.552   5.707  0.3115  0.2019 -0.1423
   49MOL   H10634762   7.568   7.511   5.536 -1.1356  0.7362 -0.6594
   49MOL   H10734763   7.637   7.654   5.613 -1.3838  1.3430  2.4777
   49MOL   H10834764   0.071   7.616   5.732  0.4108 -0.4517 -1.1511
   49MOL   H10934765   7.734   7.584   5.850  2.2976  0.8832  1.9246
   49MOL   C11034766   0.809   0.310   5.356 -0.0343 -0.1972  0.1009
   49MOL   C11134767   0.692   0.204   5.362 -0.1179  0.3286  0.1764
   49MOL   C11234768   0.698   0.113   5.484  0.0304  0.1579 -0.4730
   49MOL   C11334769   0.598   0.000   5.504 -0.2945  0.7416 -0.5756
   49MOL   C11434770   0.657   7.683   5.608  0.7469 -0.2046 -0.4142
   49MOL   C11534771   0.561   7.585   5.678 -0.3015  0.4192 -0.0116
   49MOL   C11634772   0.488   7.489   5.586  0.2595  0.9569 -0.1811
   49MOL   C11734773   0.396   7.376   5.649  0.1582 -0.1815  0.1407
   49MOL   O11834774   0.301   7.446   5.723 -0.3253  0.4931 -0.3247
   49MOL   C11934775   0.220   7.376   5.803 -0.6569  0.0623 -0.3680
   49MOL   O12034776   0.219   7.258   5.820  0.3541  0.1524  0.4564
   49MOL   C12134777   0.130   7.468   5.877 -0.2413 -0.0604  0.3140
   49MOL   C12234778   0.060   7.405   6.002 -0.0633  0.5302  0.4620
   49MOL   C12334779   0.205   7.593   5.933 -0.3741  0.5514 -0.2772
   49MOL   H12434780   0.810   0.379   5.440  2.4454  0.7069 -0.6541
   49MOL   H12534781   0.899   0.249   5.362  0.0004 -0.0608  0.9864
   49MOL   H12634782   0.829   0.371   5.268 -1.4908  0.0168 -0.1050
   49MOL   H12734783   0.700   0.136   5.277 -1.5241  2.5901 -1.8161
   49MOL   H12834784   0.594   0.253   5.367 -0.0107  0.4541  1.0717
   49MOL   H12934785   0.677   0.178   5.569 -1.4606  0.0138 -0.7076
   49MOL   H13034786   0.797   0.074   5.507 -0.3151 -0.0281  0.7444
   49MOL   H13134787   0.502   0.041   5.535 -0.0856  1.5723 -0.9864
   49MOL   H13234788   0.579   7.732   5.408  2.7582 -1.0185 -0.3899
   49MOL   H13334789   0.708   7.741   5.685 -2.4932 -0.6813  2.2308
   49MOL   H13434790   0.733   7.621   5.562  2.7642  3.0188 -1.5887
   49MOL   H13534791   0.617   7.525   5.749 -1.4169 -2.1237 -1.2070
   49MOL   H13634792   0.484   7.636   5.736  2.0849  0.5734  3.1145
   49MOL   H13734793   0.566   7.436   5.531  0.4568 -1.7559  2.5589
   49MOL   H13834794   0.433   7.551   5.515 -1.1898 -0.3755 -0.2515
   49MOL   H13934795   0.345   7.332   5.564  0.3175  1.6223 -0.9193
   49MOL   H14034796   0.459   7.309   5.708 -2.8679 -1.7541  1.6944
   49MOL   H14134797   7.776   7.482   6.046  0.3014  0.7686  0.5778
   49MOL   H14234798   7.764   7.333   5.972  0.7557  0.0410 -0.4493
   49MOL   H14334799   0.134   7.361   6.069 -0.3619  0.3121  0.6505
   49MOL   H14434800   0.128   7.650   5.985 -0.3021 -0.4942  0.9962
   49MOL   H14534801   0.247   7.648   5.848  0.7834  0.4948  0.2406
   49MOL   C14634802   7.501   6.789   6.106 -0.9069 -0.0782  0.1986
   49MOL   C14734803   7.652   6.775   6.153  0.0028 -0.1351  0.3474
   49MOL   C14834804   7.741   6.895   6.132 -0.1544  0.1533 -0.3156
   49MOL   C14934805   0.111   6.858   6.132  0.3051  0.3872 -0.0265
   49MOL   C15034806   0.204   6.965   6.195 -0.4331  0.3623 -0.3368
   49MOL   C15134807   0.265   7.070   6.092  0.6216  0.6565  0.0096
   49MOL   C15234808   0.385   7.141   6.161 -0.1946  0.2853  0.0227
   49MOL   C15334809   0.440   7.250   6.073  0.3995  0.1221  0.0560
   49MOL   O15434810   0.375   7.368   6.090  0.4791 -0.1924 -0.2816
   49MOL   C15534811   0.416   7.477   6.025 -0.5872 -0.3823  0.4050
   49MOL   O15634812   0.522   7.491   5.966 -0.4387  0.2013  0.9392
   49MOL   C15734813   0.325   7.602   6.035 -0.4303  0.4679  0.1842
   49MOL   C15834814   0.405   7.736   6.002 -0.1088  0.7410  0.5026
   49MOL   C15934815   0.264   7.620   6.179  0.1559  0.6299  0.3922
   49MOL   H16034816   7.446   6.874   6.146 -0.4577  0.4117 -0.2279
   49MOL   H16134817   7.446   6.708   6.155 -1.7389 -0.7776 -1.8628
   49MOL   H16234818   7.492   6.794   5.998  0.9589  1.1097  0.0758
   49MOL   H16334819   7.654   6.746   6.258 -1.2203  1.0668  0.7128
   49MOL   H16434820   7.685   6.691   6.092  1.1942  1.0194 -0.6355
   49MOL   H16534821   7.722   6.971   6.207  3.5088  0.7767  0.0658
   49MOL   H16634822   7.718   6.947   6.039 -1.2786 -0.7764 -0.5605
   49MOL   H16734823   0.130   6.764   6.183  2.5336 -0.1139 -1.7116
   49MOL   H16834824   0.140   6.828   6.031 -0.8436  1.9444 -0.8503
   49MOL   H16934825   0.296   6.924   6.237 -0.3268  2.6346  1.7348
   49MOL   H17034826   0.156   7.015   6.279  1.7372  1.5162  0.2308
   49MOL   H17134827   0.186   7.140   6.065  1.0429  0.8306 -0.7765
   49MOL   H17234828   0.292   7.026   5.996 -0.1113 -3.3921  1.5678
   49MOL   H17334829   0.362   7.183   6.259 -2.0541 -1.3521  0.3241
   49MOL   H17434830   0.466   7.073   6.185  0.2584  0.6074 -0.5883
   49MOL   H17534831   0.545   7.257   6.102  0.6098 -0.2966 -0.5900
   49MOL   H17634832   0.449   7.216   5.970 -1.1087 -1.0143  0.2736
   49MOL   H17734833   0.502   7.734   6.052  0.4896  1.5926 -0.5896
   49MOL   H17834834   0.352   0.044   6.037 -0.5491  1.1806 -1.1925
   49MOL   H17934835   0.416   7.746   5.894  0.1262  0.4603  0.4995
   49MOL   H18034836   0.220   7.524   6.207  1.4191 -0.5676 -1.6719
   49MOL   H18134837   0.178   7.688   6.179 -0.1481  0.2994 -3.1702
   49MOL   C18234838   7.629   7.704   6.157  0.7298  0.5574 -0.7895
   49MOL   C18334839   7.519   7.770   6.236  0.3911  0.6832  0.2310
   49MOL   C18434840   7.548   0.096   6.337 -0.0546  0.6251 -0.2283
   49MOL   C18534841   7.582   0.224   6.266  0.8227  0.2614  0.3690
   49MOL   C18634842   7.657   0.322   6.364  0.7839 -0.3619  0.4093
   49MOL   C18734843   0.023   0.282   6.376 -0.3610 -0.0838  0.1380
   49MOL   C18834844   0.106   0.297   6.248  0.4398 -0.0020  0.0490
   49MOL   C18934845   0.254   0.263   6.270 -0.2591  0.2838 -0.1288
   49MOL   O19034846   0.250   0.116   6.272 -0.1536  0.3244  0.4302
   49MOL   C19134847   0.365   0.046   6.295 -0.6440  0.3884 -0.7020
   49MOL   O19234848   0.475   0.097   6.307 -0.1012 -0.5236 -0.8740
   49MOL   C19334849   0.344   7.675   6.311 -0.1943  0.2688  0.2480
   49MOL   C19434850   0.482   7.599   6.320 -0.2745  0.5903 -0.7693
   49MOL   C19534851   0.246   7.657   6.436 -0.0323  0.3533  0.4496
   49MOL   H19634852   7.581   7.630   6.094 -0.7578  1.0379 -0.2557
   49MOL   H19734853   7.669   7.774   6.084  2.4269  0.4533  0.0160
   49MOL   H19834854   7.702   7.649   6.216  0.5467  0.2374 -0.8652
   49MOL   H19934855   7.467   7.687   6.284 -1.0654  1.3216 -0.1899
   49MOL   H20034856   7.454   0.027   6.156  0.3363  0.1095  0.0135
   49MOL   H20134857   7.461   0.111   6.401 -0.4922 -2.9898  0.1101
   49MOL   H20234858   7.629   0.048   6.393 -1.7216 -1.5944  0.3590
   49MOL   H20334859   7.653   0.205   6.185 -0.1068 -1.9757  0.0332
   49MOL   H20434860   7.492   0.258   6.215 -0.2831 -0.9655  1.4648
   49MOL   H20534861   7.616   0.304   6.463 -2.9830  1.2193 -0.7947
   49MOL   H20634862   7.640   0.424   6.332  0.6808 -0.7238 -0.7208
   49MOL   H20734863   0.017   0.175   6.394  1.1411 -0.6309 -2.3936
   49MOL   H20834864   0.067   0.335   6.461 -1.1724 -0.7650  0.9980
   49MOL   H20934865   0.069   0.234   6.166  1.8848 -0.7936 -0.0163
   49MOL   H21034866   0.093   0.401   6.217  0.9770  0.3831  1.1000
   49MOL   H21134867   0.294   0.309   6.360 -0.0182  0.8867 -0.5450
   49MOL   H21234868   0.322   0.301   6.194  1.7683 -2.5596  0.2176
   49MOL   H21334869   0.547   7.648   6.392 -1.5381 -0.2001  0.9523
   49MOL   H21434870   0.470   7.494   6.346  0.2959  1.1903  2.0908
   49MOL   H21534871   0.529   7.601   6.222  0.3506  1.8334 -0.4517
   49MOL   H21634872   0.183   7.745   6.447 -0.9999 -0.2002 -0.5291
   49MOL   H21734873   0.180   7.572   6.417 -0.3508  0.5789  0.5536
   49MOL   C21834874   0.007   6.402   6.601  0.1354 -0.1673  0.0665
   49MOL   C21934875   0.091   6.512   6.536 -0.8055  0.4720 -0.3499
   49MOL   C22034876   0.081   6.659   6.583 -0.0301  0.0904  0.6045
   49MOL   C22134877   0.199   6.756   6.559 -0.3956  0.2454 -0.3132
   49MOL   C22234878   0.163   6.906   6.557  0.6620  0.3601  0.4147
   49MOL   C22334879   0.282   7.001   6.547  0.3153  0.6583 -0.4726
   49MOL   C22434880   0.242   7.146   6.534 -0.8921 -0.1220 -0.3052
   49MOL   C22534881   0.352   7.248   6.575 -1.6213  0.0252 -0.6102
   49MOL   O22634882   0.305   7.380   6.562  0.6046  0.6167  0.1087
   49MOL   C22734883   0.385   7.490   6.585 -0.3940 -0.3411 -0.8494
   49MOL   O22834884   0.504   7.493   6.615 -0.4946  0.0776  0.7048
   49MOL   C22934885   0.306   7.622   6.579  0.4288  0.3475  0.1206
   49MOL   C23034886   0.186   7.611   6.679  0.6952 -0.0516  0.6680
   49MOL   C23134887   0.393   7.743   6.613  0.3622 -0.3689 -0.0261
   49MOL   H23234888   0.032   6.403   6.708 -0.8295 -1.3732  0.3185
   49MOL   H23334889   0.029   6.299   6.571  1.5376  0.2047 -0.2251
   49MOL   H23434890   7.682   6.425   6.586 -0.4333 -1.8457  1.2521
   49MOL   H23534891   0.081   6.491   6.430  0.4211 -0.9276 -0.1970
   49MOL   H23634892   0.189   6.491   6.578 -0.4285 -1.6794 -2.2470
   49MOL   H23734893   7.768   6.698   6.540  0.9915  2.3569  0.4096
   49MOL   H23834894   0.062   6.664   6.690  1.2883  1.7430  0.7739
   49MOL   H23934895   0.272   6.739   6.637 -1.4117 -0.4284  0.5056
   49MOL   H24034896   0.250   6.723   6.468 -0.5482 -1.2565  0.1284
   49MOL   H24134897   0.091   6.928   6.478 -2.1066  0.3789  2.8509
   49MOL   H24234898   0.106   6.931   6.646  1.1609  0.2452  0.7620
   49MOL   H24334899   0.345   6.980   6.634 -3.3044  0.4623  2.1797
   49MOL   H24434900   0.348   6.969   6.466 -0.0310 -1.3636  0.0149
   49MOL   H24534901   0.158   7.157   6.603 -0.8090 -1.4700  0.0261
   49MOL   H24634902   0.202   7.158   6.433 -1.1097  1.5819 -0.0284
   49MOL   H24734903   0.437   7.234   6.508  0.3711 -0.0445  1.8579
   49MOL   H24834904   0.396   7.222   6.671 -3.2628 -3.2345 -0.6722
   49MOL   H24934905   0.220   7.592   6.781  0.0544 -0.7890  0.7541
   49MOL   H25034906   0.113   7.533   6.657 -0.7137  1.2056  0.7838
   49MOL   H25134907   0.133   7.706   6.677  3.8852  1.7713 -2.7003
   49MOL   H25234908   0.484   7.748   6.554  0.7831  0.6140  0.6826
   49MOL   H25334909   0.348   0.056   6.575 -0.5029  1.0976  4.3077
   49MOL   C25434910   7.695   0.746   6.759 -0.1524  0.8176  0.0143
   49MOL   C25534911   0.008   0.629   6.808  0.2695  0.8801  0.2268
   49MOL   C25634912   0.100   0.567   6.697  0.1041 -0.5495  0.1465
   49MOL   C25734913   0.216   0.664   6.673 -0.2386  0.3531  0.1086
   49MOL   C25834914   0.318   0.603   6.584  0.3565  0.6112 -0.1778
   49MOL   C25934915   0.394   0.485   6.647 -0.0833 -0.0489 -0.6102
   49MOL   C26034916   0.504   0.434   6.547  0.9057 -0.6015 -0.1887
   49MOL   C26134917   0.597   0.331   6.607 -0.1675 -0.1124 -0.6322
   49MOL   O26234918   0.518   0.213   6.641 -0.4967 -0.4784  0.3993
   49MOL   C26334919   0.553   0.120   6.717 -0.6566 -0.7465  0.6583
   49MOL   O26434920   0.672   0.099   6.750 -0.0227 -0.3597 -0.6407
   49MOL   C26534921   0.441   0.015   6.758 -0.4146  0.4949  0.2133
   49MOL   C26634922   0.510   7.683   6.834 -1.0606  1.1715  0.1970
   49MOL   C26734923   0.326   0.082   6.843  0.2668 -0.7656 -0.2248
   49MOL   H26834924   7.765   0.812   6.707  0.4352 -0.6604 -1.0974
   49MOL   H26934925   7.608   0.718   6.700  0.7754 -1.5776 -0.2697
   49MOL   H27034926   7.662   0.807   6.843  1.9863  0.5784  1.0611
   49MOL   H27134927   0.075   0.658   6.889 -1.0311  2.6818  0.6953
   49MOL   H27234928   7.720   0.550   6.841  0.6149 -0.1179 -1.4320
   49MOL   H27334929   0.048   0.554   6.602  0.1047  0.9966 -0.0846
   49MOL   H27434930   0.139   0.472   6.733  0.6197  0.0486  1.2052
   49MOL   H27534931   0.255   0.693   6.770  1.8956 -1.2359 -0.2350
   49MOL   H27634932   0.182   0.752   6.618 -0.2538 -0.5655 -1.3694
   49MOL   H27734933   0.284   0.563   6.488  0.6449  4.5858 -2.0066
   49MOL   H27834934   0.387   0.681   6.556  1.7149 -0.3734  0.3669
   49MOL   H27934935   0.333   0.401   6.682  1.5399 -2.0958 -2.5583
   49MOL   H28034936   0.447   0.517   6.737  1.1090 -0.3268 -1.2010
   49MOL   H28134937   0.475   0.405   6.446 -0.6773 -1.0093  0.3731
   49MOL   H28234938   0.570   0.519   6.527  1.9934 -1.3998 -0.0217
   49MOL   H28334939   0.676   0.301   6.538 -1.3370 -2.0171 -1.1839
   49MOL   H28434940   0.642   0.361   6.701 -0.8543 -0.0158 -0.3333
   49MOL   H28534941   0.592   7.640   6.776 -0.0910  3.2479  0.0067
   49MOL   H28634942   0.569   7.709   6.922  0.0342 -1.8751  0.4263
   49MOL   H28734943   0.439   7.605   6.862  1.1067 -0.8467  0.2826
   49MOL   H28834944   0.243   0.015   6.862 -0.7662  1.0672  1.8907
   49MOL   H28934945   0.282   0.157   6.778  2.0056 -0.7628 -1.4507
   49MOL   C29034946   0.262   6.786   6.937 -0.2148  0.2661  0.5882
   49MOL   C29134947   0.219   6.912   7.016  0.3099  0.4581 -0.8770
   49MOL   C29234948   0.337   7.011   7.020  0.0885 -0.6157 -0.2484
   49MOL   C29334949   0.314   7.138   7.100  0.4854  0.1388  0.8018
   49MOL   C29434950   0.446   7.216   7.105 -0.4060 -0.1996  0.1270
   49MOL   C29534951   0.427   7.353   7.184 -0.1592 -0.3325  0.5703
   49MOL   C29634952   0.420   7.476   7.091 -0.2310  0.0131  0.4544
   49MOL   C29734953   0.365   7.596   7.170  0.4159  0.5403  0.2379
   49MOL   O29834954   0.337   7.700   7.078 -0.1614  0.6240  0.6954
   49MOL   C29934955   0.399   0.041   7.089 -0.0102  0.1672 -0.6121
   49MOL   O30034956   0.479   0.065   7.176 -1.1012 -0.5749  0.1440
   49MOL   C30134957   0.345   0.143   6.988  0.3272  0.8456 -0.5843
   49MOL   C30234958   0.443   0.269   6.981 -0.0125  0.4830 -0.2758
   49MOL   C30334959   0.212   0.206   7.059  0.1229 -0.5306  0.0733
   49MOL   H30434960   0.267   6.698   7.001 -0.0762 -0.4287 -0.3771
   49MOL   H30534961   0.357   6.806   6.888  0.2047 -1.5717  0.6270
   49MOL   H30634962   0.188   6.775   6.858  0.6244 -0.4959 -0.0952
   49MOL   H30734963   0.180   6.901   7.117  0.1598  1.2116 -0.8546
   49MOL   H30834964   0.153   6.970   6.952 -0.8630 -0.0135 -0.1185
   49MOL   H30934965   0.365   7.028   6.916  0.2533  0.2943 -0.0600
   49MOL   H31034966   0.417   6.956   7.069  0.8139  0.8902  0.2585
   49MOL   H31134967   0.232   7.195   7.056  0.2267  0.3689  1.5747
   49MOL   H31234968   0.292   7.113   7.204 -0.4304 -0.2160  0.5306
   49MOL   H31334969   0.523   7.160   7.158 -1.1227  0.3962  1.8283
   49MOL   H31434970   0.482   7.229   7.003 -0.4645 -1.2779 -0.0358
   49MOL   H31534971   0.509   7.371   7.253  1.2089 -2.2002 -0.5406
   49MOL   H31634972   0.342   7.346   7.253 -0.0210 -0.8070  0.6893
   49MOL   H31734973   0.347   7.467   7.011 -2.5854 -1.6717  2.6826
   49MOL   H31834974   0.519   7.503   7.055  0.1377 -1.2510  0.4759
   49MOL   H31934975   0.415   7.616   7.265 -2.6497 -0.0475  2.0621
   49MOL   H32034976   0.264   7.569   7.201  1.6366 -2.2374  1.9826
   49MOL   H32134977   0.425   0.329   6.891  0.6612  1.0335 -0.0471
   49MOL   H32234978   0.545   0.230   6.982 -0.0391  0.2392 -2.6437
   49MOL   H32334979   0.435   0.327   7.072 -1.8014  0.6700 -0.5395
   49MOL   H32434980   0.254   0.193   7.159 -0.2021  1.0962  0.4297
   49MOL   H32534981   0.207   0.312   7.034  0.4359 -0.6698 -0.5580
   49MOL   C32634982   7.021   7.441   6.384  0.6360  0.1680  0.2457
   49MOL   C32734983   7.128   7.519   6.454  0.0889 -0.5209  0.0869
   49MOL   C32834984   7.205   7.429   6.551 -0.7354 -0.7595 -0.2933
   49MOL   C32934985   7.350   7.482   6.586 -0.3428 -0.4489  0.4526
   49MOL   C33034986   7.355   7.630   6.635  0.2087  0.3313  0.3119
   49MOL   C33134987   7.498   7.686   6.673 -0.2444 -0.2619  0.4332
   49MOL   C33234988   7.500   0.062   6.701 -0.4130  0.0167 -0.5332
   49MOL   C33334989   7.640   0.126   6.714  0.0638  0.4028  0.3009
   49MOL   O33434990   7.691   0.099   6.843  0.1730  0.0719 -0.4303
   49MOL   C33534991   0.008   0.183   6.894  0.5471  0.0054  0.1157
   49MOL   O33634992   0.051   0.278   6.831  0.0576  0.0076  0.1653
   49MOL   C33734993   0.061   0.151   7.042  0.3604 -0.0509  0.2070
   49MOL   C33834994   0.048   7.778   7.066  0.3425  0.4605  0.1606
   49MOL   C33934995   7.745   0.236   7.137 -0.0904 -0.5159  0.6094
   49MOL   H34034996   6.973   7.489   6.299  0.1614 -1.7299 -0.5741
   49MOL   H34134997   6.946   7.419   6.460  1.5766 -1.6530  0.6647
   49MOL   H34234998   7.047   7.340   6.353 -1.4137 -0.4902  0.5577
   49MOL   H34334999   7.070   7.599   6.501 -2.8426 -1.5064 -1.6891
   49MOL   H34435000   7.189   7.570   6.379 -0.3141  1.6816  1.2139
   49MOL   H34535001   7.211   7.323   6.529  1.1614 -0.6391 -0.5038
   49MOL   H34635002   7.156   7.436   6.648 -0.5103 -0.4055 -0.2010
   49MOL   H34735003   7.416   7.464   6.502 -0.9220  0.6862 -0.2489
   49MOL   H34835004   7.399   7.418   6.659 -0.2329 -1.8411 -0.8157
   49MOL   H34935005   7.313   7.693   6.557  1.6620  0.5568 -0.3125
   49MOL   H35035006   7.291   7.639   6.723 -1.7482 -2.2014 -0.8084
   49MOL   H35135007   7.540   7.627   6.754 -0.9336 -1.9037 -0.3746
   49MOL   H35235008   7.566   7.671   6.588 -0.7724 -2.2146  0.3316
   49MOL   H35335009   7.442   0.072   6.792  0.9418 -2.5935  0.6884
   49MOL   H35435010   7.460   0.103   6.608  0.4682  0.7259 -0.6084
   49MOL   H35535011   7.713   0.091   6.641  2.8645  0.8275  2.8169
   49MOL   H35635012   7.634   0.234   6.696  0.7668  0.5026  0.6810
   49MOL   H35735013   7.722   7.754   7.081  0.5001  0.5586  1.5255
   49MOL   H35835014   0.070   7.720   6.977  1.0593  0.5579  0.2707
   49MOL   H35935015   0.105   7.758   7.157 -1.0700  1.9986  1.4357
   49MOL   H36035016   7.730   0.335   7.096 -1.0195  0.1056  2.3792
   49MOL   H36135017   7.647   0.188   7.135 -1.1665  1.6590 -0.2732
   49MOL   C36235018   0.185   1.179   0.021 -0.2784  0.1288 -0.9706
   49MOL   C36335019   0.144   1.062   7.707 -0.7699 -0.2768 -0.0086
   49MOL   C36435020   0.255   0.987   7.650 -0.0687  0.1734  0.1485
   49MOL   C36535021   0.223   0.898   7.533 -0.0587  0.0782 -0.0617
   49MOL   C36635022   0.354   0.846   7.473  0.3141  0.3643 -0.3215
   49MOL   C36735023   0.327   0.772   7.342  0.7641  0.1242 -0.1015
   49MOL   C36835024   0.247   0.640   7.358  0.0498  0.0585 -0.4366
   49MOL   C36935025   0.214   0.570   7.226  0.2139 -0.0508 -0.0121
   49MOL   O37035026   0.105   0.478   7.236  0.3526 -0.2597  0.9771
   49MOL   C37135027   0.120   0.358   7.297  0.0402  0.1097 -0.2175
   49MOL   O37235028   0.215   0.332   7.358 -0.0364  0.6106 -0.1832
   49MOL   C37335029   0.002   0.263   7.288  0.1829  0.2977  1.0996
   49MOL   C37435030   0.028   0.137   7.371 -1.1646  0.7656 -0.0621
   49MOL   C37535031   7.653   0.334   7.343 -0.1084  0.1745 -0.4803
   49MOL   H37635032   0.095   1.228   0.058 -0.5311 -0.9824 -0.0734
   49MOL   H37735033   0.238   1.143   0.109  0.9914 -2.0905 -2.5893
   49MOL   H37835034   0.244   1.250   7.742 -0.9240  2.7184  1.3863
   49MOL   H37935035   0.086   1.105   7.625  1.3174  0.6626 -1.0155
   49MOL   H38035036   0.068   1.001   7.756  0.1862 -1.2826  0.2460
   49MOL   H38135037   0.305   0.937   7.733  1.5712 -0.7325 -1.3760
   49MOL   H38235038   0.323   1.065   7.614 -1.4708 -0.0259 -3.0931
   49MOL   H38335039   0.166   0.949   7.455 -0.0757  1.2834  0.7221
   49MOL   H38435040   0.157   0.816   7.562 -0.4213  0.6045  0.6132
   49MOL   H38535041   0.427   0.925   7.460 -1.7473  2.2136 -1.0713
   49MOL   H38635042   0.404   0.773   7.537 -0.2125 -0.6109 -0.9933
   49MOL   H38735043   0.427   0.746   7.305  0.2091 -1.1842 -0.7128
   49MOL   H38835044   0.278   0.830   7.264 -1.5089 -2.6437 -0.8220
   49MOL   H38935045   0.146   0.667   7.389 -0.9037 -1.4213 -2.1761
   49MOL   H39035046   0.294   0.569   7.426 -2.9444 -1.2952  0.3062
   49MOL   H39135047   0.181   0.640   7.149  0.0403  0.5909  0.6330
   49MOL   H39235048   0.301   0.522   7.182  1.5931  0.4041  2.1415
   49MOL   H39335049   0.113   0.092   7.320  0.1942  2.6084  0.4932
   49MOL   H39435050   0.047   0.147   7.478 -1.9250 -1.7625  0.3410
   49MOL   H39535051   7.725   0.066   7.367  0.2793 -0.8395 -2.1811
   49MOL   H39635052   7.640   0.434   7.301 -0.4483  0.2515 -0.1950
   49MOL   H39735053   7.557   0.293   7.310  1.8368 -3.6660 -1.6623
   49MOL   C39835054   0.240   7.642   0.239  0.0210  0.1689  0.8072
   49MOL   C39935055   0.252   7.716   0.371  0.6714  0.2437 -0.3101
   49MOL   C40035056   0.241   0.088   0.360  0.4888  0.6460  0.1185
   49MOL   C40135057   0.102   0.145   0.406 -0.0959  0.0630 -0.5700
   49MOL   C40235058   7.763   0.077   0.332 -0.4474  0.0508 -0.0641
   49MOL   C40335059   7.770   0.116   0.182 -0.1782  0.5018 -1.3963
   49MOL   C40435060   7.640   0.086   0.109 -0.3174 -0.8511  0.9166
   49MOL   C40535061   7.648   0.072   7.741  0.0456 -0.1022  0.2270
   49MOL   O40635062   7.652   0.209   7.689  0.2257  0.1210 -0.0070
   49MOL   C40735063   7.594   0.222   7.566 -0.3583  0.2547  0.0390
   49MOL   O40835064   7.515   0.135   7.522  0.1627  0.0434 -0.3267
   49MOL   C40935065   7.616   0.356   7.494  0.4147  0.8634  0.0508
   49MOL   C41035066   7.731   0.433   7.566  0.0139 -0.6800 -0.1261
   49MOL   C41135067   7.478   0.434   7.488  0.2847  0.3508 -0.0100
   49MOL   H41235068   0.257   7.535   0.253  0.3837 -0.0752 -1.3598
   49MOL   H41335069   0.303   7.674   0.156  0.3831  1.9571  1.7293
   49MOL   H41435070   0.138   7.648   0.202 -0.2137  1.5505  1.6354
   49MOL   H41535071   0.351   7.692   0.408  0.0404 -0.9787  0.6204
   49MOL   H41635072   0.194   7.674   0.454  0.2697  1.4347  0.0271
   49MOL   H41735073   0.320   0.142   0.413 -0.0828  0.3423  1.2956
   49MOL   H41835074   0.259   0.125   0.258  0.6555 -2.0976 -0.8736
   49MOL   H41935075   0.110   0.251   0.382  4.5177 -0.5379 -2.2400
   49MOL   H42035076   0.091   0.149   0.514 -0.0607  2.1109 -0.6333
   49MOL   H42135077   7.770   7.750   0.352 -0.7676  0.6720  3.7487
   49MOL   H42235078   7.675   0.113   0.385  1.3308  2.5942  1.2647
   49MOL   H42335079   0.075   0.070   0.132  0.1027  0.5927 -1.0024
   49MOL   H42435080   7.777   0.225   0.176 -1.6275  0.6178 -1.2571
   49MOL   H42535081   7.608   7.764   0.132 -0.5040 -1.6084 -2.3557
   49MOL   H42635082   7.553   0.144   0.140 -0.8536 -1.5814  0.7927
   49MOL   H42735083   7.735   0.015   7.709  2.1593  0.4577  4.6501
   49MOL   H42835084   7.559   0.017   7.708  0.8842 -2.5555  1.8723
   49MOL   H42935085   7.775   0.516   7.511  0.9940 -1.3208 -0.3360
   49MOL   H43035086   0.037   0.366   7.574  1.6316  1.3316 -0.3925
   49MOL   H43135087   7.709   0.471   7.666  0.5395  1.0129 -0.6482
   49MOL   H43235088   7.411   0.371   7.430  1.2972 -0.2258 -0.5647
   49MOL   H43335089   7.497   0.523   7.427 -1.4263  0.7531  0.0317
   49MOL   C43435090   7.076   1.452   7.557 -0.2392 -0.0473 -0.1115
   49MOL   C43535091   7.112   1.304   7.602 -0.3534  0.2534 -0.1718
   49MOL   C43635092   7.262   1.288   7.610 -0.5800  0.1109 -0.7841
   49MOL   C43735093   7.301   1.139   7.580  0.7224  0.3456  0.4316
   49MOL   C43835094   7.435   1.087   7.643  0.2025 -0.2382  0.0236
   49MOL   C43935095   7.463   0.943   7.635  0.1899  0.6472  0.1085
   49MOL   C44035096   7.602   0.903   7.690 -0.2751  0.1194 -0.0630
   49MOL   C44135097   7.592   0.761   7.748 -0.4622  0.5117 -0.2626
   49MOL   O44235098   7.543   0.666   7.664 -0.5438 -0.9401 -0.1333
   49MOL   C44335099   7.473   0.559   7.717  0.5132  1.1020 -0.2354
   49MOL   O44435100   7.479   0.525   0.058  0.0675 -1.1373 -0.2015
   49MOL   C44535101   7.382   0.482   7.615  0.3169 -0.2458  0.6012
   49MOL   C44635102   7.320   0.360   7.685  0.0477  0.0429  0.0066
   49MOL   C44735103   7.270   0.578   7.575 -0.4657  0.8441 -0.2197
   49MOL   H44835104   7.056   1.514   7.644  1.3750 -1.3812  1.2550
   49MOL   H44935105   6.984   1.464   7.500 -0.8140  2.6390  1.3315
   49MOL   H45035106   7.155   1.503   7.500 -0.6523  1.2316  0.4479
   49MOL   H45135107   7.062   1.235   7.533  0.3833  0.5683 -1.0356
   49MOL   H45235108   7.068   1.284   7.699  1.1165  1.5861  0.7812
   49MOL   H45335109   7.291   1.328   7.707 -1.3353 -0.4828 -0.3102
   49MOL   H45435110   7.311   1.351   7.535 -0.8151 -0.0594 -1.0807
   49MOL   H45535111   7.317   1.131   7.472  2.1142 -0.2321  0.6811
   49MOL   H45635112   7.218   1.074   7.608  2.1971 -1.3390  0.9270
   49MOL   H45735113   7.521   1.138   7.601  0.2722 -0.2003  0.2122
   49MOL   H45835114   7.440   1.113   7.749  1.5606  3.5603 -0.8840
   49MOL   H45935115   7.466   0.908   7.531 -0.9167 -2.1515  0.9734
   49MOL   H46035116   7.389   0.883   7.688 -0.1014 -1.2244 -2.3501
   49MOL   H46135117   7.683   0.906   7.617  0.2160 -0.0092  0.4693
   49MOL   H46235118   7.632   0.960   7.778 -1.0515  0.3084  0.0787
   49MOL   H46335119   7.529   0.759   0.057  0.4010  2.6473  0.4010
   49MOL   H46435120   7.685   0.720   0.007  2.3851  2.7680 -4.3160
   49MOL   H46535121   7.396   0.319   7.751 -1.4974  0.2959  1.9767
   49MOL   H46635122   7.235   0.381   7.749  1.1232 -0.4481  1.6220
   49MOL   H46735123   7.300   0.285   7.608 -0.5856  0.6118 -0.3921
   49MOL   H46835124   7.214   0.581   7.668 -1.5357  2.2059 -0.8903
   49MOL   H46935125   7.309   0.679   7.561 -0.1808  0.7987  0.2268
   49MOL   C47035126   7.718   1.335   7.156 -0.9100  0.2093  0.1325
   49MOL   C47135127   0.069   1.271   7.198 -0.2404 -0.2672  0.5740
   49MOL   C47235128   0.066   1.124   7.250 -0.3892  0.2826 -0.0933
   49MOL   C47335129   7.736   1.040   7.195 -0.2740  0.0918 -0.4578
   49MOL   C47435130   7.742   0.891   7.219 -0.8046 -0.1229 -0.1846
   49MOL   C47535131   7.627   0.813   7.146  0.3701  0.4431  0.1204
   49MOL   C47635132   7.498   0.818   7.232  0.3299  0.5355  0.1866
   49MOL   C47735133   7.390   0.728   7.183  0.1246  0.7678 -0.2521
   49MOL   O47835134   7.304   0.706   7.297  0.1023  0.4664 -0.6339
   49MOL   C47935135   7.252   0.580   7.315  0.6051  0.1178 -0.1534
   49MOL   O48035136   7.263   0.491   7.231 -0.3852  0.3882  0.0851
   49MOL   C48135137   7.174   0.557   7.450  0.5758  0.4193 -0.1045
   49MOL   C48235138   7.108   0.415   7.453  0.5907  0.8260  0.4544
   49MOL   C48335139   7.056   0.667   7.474  0.0475  0.3893 -0.0805
   49MOL   H48435140   7.650   1.268   7.103 -0.9184  0.0912  0.2913
   49MOL   H48535141   7.731   1.417   7.085 -1.7234 -0.0585 -0.3350
   49MOL   H48635142   7.668   1.377   7.243 -1.9528  0.8693 -0.7627
   49MOL   H48735143   0.131   1.273   7.108  0.7506  0.9427  1.2693
   49MOL   H48835144   0.129   1.324   7.272 -0.5030 -1.2553  1.5088
   49MOL   H48935145   0.160   1.072   7.230 -0.0177  0.7861  0.3380
   49MOL   H49035146   0.061   1.113   7.358 -0.9521  0.5757 -0.0918
   49MOL   H49135147   7.646   1.075   7.243 -1.0222 -1.9983 -0.2968
   49MOL   H49235148   7.712   1.048   7.089 -2.5505 -0.1969  0.0107
   49MOL   H49335149   0.052   0.855   7.168 -1.0648 -0.9342 -0.0756
   49MOL   H49435150   7.745   0.873   7.327  2.8517  1.1767 -0.0093
   49MOL   H49535151   7.604   0.876   7.060  0.3857  1.7231  1.0574
   49MOL   H49635152   7.642   0.709   7.117  1.0538  0.2602  1.1229
   49MOL   H49735153   7.528   0.779   7.330  0.2530 -0.3480 -0.1304
   49MOL   H49835154   7.459   0.918   7.244 -3.1437 -0.8522  1.1191
   49MOL   H49935155   7.444   0.638   7.156  1.3195  1.8801 -1.6265
   49MOL   H50035156   7.335   0.763   7.096  1.5887  3.7899 -0.0209
   49MOL   H50135157   7.036   0.394   7.374  0.1388 -0.3534  1.1763
   49MOL   H50235158   7.052   0.407   7.546 -0.2430 -1.4490 -0.2188
   49MOL   H50335159   7.181   0.336   7.435 -0.7843 -0.2884 -0.3017
   49MOL   H50435160   7.022   0.648   7.576  2.1739 -2.2197  0.2070
   49MOL   H50535161   7.102   0.765   7.486  3.9503 -1.4300  0.8805
   49MOL   C50635162   7.513   1.792   7.151 -0.4502 -0.7593 -0.2905
   49MOL   C50735163   7.476   1.653   7.091  0.4969  0.1100  0.0444
   49MOL   C50835164   7.362   1.594   7.159  0.3531  0.2907 -0.5010
   49MOL   C50935165   7.330   1.454   7.100 -0.2062  0.6269  0.7333
   49MOL   C51035166   7.229   1.368   7.180 -0.1090 -0.4042 -0.6564
   49MOL   C51135167   7.230   1.219   7.146  1.3436 -0.0911  0.1947
   49MOL   C51235168   7.114   1.135   7.211  0.1270 -0.1305  0.1884
   49MOL   C51335169   7.121   0.978   7.181  0.5388 -0.0166 -0.4222
   49MOL   O51435170   7.041   0.905   7.282  0.8195  0.2947 -0.2800
   49MOL   C51535171   7.006   0.781   7.252 -0.3826  0.4862 -0.2589
   49MOL   O51635172   7.015   0.731   7.138 -0.3619 -1.4595  0.4763
   49MOL   C51735173   6.943   0.701   7.371 -0.1545  0.1838  0.0408
   49MOL   C51835174   6.879   0.572   7.314  0.1178 -0.2195 -0.1280
   49MOL   C51935175   6.833   0.788   7.444 -0.1432  0.4419  0.0033
   49MOL   H52035176   7.424   1.856   7.148 -1.0249 -1.3873  2.2574
   49MOL   H52135177   7.578   1.836   7.075  0.4285 -1.4766  0.0413
   49MOL   H52235178   7.550   1.781   7.253  0.7076 -1.4917 -0.7814
   49MOL   H52335179   7.557   1.584   7.118 -0.0572  0.5562  3.0770
   49MOL   H52435180   7.467   1.675   6.985 -2.0608 -1.5465 -0.0986
   49MOL   H52535181   7.383   1.573   7.263  0.4501  1.1660 -0.3445
   49MOL   H52635182   7.284   1.669   7.143 -1.8965 -2.2349 -2.1038
   49MOL   H52735183   7.304   1.470   6.995  1.8313  0.2603  0.1512
   49MOL   H52835184   7.419   1.392   7.096 -0.5967  0.0885  0.2771
   49MOL   H52935185   7.243   1.382   7.288  1.7340 -1.4435 -0.7523
   49MOL   H53035186   7.131   1.404   7.149  0.4201  0.9183 -0.8109
   49MOL   H53135187   7.330   1.182   7.168  1.2815 -1.5856 -1.8343
   49MOL   H53235188   7.229   1.209   7.037  2.1517  2.1452 -0.0449
   49MOL   H53335189   7.017   1.158   7.167 -0.2952 -1.9896  0.1224
   49MOL   H53435190   7.101   1.161   7.316 -0.9882  2.1288 -0.4809
   49MOL   H53535191   7.222   0.940   7.192  0.6552  0.8796  1.9282
   49MOL   H53635192   7.093   0.972   7.076  1.0907  1.5081 -0.6782
   49MOL   H53735193   6.801   0.604   7.245  0.0039 -0.2114  0.0050
   49MOL   H53835194   6.842   0.509   7.395 -1.3011  1.5008  0.5889
   49MOL   H53935195   6.953   0.526   7.248  0.6624  1.1054 -0.4498
   49MOL   H54035196   6.813   0.737   7.539 -0.6044  0.2241 -0.2107
   49MOL   H54135197   6.873   0.885   7.474 -1.2971  0.6983  0.7046
   49MOL   C54235198   5.863   1.239   7.497  0.4764  0.6381  0.4663
   49MOL   C54335199   6.017   1.251   7.496 -0.1279 -0.2464 -0.6027
   49MOL   C54435200   6.081   1.115   7.527 -0.5083  0.3030 -0.3422
   49MOL   C54535201   6.072   1.023   7.414  0.4444  0.0097  0.2587
   49MOL   C54635202   6.139   0.886   7.445 -0.2477  0.5117 -0.4087
   49MOL   C54735203   6.234   0.822   7.334 -0.5890 -0.3726 -0.0906
   49MOL   C54835204   6.277   0.672   7.364  0.4877 -0.0986  0.1167
   49MOL   C54935205   6.395   0.641   7.263  0.7062  0.0931  0.0634
   49MOL   O55035206   6.505   0.736   7.273 -0.1864  0.2784 -0.0836
   49MOL   C55135207   6.594   0.720   7.370  0.2288 -0.6377 -0.2290
   49MOL   O55235208   6.600   0.621   7.439  0.1446  0.3439 -0.5429
   49MOL   C55335209   6.697   0.834   7.381 -1.1762  0.0819 -0.1257
   49MOL   C55435210   6.706   0.886   7.228 -0.5229 -0.4029 -0.0101
   49MOL   C55535211   6.635   0.958   7.462 -0.2715 -0.5389 -0.2509
   49MOL   H55635212   5.820   1.169   7.426  1.5076 -0.0462  0.4956
   49MOL   H55735213   5.815   1.336   7.499 -0.2952  0.2557  0.6004
   49MOL   H55835214   5.837   1.194   7.593  0.5363  0.9363  0.6225
   49MOL   H55935215   6.056   1.290   7.402  1.1072  2.0968  0.8313
   49MOL   H56035216   6.052   1.329   7.563 -1.9916  1.3464 -1.4285
   49MOL   H56135217   6.036   1.074   7.618  0.2279 -0.2714 -0.2305
   49MOL   H56235218   6.185   1.132   7.553 -0.6956  0.6425  0.2094
   49MOL   H56335219   5.968   1.006   7.388  0.4412 -0.5543  0.6239
   49MOL   H56435220   6.138   1.067   7.339  1.3329 -2.7195 -0.6444
   49MOL   H56535221   6.064   0.810   7.465  1.3062 -0.7797  0.6101
   49MOL   H56635222   6.205   0.898   7.531 -1.4797  2.2251  0.3140
   49MOL   H56735223   6.180   0.819   7.239 -0.3203 -0.7462 -0.2329
   49MOL   H56835224   6.316   0.892   7.323  0.3190 -1.3613  0.2765
   49MOL   H56935225   6.308   0.661   7.468  2.6395 -3.2013 -0.7843
   49MOL   H57035226   6.199   0.598   7.346  1.7283 -1.7298  1.3076
   49MOL   H57135227   6.373   0.652   7.157  1.8020  1.9787  0.0152
   49MOL   H57235228   6.419   0.535   7.275  0.5424 -0.0250 -0.6550
   49MOL   H57335229   6.727   0.798   7.167 -0.3000 -1.6135  1.7706
   49MOL   H57435230   6.789   0.955   7.214 -0.5867 -0.5095 -0.9394
   49MOL   H57535231   6.614   0.940   7.204 -0.0256  0.5768  0.2794
   49MOL   H57635232   6.540   0.970   7.409  0.0946  0.7640 -0.6428
   49MOL   H57735233   6.678   1.052   7.428 -1.2476  0.8415  2.1957
   49MOL   C57835234   7.017   7.585   0.011  0.3534  0.3444 -0.3631
   49MOL   C57935235   6.944   7.710   0.066 -0.5870 -0.0817 -0.1953
   49MOL   C58035236   6.983   0.059   7.774 -0.5693  0.0353 -0.1886
   49MOL   C58135237   6.873   0.167   0.043 -0.3245  0.5930 -0.0323
   49MOL   C58235238   6.880   0.301   7.757 -0.0784 -0.5025 -0.1985
   49MOL   C58335239   6.765   0.384   0.019  0.3019 -0.0055 -0.5034
   49MOL   C58435240   6.746   0.521   7.721 -0.9105 -0.2582 -0.2876
   49MOL   C58535241   6.638   0.615   7.774 -0.0744  0.7277 -0.2295
   49MOL   O58635242   6.661   0.741   7.716 -0.7843 -0.7066  0.2593
   49MOL   C58735243   6.560   0.820   7.675 -1.3013  0.4260 -0.6367
   49MOL   O58835244   6.443   0.788   7.674 -0.0330 -0.0174 -0.3307
   49MOL   C58935245   6.605   0.958   7.615 -0.5029 -0.2739 -0.1329
   49MOL   C59035246   6.487   1.061   7.639 -0.8175  0.6586  0.3952
   49MOL   C59135247   6.739   1.010   7.685  0.3001 -0.4185  0.0953
   49MOL   H59235248   7.012   7.504   0.085 -1.8597  0.3127 -0.5279
   49MOL   H59335249   7.119   7.611   7.760 -0.1616 -0.4670 -2.8652
   49MOL   H59435250   6.960   7.579   7.698 -1.3858 -0.1670  0.7162
   49MOL   H59535251   6.962   7.719   0.173  0.1948 -1.8815 -0.1483
   49MOL   H59635252   6.838   7.687   0.058 -0.3461 -2.3763  2.3376
   49MOL   H59735253   6.977   0.059   7.665 -0.4061 -0.9240 -0.1974
   49MOL   H59835254   7.085   0.091   0.015 -0.0183 -0.6894 -1.6836
   49MOL   H59935255   6.887   0.175   0.151  2.0546  0.9578 -0.3376
   49MOL   H60035256   6.779   0.127   0.006  0.2754 -0.8518 -0.0096
   49MOL   H60135257   6.889   0.297   7.649 -0.4367  0.2857 -0.2596
   49MOL   H60235258   6.975   0.345   0.008 -0.5793 -0.5678  1.5473
   49MOL   H60335259   6.799   0.409   0.120 -1.2080  0.8479 -0.1846
   49MOL   H60435260   6.664   0.344   0.014 -0.6514  2.4359 -1.9020
   49MOL   H60535261   6.701   0.493   7.626 -1.3072  0.0403 -0.1890
   49MOL   H60635262   6.833   0.573   7.680  0.1782 -1.3805  0.5749
   49MOL   H60735263   6.543   0.563   7.764  0.1760  0.0527  0.8072
   49MOL   H60835264   6.643   0.635   0.101 -0.7011 -0.5853  0.0625
   49MOL   H60935265   6.412   1.030   7.567 -0.5956  0.8837  0.0630
   49MOL   H61035266   6.432   1.035   7.729 -0.2989 -3.3372 -0.3614
   49MOL   H61135267   6.508   1.168   7.626  0.8034  0.4569  1.1683
   49MOL   H61235268   6.774   1.084   7.613 -2.7718 -0.2668 -1.3321
   49MOL   H61335269   6.819   0.936   7.680  2.2599  1.6890 -1.0209
   49MOL   C61435270   7.247   0.214   0.242 -0.5659  0.2207  0.1539
   49MOL   C61535271   7.342   0.302   0.326  0.4185 -0.4192 -0.7272
   49MOL   C61635272   7.275   0.416   0.399  0.4420 -0.6114  0.4183
   49MOL   C61735273   7.224   0.531   0.303 -0.3060 -0.2344 -0.0593
   49MOL   C61835274   7.139   0.647   0.366  0.0229  0.2988  0.0885
   49MOL   C61935275   7.039   0.711   0.266 -0.2098 -0.0393 -0.2191
   49MOL   C62035276   7.101   0.781   0.151 -0.4042  0.4231  0.2854
   49MOL   C62135277   7.083   0.923   0.144  0.0547 -0.2217  0.7355
   49MOL   O62235278   6.954   0.953   0.103  0.1756  0.1981 -0.2621
   49MOL   C62335279   6.900   1.076   0.094 -0.3340 -0.4136 -0.4960
   49MOL   O62435280   6.967   1.176   0.114  0.4035  0.2239  0.1687
   49MOL   C62535281   6.746   1.080   0.054 -0.3834 -0.4242  0.2837
   49MOL   C62635282   6.695   1.225   0.048 -0.1861 -0.3218 -0.0462
   49MOL   C62735283   6.670   1.003   0.162  0.3398  0.0407  0.2948
   49MOL   H62835284   7.165   0.177   0.304 -0.4173  1.3124  1.0278
   49MOL   H62935285   7.294   0.120   0.214 -1.1194 -0.4196  1.3101
   49MOL   H63035286   7.209   0.269   0.156  4.0888 -0.0135 -2.1584
   49MOL   H63135287   7.385   0.227   0.394  3.3556 -0.2627 -2.2980
   49MOL   H63235288   7.421   0.345   0.264  1.2223 -1.0134 -0.1209
   49MOL   H63335289   7.350   0.462   0.463 -1.6296  1.9570  1.1108
   49MOL   H63435290   7.199   0.389   0.472 -1.6149 -0.5283 -1.6155
   49MOL   H63535291   7.151   0.489   0.233  0.1976  0.1269 -0.8149
   49MOL   H63635292   7.303   0.573   0.240 -1.9314  0.4786 -1.6766
   49MOL   H63735293   7.100   0.599   0.456  1.8867  1.6991  1.6818
   49MOL   H63835294   7.201   0.722   0.416 -0.1880  0.2655  0.3990
   49MOL   H63935295   6.980   0.634   0.217 -0.2041 -1.3789  1.8515
   49MOL   H64035296   6.968   0.775   0.318 -1.4468 -3.0609  1.9468
   49MOL   H64135297   7.063   0.734   0.061 -2.0091 -2.7026  2.4724
   49MOL   H64235298   7.209   0.769   0.159 -0.7239 -2.3149  1.2306
   49MOL   H64335299   7.100   0.959   0.245  1.6995 -0.1924  0.4665
   49MOL   H64435300   7.143   0.976   0.069 -0.2757 -1.4156 -0.3926
   49MOL   H64535301   6.736   1.278   0.134  1.2069 -0.2975 -0.6974
   49MOL   H64635302   6.588   1.241   0.061 -0.0594 -0.7075  1.5595
   49MOL   H64735303   6.739   1.283   7.747  2.3071 -0.1417  1.4008
   49MOL   H64835304   6.708   0.901   0.153  1.9943  0.6772 -0.0121
   49MOL   H64935305   6.567   1.002   0.124 -0.5384  3.1644  2.4438
   49MOL   C65035306   5.584   0.923   0.554  0.7799  0.0167 -0.8183
   49MOL   C65135307   5.740   0.918   0.558  1.0440 -0.4162 -0.2494
   49MOL   C65235308   5.795   0.988   0.430 -0.4801 -0.0460  0.2398
   49MOL   C65335309   5.943   1.023   0.452 -0.2570  0.1204 -0.1830
   49MOL   C65435310   5.999   1.117   0.342 -0.0213  0.0165  0.6247
   49MOL   C65535311   6.151   1.138   0.364 -0.0824  0.0164  0.1561
   49MOL   C65635312   6.219   1.226   0.251 -0.2539  0.2032  0.1038
   49MOL   C65735313   6.372   1.262   0.263 -0.4720 -0.3142  0.5091
   49MOL   O65835314   6.458   1.149   0.276 -0.2532 -0.4601  0.1568
   49MOL   C65935315   6.579   1.164   0.327 -0.0606  0.4121 -0.0985
   49MOL   O66035316   6.628   1.269   0.364 -0.3977 -0.0143  0.2287
   49MOL   C66135317   6.657   1.029   0.314  0.5377 -0.1566  0.6584
   49MOL   C66235318   6.799   1.050   0.381  0.5579 -0.4465  0.0215
   49MOL   C66335319   6.567   0.910   0.371  0.5225 -0.2206  0.3099
   49MOL   H66435320   5.528   0.854   0.491 -0.1413  1.0481 -1.1445
   49MOL   H66535321   5.557   1.025   0.527 -1.8890 -0.3229  0.4880
   49MOL   H66635322   5.552   0.903   0.656 -2.2361 -0.9459 -1.8916
   49MOL   H66735323   5.789   0.821   0.566  0.3093 -0.7756 -0.0452
   49MOL   H66835324   5.773   0.974   0.645  0.0165  1.6055 -1.1385
   49MOL   H66935325   5.745   1.076   0.390 -1.4215  0.1748  1.8262
   49MOL   H67035326   5.783   0.914   0.351 -1.7284  1.3804 -0.9429
   49MOL   H67135327   6.000   0.930   0.456 -1.2175 -0.4188  1.1934
   49MOL   H67235328   5.962   1.062   0.552 -1.4930  0.9409 -0.2581
   49MOL   H67335329   5.946   1.212   0.329  0.4545  0.4979  2.1238
   49MOL   H67435330   5.987   1.069   0.245 -3.1121 -0.7630  1.3450
   49MOL   H67535331   6.162   1.188   0.461 -4.7681  0.7306  0.4420
   49MOL   H67635332   6.199   1.041   0.367 -0.0660 -0.0308 -1.2609
   49MOL   H67735333   6.163   1.319   0.249  0.3074  0.5287 -2.3214
   49MOL   H67835334   6.211   1.175   0.154  0.5936 -0.6701  0.4845
   49MOL   H67935335   6.382   1.320   0.355  1.3146  1.9959 -1.1151
   49MOL   H68035336   6.406   1.327   0.184 -1.5979  0.1459  0.3943
   49MOL   H68135337   6.793   1.062   0.489  1.5132 -0.9746  0.1430
   49MOL   H68235338   6.845   1.145   0.358  0.6814 -0.1295  1.5451
   49MOL   H68335339   6.858   0.963   0.351 -0.3591 -0.6454 -1.2442
   49MOL   H68435340   6.474   0.920   0.315  0.6568  0.3201  0.1834
   49MOL   H68535341   6.619   0.821   0.336 -1.9785 -0.8781 -1.9099
   49MOL   C68635342   6.821   7.683   0.544  0.1508 -0.4865  0.3891
   49MOL   C68735343   6.779   0.049   0.538  0.4258  0.1076 -0.3590
   49MOL   C68835344   6.829   0.125   0.410 -0.4802 -0.9187  0.8034
   49MOL   C68935345   6.797   0.272   0.406  0.1608  0.2194  0.9157
   49MOL   C69035346   6.841   0.358   0.526  0.9589  0.0964 -0.0202
   49MOL   C69135347   6.835   0.509   0.506  0.0481  0.1773 -0.3617
   49MOL   C69235348   6.864   0.590   0.634 -0.7021  0.4138 -0.6404
   49MOL   C69335349   6.837   0.733   0.620 -1.2875 -0.1688  0.3804
   49MOL   O69435350   6.695   0.743   0.596 -0.4080 -0.1161  0.5265
   49MOL   C69535351   6.644   0.870   0.608  0.5947 -0.2125  0.2162
   49MOL   O69635352   6.691   0.952   0.688 -0.5449  0.1136  0.2513
   49MOL   C69735353   6.525   0.886   0.521  0.3029  0.8829 -0.1548
   49MOL   C69835354   6.436   0.758   0.530  0.2755  0.2302  0.0854
   49MOL   C69935355   6.433   0.997   0.572  0.7986  0.1428 -0.0119
   49MOL   H70035356   6.749   7.614   0.498 -1.3334  1.5228 -0.3749
   49MOL   H70135357   6.828   7.636   0.642  0.2071 -1.0535  0.1193
   49MOL   H70235358   6.925   7.671   0.512  0.9306 -0.9527  2.9592
   49MOL   H70335359   6.813   0.094   0.632  1.4659  2.1440 -1.6900
   49MOL   H70435360   6.673   0.064   0.557  0.1864  2.3393 -3.1988
   49MOL   H70535361   6.798   0.081   0.315  0.1051 -0.0678  0.2092
   49MOL   H70635362   6.937   0.118   0.417 -0.3141 -0.2806 -0.8896
   49MOL   H70735363   6.698   0.287   0.362  0.4390  0.7189  0.4579
   49MOL   H70835364   6.857   0.304   0.321 -0.4378 -1.0515 -0.0051
   49MOL   H70935365   6.941   0.324   0.553  0.5048  1.2253  3.4483
   49MOL   H71035366   6.780   0.333   0.613  2.1819  1.4122  1.2441
   49MOL   H71135367   6.892   0.539   0.417 -0.1605 -2.1683 -1.3138
   49MOL   H71235368   6.740   0.547   0.468 -1.1884 -0.2173  2.2828
   49MOL   H71335369   6.794   0.555   0.709  1.1147  1.1700  1.4404
   49MOL   H71435370   6.966   0.581   0.670 -0.5240  2.3724 -0.5705
   49MOL   H71535371   6.896   0.774   0.538  0.8305  0.5659  2.2154
   49MOL   H71635372   6.866   0.783   0.713 -1.8114 -0.6954  0.8289
   49MOL   H71735373   6.481   0.671   0.482 -1.3565 -0.6921  0.1885
   49MOL   H71835374   6.409   0.711   0.624 -1.5487 -0.1715 -0.6148
   49MOL   H71935375   6.336   0.769   0.488 -0.5418  1.3827  2.2704
   49MOL   H72035376   6.486   1.092   0.579  0.6777  0.4299 -2.4575
   49MOL   H72135377   6.392   0.981   0.672 -3.1701 -0.2299 -1.5971
   49MOL   H72235378   6.352   1.021   0.503  0.0934 -1.0473  0.3880
   50MOL     C135379   4.277   0.678   4.282  0.1533 -0.5387 -0.1954
   50MOL     C235380   4.337   0.745   4.159 -0.0286  0.4640  0.3258
   50MOL     C335381   4.400   0.882   4.188  0.4977  0.2199  0.0177
   50MOL     C435382   4.477   0.937   4.067  0.4988 -0.6106 -0.3002
   50MOL     C535383   4.518   1.077   4.091 -0.1341  0.0809  0.0065
   50MOL     C635384   4.571   1.146   3.964  0.3067  0.2713  0.1962
   50MOL     C735385   4.573   1.300   3.986  0.3954 -0.2059 -0.0644
   50MOL     C835386   4.553   1.390   3.873 -0.0849  0.3835 -0.8999
   50MOL     O935387   4.646   1.360   3.771  0.1597 -0.0207  0.4925
   50MOL    C1035388   4.774   1.399   3.777  0.0338 -0.1168  0.0651
   50MOL    O1135389   4.833   1.449   3.873  0.0805 -0.0766  0.8447
   50MOL    C1235390   4.842   1.350   3.646 -0.2634 -0.5889  0.4248
   50MOL    C1335391   4.765   1.389   3.516  0.6461 -0.0428  0.5677
   50MOL    C1435392   4.989   1.388   3.638 -0.3342  0.0869  0.3289
   50MOL    H1535393   4.217   0.590   4.256 -3.2753  1.2358  1.3534
   50MOL    H1635394   4.202   0.738   4.334  0.6909 -0.2094  0.1981
   50MOL    H1735395   4.352   0.644   4.353 -1.4102  0.7875  2.1641
   50MOL    H1835396   4.256   0.748   4.086  0.2176 -0.3799  0.0189
   50MOL    H1935397   4.410   0.671   4.126 -1.5228 -0.2122 -1.5418
   50MOL    H2035398   4.317   0.950   4.204  0.9754  0.6029  0.9489
   50MOL    H2135399   4.466   0.868   4.274  0.1828 -0.1827  0.1989
   50MOL    H2235400   4.559   0.867   4.051  0.5914 -0.2294 -1.5101
   50MOL    H2335401   4.426   0.938   3.971 -0.8730  0.4570  0.4310
   50MOL    H2435402   4.586   1.102   4.172  0.6892  0.5853 -0.8302
   50MOL    H2535403   4.429   1.132   4.121 -0.7616 -0.4694 -0.8036
   50MOL    H2635404   4.504   1.117   3.884  0.1900  0.2523  0.3023
   50MOL    H2735405   4.674   1.118   3.940  0.4503  0.3842  0.6571
   50MOL    H2835406   4.657   1.340   4.044  0.5573 -1.7997  0.8320
   50MOL    H2935407   4.486   1.306   4.052  0.5911 -2.1643  0.3925
   50MOL    H3035408   4.573   1.492   3.907  1.1160 -0.3818  0.8015
   50MOL    H3135409   4.451   1.401   3.836 -0.1005  1.7097 -0.4895
   50MOL    H3235410   4.819   1.350   3.429 -1.8008 -1.6355 -0.3005
   50MOL    H3335411   4.666   1.342   3.521 -0.6132  2.3592 -1.0286
   50MOL    H3435412   4.739   1.494   3.507 -2.6553 -0.9374 -1.1382
   50MOL    H3535413   5.022   1.439   3.729  0.5289  1.2037 -0.5919
   50MOL    H3635414   4.999   1.470   3.567  2.2147 -0.5919 -0.1731
   50MOL    H3735415   4.835   1.242   3.648  1.8609 -0.7677 -0.5086
   50MOL    C3835416   5.858   0.798   3.810 -0.4474 -0.0877  0.1141
   50MOL    C3935417   5.898   0.946   3.772  0.4925  0.2239 -0.1492
   50MOL    C4035418   5.808   1.052   3.837 -0.0059  0.4110  0.5587
   50MOL    C4135419   5.668   1.069   3.783  0.5283  0.0958 -0.1046
   50MOL    C4235420   5.567   1.122   3.890 -0.0714  0.2048 -0.3845
   50MOL    C4335421   5.423   1.113   3.857 -0.6052  0.2848 -0.0740
   50MOL    C4435422   5.334   1.155   3.974 -0.1075  0.5861  0.3555
   50MOL    C4535423   5.179   1.152   3.945 -0.2041  0.1643  1.0027
   50MOL    O4635424   5.162   1.228   3.829 -0.0160  0.0560 -0.1275
   50MOL    C4735425   5.097   1.183   3.730 -0.4703 -0.3663  0.2010
   50MOL    O4835426   5.026   1.084   3.731 -0.1250  0.3228  0.9055
   50MOL    C4935427   5.096   1.281   3.606  0.5929 -0.3606 -0.2507
   50MOL    C5035428   5.228   1.359   3.591 -0.5804  0.2694 -0.1263
   50MOL    C5135429   5.055   1.212   3.470 -1.1030 -0.2924 -0.2474
   50MOL    H5235430   5.938   0.730   3.782  0.1485  1.2064 -1.3684
   50MOL    H5335431   5.763   0.758   3.775 -0.9582  1.3221 -0.1485
   50MOL    H5435432   5.867   0.811   3.918  2.1494  0.0208 -0.0949
   50MOL    H5535433   5.898   0.949   3.663 -1.8193 -1.9980 -0.2584
   50MOL    H5635434   5.998   0.957   3.814  0.3723  1.6879 -0.2355
   50MOL    H5735435   5.804   1.048   3.945 -0.6103  1.8370  0.5946
   50MOL    H5835436   5.857   1.148   3.825  0.4346  0.1800  0.5113
   50MOL    H5935437   5.630   0.973   3.747 -0.0896  0.6659 -0.9964
   50MOL    H6035438   5.668   1.137   3.699  3.1640 -0.3109 -0.4637
   50MOL    H6135439   5.576   1.068   3.984  1.3300  4.7571  2.2129
   50MOL    H6235440   5.597   1.224   3.913 -1.7229  0.5267  0.4080
   50MOL    H6335441   5.386   1.161   3.767 -0.8515  0.6891  0.2462
   50MOL    H6435442   5.394   1.009   3.837  2.0706 -0.2739 -1.3149
   50MOL    H6535443   5.370   1.248   4.018  1.3033 -0.6608  1.9281
   50MOL    H6635444   5.348   1.088   4.059 -1.2127  1.5183  1.2936
   50MOL    H6735445   5.119   1.183   4.031  0.5998 -0.8138  1.9375
   50MOL    H6835446   5.153   1.048   3.924 -0.3690  0.8272 -2.3103
   50MOL    H6935447   5.233   1.423   3.503 -1.3192 -0.5328 -0.7655
   50MOL    H7035448   5.248   1.407   3.687 -0.9951  1.7896 -0.7981
   50MOL    H7135449   5.313   1.291   3.580 -0.3876  0.4439  0.2602
   50MOL    H7235450   5.051   1.294   3.399 -1.3719 -0.3665 -0.3176
   50MOL    H7335451   4.953   1.179   3.487 -2.0210  3.1955  1.4430
   50MOL    C7435452   5.674   1.533   3.969 -0.6741 -0.8758 -0.2521
   50MOL    C7535453   5.534   1.544   3.912  0.0683 -0.0122 -0.1755
   50MOL    C7635454   5.524   1.577   3.764  0.0543  0.5156  0.3711
   50MOL    C7735455   5.557   1.458   3.676 -0.3659 -0.0537 -0.2605
   50MOL    C7835456   5.540   1.490   3.525 -0.2848  0.1455 -0.0672
   50MOL    C7935457   5.540   1.369   3.433  0.1889  0.3013 -0.1846
   50MOL    C8035458   5.482   1.407   3.294  0.5996 -0.6481 -0.5508
   50MOL    C8135459   5.404   1.294   3.226 -0.8352 -0.4570 -0.5196
   50MOL    O8235460   5.286   1.250   3.295  0.1506  0.3406  0.5416
   50MOL    C8335461   5.281   1.124   3.354 -0.4177 -0.3189 -0.1452
   50MOL    O8435462   5.379   1.047   3.367  0.4200 -0.6470  0.4514
   50MOL    C8535463   5.130   1.089   3.393  0.0581  0.1614  0.1251
   50MOL    C8635464   5.137   0.964   3.483  0.4005  0.2341  1.0686
   50MOL    C8735465   5.044   1.030   3.271 -0.3077  0.6116 -0.1386
   50MOL    H8835466   5.725   1.630   3.970 -0.7882 -0.8137  2.3109
   50MOL    H8935467   5.731   1.456   3.917  2.7331  1.8249 -0.7517
   50MOL    H9035468   5.659   1.492   4.068 -3.9744  0.3657 -0.1944
   50MOL    H9135469   5.485   1.627   3.963 -0.0470  0.3925 -0.9508
   50MOL    H9235470   5.467   1.464   3.944  0.5642  0.0088  0.9673
   50MOL    H9335471   5.420   1.605   3.748  0.4191  0.3898 -2.3726
   50MOL    H9435472   5.581   1.666   3.737 -0.9465  0.9459 -0.3258
   50MOL    H9535473   5.494   1.372   3.701 -0.3143 -0.2830 -0.9127
   50MOL    H9635474   5.661   1.429   3.682 -0.1151  0.9237  0.2563
   50MOL    H9735475   5.450   1.550   3.513 -0.1186  0.1630 -1.2505
   50MOL    H9835476   5.629   1.546   3.497  0.7289 -0.3798  1.9860
   50MOL    H9935477   5.638   1.324   3.418 -0.9802 -1.8308 -1.7646
   50MOL   H10035478   5.492   1.281   3.477  0.8415  0.4212  0.7736
   50MOL   H10135479   5.424   1.496   3.316 -0.1474 -1.2095 -0.2484
   50MOL   H10235480   5.562   1.453   3.236 -0.6696  0.8853 -1.1065
   50MOL   H10335481   5.474   1.210   3.220  0.8864  0.9010  0.2415
   50MOL   H10435482   5.383   1.314   3.121 -0.5674  0.5750 -0.3784
   50MOL   H10535483   5.196   0.887   3.434 -0.7991  0.0633 -0.1431
   50MOL   H10635484   5.043   0.921   3.517 -0.2311  1.3466  0.7445
   50MOL   H10735485   5.197   0.997   3.568  0.6684  1.1270  0.5412
   50MOL   H10835486   5.041   0.922   3.258 -0.4721  0.6696 -0.6114
   50MOL   H10935487   4.942   1.037   3.310 -0.3165  0.5205 -0.1439
   50MOL   C11035488   5.696   0.132   3.137  0.4124 -0.3893 -0.1661
   50MOL   C11135489   5.646   0.257   3.055 -0.3006  0.3216  0.0859
   50MOL   C11235490   5.566   0.364   3.133  0.0877 -0.4587  0.7020
   50MOL   C11335491   5.504   0.483   3.061  0.1947  0.5872 -0.3594
   50MOL   C11435492   5.428   0.575   3.164  0.0515 -0.6133  0.2602
   50MOL   C11535493   5.345   0.687   3.083  0.1058  0.6466 -0.1996
   50MOL   C11635494   5.424   0.819   3.065 -0.2130 -0.5334  0.3265
   50MOL   C11735495   5.339   0.931   2.993 -0.2608 -0.3763 -0.6964
   50MOL   O11835496   5.219   0.961   3.070 -0.5598 -0.2255 -0.2827
   50MOL   C11935497   5.170   1.082   3.055 -0.5335 -0.0905  0.5010
   50MOL   O12035498   5.220   1.171   2.980  0.6119  0.0916  0.2113
   50MOL   C12135499   5.036   1.099   3.123  0.5396 -0.2942 -0.4396
   50MOL   C12235500   5.013   1.253   3.131 -0.1072 -0.2402 -0.7588
   50MOL   C12335501   4.914   1.020   3.054 -0.5139 -0.0281 -0.7454
   50MOL   H12435502   5.623   0.105   3.213  2.0678 -1.8206  0.9482
   50MOL   H12535503   5.709   0.050   3.066 -2.8020 -1.4567  0.3765
   50MOL   H12635504   5.792   0.147   3.187  1.2060 -2.1575 -1.1189
   50MOL   H12735505   5.578   0.218   2.979 -2.1445 -1.3408  2.5118
   50MOL   H12835506   5.728   0.305   3.000 -0.4595  1.0551  0.4928
   50MOL   H12935507   5.637   0.407   3.203  2.1962 -1.3666 -0.8115
   50MOL   H13035508   5.484   0.309   3.179  0.3018  0.1444  1.8243
   50MOL   H13135509   5.580   0.546   3.016  0.8595  0.6587  0.8538
   50MOL   H13235510   5.440   0.449   2.979 -1.6780 -1.9162  2.0437
   50MOL   H13335511   5.491   0.622   3.240 -0.8134 -0.1284  0.6899
   50MOL   H13435512   5.360   0.511   3.221 -1.0770 -0.4139 -0.8302
   50MOL   H13535513   5.315   0.649   2.986 -2.2329  0.3701  0.5903
   50MOL   H13635514   5.251   0.702   3.137  1.0403 -0.9881  1.9354
   50MOL   H13735515   5.518   0.803   3.012  0.9768 -0.0229  2.2070
   50MOL   H13835516   5.465   0.859   3.158  0.4896 -0.0528 -0.1810
   50MOL   H13935517   5.402   1.017   2.969  1.0810 -1.6930 -1.9885
   50MOL   H14035518   5.313   0.891   2.895 -4.4899 -0.0765  0.1868
   50MOL   H14135519   4.982   1.305   3.040 -0.5151 -1.7066 -1.4736
   50MOL   H14235520   4.937   1.260   3.208  1.4820  1.9572  0.6540
   50MOL   H14335521   5.109   1.298   3.157  0.3655 -1.6613  0.0131
   50MOL   H14435522   4.837   1.022   3.131 -0.4005  2.4928 -0.6601
   50MOL   H14535523   4.932   0.913   3.055 -0.3921 -0.0116 -1.0206
   50MOL   C14635524   4.958   1.948   2.846 -0.3837  0.3980  0.6906
   50MOL   C14735525   5.028   1.934   2.709 -0.2753  0.1940 -0.6600
   50MOL   C14835526   4.935   1.906   2.586  0.5428  0.4151  0.0508
   50MOL   C14935527   4.854   1.776   2.615 -0.0313 -0.3648 -0.2976
   50MOL   C15035528   4.944   1.652   2.644  0.7941  0.3379 -0.3887
   50MOL   C15135529   4.863   1.528   2.696  0.8178 -0.0012 -0.1323
   50MOL   C15235530   4.806   1.541   2.838 -0.1021 -0.1382  0.1865
   50MOL   C15335531   4.721   1.419   2.878  0.3340 -0.2696  0.1397
   50MOL   O15435532   4.802   1.297   2.878 -0.0339 -0.0583 -0.3222
   50MOL   C15535533   4.751   1.181   2.937 -0.2516  0.0213  0.7326
   50MOL   O15635534   4.646   1.176   2.996  0.1172  0.5147  0.3253
   50MOL   C15735535   4.844   1.054   2.912 -0.3171  0.0474  0.7801
   50MOL   C15835536   4.952   1.083   2.794  0.1087 -0.1076  0.3383
   50MOL   C15935537   4.750   0.926   2.875 -0.7221  0.1625 -0.9584
   50MOL   H16035538   4.941   1.845   2.877  1.0079  0.2178  0.8735
   50MOL   H16135539   4.865   2.002   2.863 -1.8303 -1.6346 -0.5804
   50MOL   H16235540   5.032   1.984   2.918  0.4544 -1.5325  0.8452
   50MOL   H16335541   5.075   2.029   2.685 -1.0212  0.9410  0.7858
   50MOL   H16435542   5.120   1.876   2.721 -0.5132 -0.4479 -1.8725
   50MOL   H16535543   4.999   1.904   2.498  0.7273  0.5749  0.1801
   50MOL   H16635544   4.855   1.980   2.578  0.2086  0.2040  1.3223
   50MOL   H16735545   4.780   1.790   2.693  0.7225 -0.7081  0.4827
   50MOL   H16835546   4.798   1.752   2.525  0.0537 -0.5103 -0.3107
   50MOL   H16935547   5.014   1.676   2.724 -0.8920  0.8590  0.9440
   50MOL   H17035548   5.008   1.623   2.560  1.0087  0.1898 -0.1762
   50MOL   H17135549   4.923   1.437   2.692  0.0077 -0.6160  1.4047
   50MOL   H17235550   4.783   1.510   2.625 -1.0229  0.5918  1.7562
   50MOL   H17335551   4.883   1.558   2.914 -0.6687 -1.2738  1.0186
   50MOL   H17435552   4.738   1.625   2.829  0.9442  0.4345 -3.2875
   50MOL   H17535553   4.678   1.438   2.977  3.7262 -1.1318  1.8569
   50MOL   H17635554   4.637   1.399   2.811  0.1055  3.8557 -0.9187
   50MOL   H17735555   5.010   0.991   2.790  0.2698  0.0404 -0.8966
   50MOL   H17835556   5.001   1.175   2.825 -2.0087  1.3645 -0.5617
   50MOL   H17935557   4.909   1.097   2.695 -0.3694 -1.8561  0.2800
   50MOL   H18035558   4.690   0.911   2.965  0.4904 -0.1173 -0.1770
   50MOL   H18135559   4.824   0.846   2.880 -1.6142 -0.6671 -0.9511
   50MOL   C18235560   4.496   0.935   1.590 -0.7895  0.1323 -0.5563
   50MOL   C18335561   4.530   0.963   1.734  0.3451  0.4349 -0.6942
   50MOL   C18435562   4.560   0.838   1.815 -0.3253 -0.1304 -0.2556
   50MOL   C18535563   4.612   0.863   1.961 -0.3968 -0.5327  0.2530
   50MOL   C18635564   4.669   0.733   2.026  0.6373 -0.3134  0.8426
   50MOL   C18735565   4.752   0.734   2.155  0.6286 -0.1138 -0.1820
   50MOL   C18835566   4.680   0.798   2.274  0.3377  0.0916  0.2158
   50MOL   C18935567   4.747   0.761   2.407 -0.2081  0.8939 -0.3407
   50MOL   O19035568   4.691   0.839   2.513 -0.0227  0.0724 -0.2200
   50MOL   C19135569   4.754   0.838   2.628  0.0659 -0.0712 -0.2292
   50MOL   O19235570   4.861   0.780   2.640  0.0406 -0.2961  0.0544
   50MOL   C19335571   4.674   0.899   2.745  0.4796 -0.1204 -0.2991
   50MOL   C19435572   4.624   1.039   2.683  0.6546 -0.4876 -0.2636
   50MOL   C19535573   4.541   0.823   2.756 -0.9197  0.1351  0.7706
   50MOL   H19635574   4.459   1.020   1.534 -0.0970  0.8931  0.1357
   50MOL   H19735575   4.592   0.905   1.547 -1.1349 -0.0900 -1.1801
   50MOL   H19835576   4.418   0.861   1.574 -0.8164  0.0452 -0.0385
   50MOL   H19935577   4.437   1.008   1.770  1.1150  0.3374  1.4686
   50MOL   H20035578   4.610   1.037   1.743 -0.3182  0.9738  0.9448
   50MOL   H20135579   4.481   0.763   1.817  0.8481 -1.4316 -1.1626
   50MOL   H20235580   4.638   0.787   1.759  0.8608  2.8340 -1.4164
   50MOL   H20335581   4.702   0.925   1.963 -1.2158  0.6190  2.2470
   50MOL   H20435582   4.539   0.905   2.029  0.1115 -0.3381  0.6812
   50MOL   H20535583   4.727   0.682   1.949 -2.0994  0.1415 -1.6145
   50MOL   H20635584   4.581   0.670   2.036 -0.7908  1.5507  0.1874
   50MOL   H20735585   4.837   0.797   2.131  0.6817 -1.1694 -2.9793
   50MOL   H20835586   4.777   0.629   2.174  2.7675 -0.2994 -3.5682
   50MOL   H20935587   4.676   0.905   2.252 -2.2369 -0.5559 -2.7834
   50MOL   H21035588   4.577   0.766   2.270  0.3316 -0.2041  2.4262
   50MOL   H21135589   4.853   0.786   2.402  0.2511 -0.2826  2.3269
   50MOL   H21235590   4.734   0.654   2.419 -1.1705  0.7148 -2.7278
   50MOL   H21335591   4.563   1.022   2.595 -2.8739  0.0283  1.9910
   50MOL   H21435592   4.563   1.104   2.746 -1.0879 -2.5129  0.2000
   50MOL   H21535593   4.709   1.103   2.659  0.0039  0.6807  0.4977
   50MOL   H21635594   4.516   0.859   2.856  1.7068  1.3470  1.0405
   50MOL   H21735595   4.464   0.856   2.686 -1.4880 -3.0603 -0.1805
   50MOL   C21835596   3.401   0.630   2.528 -0.0754  0.0480 -0.6189
   50MOL   C21935597   3.492   0.559   2.630  0.4646 -0.6339 -0.4558
   50MOL   C22035598   3.510   0.640   2.760 -0.0879 -0.1545 -0.5227
   50MOL   C22135599   3.641   0.607   2.834 -0.5139 -0.4592  0.4049
   50MOL   C22235600   3.768   0.665   2.767  0.2733  0.2633 -0.4414
   50MOL   C22335601   3.899   0.626   2.835  0.2100 -0.1113 -0.1490
   50MOL   C22435602   4.033   0.671   2.748  0.8968 -0.5109 -0.4722
   50MOL   C22535603   4.153   0.640   2.836 -0.0521  0.0159 -0.0393
   50MOL   O22635604   4.276   0.669   2.776  0.1115  0.8020 -0.0424
   50MOL   C22735605   4.388   0.635   2.849  0.1567  0.5015  0.5596
   50MOL   O22835606   4.380   0.572   2.960 -0.1904 -0.1993  0.0094
   50MOL   C22935607   4.524   0.667   2.773 -0.2233 -0.2235 -0.2531
   50MOL   C23035608   4.640   0.619   2.869 -0.0297  0.4448  0.0301
   50MOL   C23135609   4.521   0.586   2.639  0.5292 -0.5625 -0.2633
   50MOL   H23235610   3.301   0.648   2.566  0.7049  1.6080  0.7295
   50MOL   H23335611   3.390   0.573   2.435 -2.7443  1.1360 -1.0155
   50MOL   H23435612   3.439   0.726   2.492  0.0731  0.2969  0.2055
   50MOL   H23535613   3.592   0.548   2.589  2.0899  4.1669  1.8213
   50MOL   H23635614   3.452   0.463   2.663  0.6412 -0.5448  0.0225
   50MOL   H23735615   3.520   0.747   2.742  2.4603 -0.4721 -1.1118
   50MOL   H23835616   3.435   0.637   2.839 -0.3287  2.1104 -0.6548
   50MOL   H23935617   3.641   0.659   2.929 -0.2851 -0.4172  0.3802
   50MOL   H24035618   3.650   0.501   2.858  1.8733 -0.6817 -1.3166
   50MOL   H24135619   3.776   0.626   2.665 -0.4821  0.5723 -0.6273
   50MOL   H24235620   3.761   0.774   2.761  0.9417  0.2943 -0.7177
   50MOL   H24335621   3.903   0.672   2.934  0.6601  0.0254 -0.2267
   50MOL   H24435622   3.904   0.521   2.861  1.3192 -0.5459 -1.9985
   50MOL   H24535623   4.027   0.775   2.717  2.1577 -0.3463 -0.2071
   50MOL   H24635624   4.043   0.610   2.658 -0.3392 -1.0536 -0.2493
   50MOL   H24735625   4.150   0.541   2.882  1.2424  1.0210  2.2841
   50MOL   H24835626   4.146   0.710   2.919  1.1443 -0.4951  0.4824
   50MOL   H24935627   4.645   0.685   2.956  1.4249  1.0377 -0.5002
   50MOL   H25035628   4.740   0.625   2.828  0.5793  5.4419  1.8754
   50MOL   H25135629   4.626   0.515   2.900  0.7454  0.2952 -0.1233
   50MOL   H25235630   4.430   0.609   2.584  0.3719 -0.7625 -0.0896
   50MOL   H25335631   4.609   0.622   2.585  1.0878  0.3223  1.2049
   50MOL   C25435632   5.171   0.017   1.973  0.1431 -0.4217 -0.4578
   50MOL   C25535633   5.098   0.117   2.058  0.4215  0.3172  0.0549
   50MOL   C25635634   5.172   0.136   2.192 -0.5968 -0.2201 -0.7421
   50MOL   C25735635   5.144   0.279   2.245  0.2491  0.2314 -0.9040
   50MOL   C25835636   5.161   0.302   2.399 -0.2279  0.3589  0.3837
   50MOL   C25935637   5.133   0.436   2.469 -0.4743 -0.3744  0.3572
   50MOL   C26035638   4.989   0.471   2.466  0.1062  0.4862  1.0002
   50MOL   C26135639   4.903   0.393   2.570 -0.4619 -1.2125  0.3215
   50MOL   O26235640   4.763   0.415   2.556  0.6452  0.7410 -0.4703
   50MOL   C26335641   4.684   0.379   2.653 -0.1031  0.7409  0.2816
   50MOL   O26435642   4.719   0.324   2.753  0.3871  0.5275  0.5167
   50MOL   C26535643   4.537   0.423   2.629  0.0311  0.4861 -0.2096
   50MOL   C26635644   4.501   0.397   2.478  0.0376 -0.4748 -0.7352
   50MOL   C26735645   4.432   0.347   2.723  0.1149 -0.7625  0.6215
   50MOL   H26835646   5.132   0.007   1.872 -1.0331  0.5965 -0.1205
   50MOL   H26935647   5.273   0.047   1.947  0.0661 -0.0241 -0.3087
   50MOL   H27035648   5.170   7.702   2.026 -1.9227  0.5994  1.4264
   50MOL   H27135649   5.084   0.208   2.000 -0.1002 -0.0802 -0.4433
   50MOL   H27235650   4.999   0.076   2.079 -0.1274  1.3242 -0.5100
   50MOL   H27335651   5.279   0.129   2.177 -0.6294 -3.0082 -0.0670
   50MOL   H27435652   5.147   0.058   2.265  0.7214  1.2793  1.3854
   50MOL   H27535653   5.046   0.308   2.209  0.4498  0.2249 -1.4628
   50MOL   H27635654   5.209   0.346   2.189 -0.0683  1.6382  0.3503
   50MOL   H27735655   5.108   0.229   2.460  1.0010 -2.4358 -1.8302
   50MOL   H27835656   5.268   0.292   2.418 -0.1088  2.7730  1.1780
   50MOL   H27935657   5.171   0.519   2.409 -1.4524  0.3350  0.7071
   50MOL   H28035658   5.192   0.443   2.560  0.3067  0.2035 -0.1802
   50MOL   H28135659   4.980   0.577   2.490 -0.1871  0.8013 -0.4817
   50MOL   H28235660   4.945   0.467   2.367 -2.1066 -0.7585  2.0060
   50MOL   H28335661   4.923   0.286   2.556 -0.3627 -1.1418 -0.0844
   50MOL   H28435662   4.936   0.426   2.669 -1.4884  0.5235  0.0995
   50MOL   H28535663   4.571   0.446   2.410 -1.9342  2.4886 -0.6987
   50MOL   H28635664   4.524   0.294   2.449  1.4084 -0.6734  0.9475
   50MOL   H28735665   4.399   0.426   2.452  0.2429 -0.4747 -1.5523
   50MOL   H28835666   4.337   0.401   2.726  0.8411  0.5980 -0.3281
   50MOL   H28935667   4.470   0.365   2.823  2.9594 -2.1156 -0.1714
   50MOL   C29035668   3.934   0.440   2.112  0.5304 -0.3125 -0.0709
   50MOL   C29135669   3.792   0.389   2.134 -0.6776  0.2747  0.1144
   50MOL   C29235670   3.733   0.451   2.269 -0.6680  0.6752 -0.1168
   50MOL   C29335671   3.791   0.404   2.397  0.8463 -0.0903 -0.1005
   50MOL   C29435672   3.773   0.256   2.438 -0.3596 -0.3592 -0.4660
   50MOL   C29535673   3.792   0.231   2.586 -0.2422  0.4827 -0.0015
   50MOL   C29635674   3.926   0.283   2.641 -0.3120  0.1069  0.2993
   50MOL   C29735675   4.045   0.229   2.558 -0.3091  0.2399 -0.4190
   50MOL   O29835676   4.157   0.253   2.640  0.4910  0.7457  0.0470
   50MOL   C29935677   4.271   0.192   2.599  0.3399 -0.3028 -0.2806
   50MOL   O30035678   4.288   0.134   2.489 -0.0662  0.0667 -0.6965
   50MOL   C30135679   4.388   0.198   2.708 -0.2175  0.0724  0.8290
   50MOL   C30235680   4.513   0.110   2.670 -0.1377  0.1065 -0.3576
   50MOL   C30335681   4.328   0.155   2.850  0.1541  0.2805 -0.1701
   50MOL   H30435682   3.933   0.549   2.118 -0.7740 -0.2355 -1.3930
   50MOL   H30535683   3.974   0.400   2.019 -0.5057 -2.7760  0.4945
   50MOL   H30635684   3.998   0.396   2.188 -0.4932 -2.2856 -0.3148
   50MOL   H30735685   3.786   0.280   2.133 -3.1361  0.3783 -0.1363
   50MOL   H30835686   3.733   0.432   2.053 -0.3812  2.6644  1.1277
   50MOL   H30935687   3.624   0.444   2.271 -0.7782  1.9731 -0.8305
   50MOL   H31035688   3.732   0.560   2.277  1.9030  0.6447  1.5296
   50MOL   H31135689   3.899   0.419   2.389  1.8340 -5.1168  1.9204
   50MOL   H31235690   3.753   0.476   2.469  0.1864  1.6030 -2.0894
   50MOL   H31335691   3.666   0.239   2.427 -0.3643  0.1263 -1.1985
   50MOL   H31435692   3.840   0.175   2.408 -2.3425 -2.0234 -0.4425
   50MOL   H31535693   3.775   0.129   2.620  1.3199  0.3437  0.3955
   50MOL   H31635694   3.711   0.294   2.622 -1.8996 -0.0456 -2.6929
   50MOL   H31735695   3.919   0.248   2.744 -0.3481 -0.1163  0.2232
   50MOL   H31835696   3.937   0.390   2.658  1.4845 -0.2618  1.6354
   50MOL   H31935697   4.059   0.282   2.464 -0.8182  0.9374 -0.1033
   50MOL   H32035698   4.033   0.123   2.534  0.7902  0.2540 -1.0478
   50MOL   H32135699   4.551   0.138   2.571  0.1403  0.9377 -0.0231
   50MOL   H32235700   4.504   0.003   2.651 -1.6266  0.1621 -0.0273
   50MOL   H32335701   4.597   0.115   2.739 -0.0407  0.5946 -0.5123
   50MOL   H32435702   4.403   0.183   2.923 -1.3551  0.7568  1.2336
   50MOL   H32535703   4.251   0.227   2.877 -0.0805 -0.0990  0.1762
   50MOL   C32635704   3.939   7.027   2.808 -0.0888 -0.5539  0.3670
   50MOL   C32735705   4.087   6.977   2.843  0.0863  0.0604  0.5103
   50MOL   C32835706   4.188   7.089   2.825  0.1033 -0.0073 -0.2945
   50MOL   C32935707   4.220   7.120   2.680  0.6450 -0.4481 -0.0872
   50MOL   C33035708   4.326   7.218   2.654  0.1409  0.0136 -0.2140
   50MOL   C33135709   4.277   7.359   2.676 -0.0703  0.2105  0.2670
   50MOL   C33235710   4.309   7.459   2.570  0.1093  0.4083  0.4742
   50MOL   C33335711   4.222   7.582   2.581 -0.7472  0.2094  0.1350
   50MOL   O33435712   4.275   7.654   2.694  0.1944  0.3900 -0.2401
   50MOL   C33535713   4.198   7.726   2.763  0.3255  0.6756  0.2784
   50MOL   O33635714   4.078   7.739   2.753 -0.2247  0.6703  0.0854
   50MOL   C33735715   4.269   0.010   2.883  1.1420  0.9812  0.0034
   50MOL   C33835716   4.381   7.700   2.940  0.7604 -0.7010  0.3533
   50MOL   C33935717   4.160   0.027   3.000 -0.5826  0.1117  0.2664
   50MOL   H34035718   3.917   7.072   2.711  0.6783 -1.3142 -0.1729
   50MOL   H34135719   3.920   7.105   2.882  0.3801 -1.8899  1.9300
   50MOL   H34235720   3.863   6.949   2.823  0.8900 -2.0748 -2.2709
   50MOL   H34335721   4.110   6.896   2.774 -0.6936  0.3623 -0.1081
   50MOL   H34435722   4.101   6.938   2.944 -0.5353  0.0257  0.5856
   50MOL   H34535723   4.281   7.070   2.878  0.7976 -0.3945 -1.6178
   50MOL   H34635724   4.155   7.179   2.878 -0.2811  0.6438 -1.6181
   50MOL   H34735725   4.123   7.138   2.634 -0.0686 -0.8454  1.2440
   50MOL   H34835726   4.269   7.026   2.655  2.1915  0.0294  1.0645
   50MOL   H34935727   4.416   7.195   2.712  1.2595  0.5140 -1.7152
   50MOL   H35035728   4.370   7.210   2.554  3.8085 -0.5503  1.3598
   50MOL   H35135729   4.168   7.352   2.673 -0.0711 -2.1392  3.3961
   50MOL   H35235730   4.298   7.389   2.779  0.3437  0.1990  0.1837
   50MOL   H35335731   4.284   7.420   2.471  0.2630 -0.3742  0.7381
   50MOL   H35435732   4.416   7.481   2.581  0.3650 -0.9542  0.8324
   50MOL   H35535733   4.244   7.660   2.508  0.4419 -0.4049 -0.1788
   50MOL   H35635734   4.116   7.561   2.582 -0.6903 -0.0852 -0.1330
   50MOL   H35735735   4.404   7.719   3.045  0.9632  1.3640 -0.0422
   50MOL   H35835736   4.359   7.594   2.936  2.4053 -1.0157 -0.8413
   50MOL   H35935737   4.470   7.728   2.884 -0.9854 -1.4342 -2.9363
   50MOL   H36035738   4.202   0.091   3.078  0.7650 -0.2375 -0.1537
   50MOL   H36135739   4.078   0.081   2.954 -0.9079  0.2806  1.0287
   50MOL   C36235740   3.117   7.748   2.577  0.8792  0.1758  0.2375
   50MOL   C36335741   3.264   7.766   2.598 -0.6025  0.1092 -0.4959
   50MOL   C36435742   3.333   7.655   2.683 -0.2519 -0.5911  0.4690
   50MOL   C36535743   3.488   7.660   2.694  0.3704 -0.0709  0.5586
   50MOL   C36635744   3.534   7.542   2.787  0.2087 -0.6326  0.6784
   50MOL   C36735745   3.690   7.541   2.794  0.3533 -0.0940 -0.2378
   50MOL   C36835746   3.745   7.449   2.901 -0.0401 -0.4260 -0.0352
   50MOL   C36935747   3.901   7.452   2.899 -0.6393  0.6156 -0.2458
   50MOL   O37035748   3.950   7.563   2.961 -0.5103 -0.6225 -0.2506
   50MOL   C37135749   4.069   7.560   3.025 -0.7736  0.5558  0.1527
   50MOL   O37235750   4.152   7.463   3.019 -0.3960  0.3010 -0.0164
   50MOL   C37335751   4.100   7.691   3.100  0.5844 -0.6524  0.4949
   50MOL   C37435752   3.973   7.751   3.161 -0.4315 -0.2255  0.6141
   50MOL   C37535753   4.204   7.660   3.211 -1.0477 -0.4881  0.5890
   50MOL   H37635754   3.069   0.040   2.511 -1.6826 -1.1952  0.5847
   50MOL   H37735755   3.086   7.646   2.555  0.6130  0.1169  0.8854
   50MOL   H37835756   3.065   7.771   2.669 -0.2466  1.5480 -0.7275
   50MOL   H37935757   3.276   0.083   2.647 -0.7322 -0.7945  1.3809
   50MOL   H38035758   3.316   7.767   2.502  0.5428 -2.6971  0.0388
   50MOL   H38135759   3.321   7.559   2.634  1.0336  0.0096 -1.0617
   50MOL   H38235760   3.282   7.645   2.779 -1.4494 -1.4091 -0.2467
   50MOL   H38335761   3.505   7.758   2.738  1.0755 -0.3165  0.8374
   50MOL   H38435762   3.536   7.653   2.597 -2.1855 -0.8820 -0.6926
   50MOL   H38535763   3.479   7.545   2.881 -0.4034  0.4425  0.2941
   50MOL   H38635764   3.506   7.446   2.744  0.6017 -0.7771  0.7346
   50MOL   H38735765   3.727   7.641   2.819 -0.0196 -0.3596  1.4575
   50MOL   H38835766   3.724   7.521   2.693 -0.6160  0.3922 -0.6752
   50MOL   H38935767   3.712   7.346   2.888 -2.0308  0.2975 -0.7642
   50MOL   H39035768   3.715   7.471   3.003 -0.9505 -0.4002 -0.3083
   50MOL   H39135769   3.940   7.360   2.941  0.0169  0.8611 -0.3045
   50MOL   H39235770   3.934   7.450   2.795  1.4376 -0.6877  0.4121
   50MOL   H39335771   3.995   0.073   3.193 -1.7008  0.7997 -1.6177
   50MOL   H39435772   3.892   7.759   3.088  2.0258 -0.4736 -2.2465
   50MOL   H39535773   3.924   7.692   3.238  0.9535 -2.0280  0.1592
   50MOL   H39635774   4.270   7.586   3.166 -2.2808 -0.8910 -0.5863
   50MOL   H39735775   4.267   7.747   3.227 -1.8738  0.0120  1.1359
   50MOL   C39835776   4.614   0.179   3.232 -0.0921  0.3717 -0.2768
   50MOL   C39935777   4.556   0.315   3.193  0.4656 -0.3774  0.2210
   50MOL   C40035778   4.582   0.444   3.269  0.3775  0.4268 -0.0621
   50MOL   C40135779   4.555   0.429   3.427  0.8557 -0.5342  0.4300
   50MOL   C40235780   4.403   0.422   3.472  0.3143 -0.4530 -0.3574
   50MOL   C40335781   4.335   0.290   3.462 -0.7612  0.0620  0.2003
   50MOL   C40435782   4.179   0.298   3.451  0.0641 -0.1526 -0.2094
   50MOL   C40535783   4.111   0.169   3.498 -0.5602  0.0113  0.3527
   50MOL   O40635784   4.163   0.056   3.423  0.1116  0.0133  0.1421
   50MOL   C40735785   4.101   7.716   3.433  0.0129  0.1148 -0.0987
   50MOL   O40835786   3.994   7.699   3.492 -0.1410  0.3097  0.5523
   50MOL   C40935787   4.176   7.607   3.356  0.2816 -0.0765  0.4719
   50MOL   C41035788   4.083   7.491   3.341 -0.4235  1.1575  0.1778
   50MOL   C41135789   4.313   7.565   3.418 -1.2610  0.5195  0.1349
   50MOL   H41235790   4.620   0.119   3.141 -0.8462  0.7344 -0.5727
   50MOL   H41335791   4.552   0.125   3.303  1.1962  0.5724  1.0344
   50MOL   H41435792   4.702   0.191   3.295  1.1505  0.6226 -2.0260
   50MOL   H41535793   4.447   0.304   3.184  0.5231 -1.3866  0.5974
   50MOL   H41635794   4.594   0.330   3.093  0.8101 -1.7648  0.1261
   50MOL   H41735795   4.687   0.473   3.260  0.9468 -1.5309  0.0349
   50MOL   H41835796   4.530   0.529   3.225  0.8202  0.8812  0.2790
   50MOL   H41935797   4.605   0.518   3.467  1.4294 -0.2186 -0.9404
   50MOL   H42035798   4.611   0.348   3.473 -0.0552 -0.9300  0.8361
   50MOL   H42135799   4.401   0.455   3.576 -0.3286  0.2050 -0.5691
   50MOL   H42235800   4.351   0.503   3.420  0.8157 -1.4271 -2.4118
   50MOL   H42335801   4.362   0.232   3.550  1.2008  1.3664  0.4799
   50MOL   H42435802   4.366   0.240   3.371  0.5956 -0.6891  1.0724
   50MOL   H42535803   4.133   0.379   3.508 -1.8357  1.1632 -3.5048
   50MOL   H42635804   4.149   0.321   3.349 -0.0446  2.0149  0.2885
   50MOL   H42735805   4.120   0.144   3.604  1.5939  1.3858  0.5069
   50MOL   H42835806   4.002   0.173   3.485 -0.7747  1.6244  2.3046
   50MOL   H42935807   3.991   7.503   3.285  1.6047 -0.2548 -3.6098
   50MOL   H43035808   4.054   7.452   3.439  0.2462  0.4840  0.1114
   50MOL   H43135809   4.134   7.408   3.292 -2.4778  0.4705 -0.8427
   50MOL   H43235810   4.372   7.656   3.414 -1.2831  0.6423  1.9896
   50MOL   H43335811   4.360   7.494   3.350  0.2406  2.3256 -0.7258
   50MOL   C43435812   3.332   7.732   3.926 -0.5553 -0.3204  0.1538
   50MOL   C43535813   3.478   7.739   3.861  0.4184  0.6133 -0.6823
   50MOL   C43635814   3.540   7.599   3.873 -0.0957  0.7065  0.3156
   50MOL   C43735815   3.678   7.588   3.798 -0.4591  0.4933 -0.4182
   50MOL   C43835816   3.742   7.449   3.819  1.0081  0.3207 -0.4214
   50MOL   C43935817   3.852   7.422   3.712  0.3918 -0.7589  0.2185
   50MOL   C44035818   3.939   7.300   3.745  0.6649 -0.6466  0.1558
   50MOL   C44135819   4.060   7.273   3.660  0.0293  0.4525 -0.5966
   50MOL   O44235820   4.136   7.386   3.650 -0.3694  0.3898  0.4287
   50MOL   C44335821   4.252   7.377   3.578  0.0634  0.7003  0.0302
   50MOL   O44435822   4.284   7.272   3.520 -0.2229 -0.2513  0.2620
   50MOL   C44535823   4.332   7.506   3.559  0.2851  0.1944 -0.3401
   50MOL   C44635824   4.286   7.605   3.660  0.2058 -0.3809 -0.7266
   50MOL   C44735825   4.483   7.477   3.566  0.7930 -0.3836  0.2438
   50MOL   H44835826   3.331   7.732   4.035 -1.8799  0.3758  0.1599
   50MOL   H44935827   3.283   7.640   3.893  0.0437 -0.1803 -1.1670
   50MOL   H45035828   3.275   0.040   3.894 -1.3862 -1.3795 -1.3053
   50MOL   H45135829   3.535   0.034   3.918 -0.6625  0.5823  0.4610
   50MOL   H45235830   3.472   7.772   3.757 -1.1605 -1.7750 -1.3631
   50MOL   H45335831   3.466   7.527   3.841 -1.6142  1.2897  2.4124
   50MOL   H45435832   3.539   7.563   3.976 -1.3494 -0.0280  0.0513
   50MOL   H45535833   3.754   7.666   3.807  1.9302 -1.6139 -1.5068
   50MOL   H45635834   3.657   7.592   3.692 -2.3760 -0.5162 -0.0871
   50MOL   H45735835   3.784   7.463   3.919  1.4420  0.4256 -0.6138
   50MOL   H45835836   3.655   7.384   3.819  0.6920  0.7114 -1.8745
   50MOL   H45935837   3.919   7.508   3.700 -1.5230  0.5145 -1.6911
   50MOL   H46035838   3.800   7.415   3.617 -1.4585  0.2394  1.1183
   50MOL   H46135839   3.977   7.316   3.846  1.7666  0.8539 -0.4783
   50MOL   H46235840   3.880   7.209   3.756 -1.7003  0.9263  1.0924
   50MOL   H46335841   4.016   7.258   3.561 -0.8341  0.3759 -0.2083
   50MOL   H46435842   4.112   7.180   3.679  0.5583  0.8226 -0.2053
   50MOL   H46535843   4.324   7.705   3.638  2.2184 -1.0531 -0.4411
   50MOL   H46635844   4.179   7.621   3.667  0.2576 -0.8420  1.4934
   50MOL   H46735845   4.315   7.576   3.761  0.7065 -2.3375 -1.4087
   50MOL   H46835846   4.497   7.399   3.491 -1.7356 -0.7828  0.1349
   50MOL   H46935847   4.533   7.559   3.515 -0.7486  1.2376  1.2626
   50MOL   C47035848   4.232   0.214   4.512 -0.0723 -0.1112  0.6690
   50MOL   C47135849   4.326   0.162   4.402  0.5556  0.1452 -0.9189
   50MOL   C47235850   4.337   0.259   4.282 -0.4824 -0.2526 -0.1151
   50MOL   C47335851   4.422   0.203   4.163 -0.4127  0.1585  0.2226
   50MOL   C47435852   4.414   0.274   4.030 -0.2848 -0.0977 -0.8750
   50MOL   C47535853   4.506   0.223   3.919  0.1309 -0.1446  0.3060
   50MOL   C47635854   4.475   0.077   3.872  0.4301  0.1270  0.1111
   50MOL   C47735855   4.605   0.023   3.807 -0.1803 -0.3787  0.5698
   50MOL   O47835856   4.573   7.682   3.734  0.1718  0.5107  0.2615
   50MOL   C47935857   4.587   7.560   3.793 -0.5822  0.0067  0.2091
   50MOL   O48035858   4.613   7.550   3.910 -0.6214  0.0342 -0.0353
   50MOL   C48135859   4.563   7.436   3.695  0.7546 -0.3238 -0.7990
   50MOL   C48235860   4.483   7.339   3.779 -0.7443  0.3372  0.3750
   50MOL   C48335861   4.701   7.369   3.658 -0.3244 -0.4941  0.0421
   50MOL   H48435862   4.271   0.310   4.546  0.8510 -0.1874 -0.1662
   50MOL   H48535863   4.248   0.153   4.601 -0.8562 -3.1058 -1.1538
   50MOL   H48635864   4.130   0.218   4.473  0.4163 -1.5326 -0.8296
   50MOL   H48735865   4.420   0.157   4.456 -0.1950  0.5365  0.4401
   50MOL   H48835866   4.286   0.066   4.368 -2.3427  0.2411  2.0250
   50MOL   H48935867   4.236   0.288   4.256 -0.8514 -0.3682  1.1363
   50MOL   H49035868   4.393   0.346   4.318 -0.4897 -0.4207  0.3144
   50MOL   H49135869   4.525   0.198   4.199 -0.0552 -0.4778 -0.8804
   50MOL   H49235870   4.398   0.097   4.156 -0.7585  0.1349  1.5815
   50MOL   H49335871   4.306   0.271   4.013 -0.6524 -0.7801  1.4467
   50MOL   H49435872   4.437   0.377   4.057 -0.3024 -0.0207 -1.1505
   50MOL   H49535873   4.503   0.281   3.827  2.3268 -1.1937 -0.4715
   50MOL   H49635874   4.609   0.236   3.952  0.6457  0.9437 -1.6892
   50MOL   H49735875   4.444   0.010   3.952  1.5759  0.3494  0.7622
   50MOL   H49835876   4.403   0.081   3.791 -0.7712 -1.4947  1.0603
   50MOL   H49935877   4.676   0.012   3.889  0.8172 -0.1579 -0.2520
   50MOL   H50035878   4.651   0.090   3.735 -1.3944 -0.5807 -0.4120
   50MOL   H50135879   4.381   7.374   3.795 -0.9744  0.2466 -0.8580
   50MOL   H50235880   4.509   7.319   3.883 -0.9196  1.5039  0.6422
   50MOL   H50335881   4.476   7.244   3.726  1.0064  0.0310  0.6401
   50MOL   H50435882   4.726   7.302   3.740 -0.5066  0.7748  1.1492
   50MOL   H50535883   4.672   7.292   3.586  0.3590 -1.3855  0.7086
   50MOL   C50635884   5.272   7.190   3.435  0.3841 -0.7064 -0.4640
   50MOL   C50735885   5.362   7.259   3.542  0.5605 -0.3882 -0.1159
   50MOL   C50835886   5.363   7.175   3.677  0.0843  0.4662 -0.1006
   50MOL   C50935887   5.440   7.244   3.797  0.1056 -0.3530  0.2864
   50MOL   C51035888   5.368   7.377   3.836  0.0044 -0.2226  0.2858
   50MOL   C51135889   5.216   7.363   3.875 -0.8766 -0.1286 -0.5510
   50MOL   C51235890   5.155   7.493   3.928  0.5361  0.1895  0.3369
   50MOL   C51335891   5.002   7.477   3.949  0.8561  0.3522  0.0672
   50MOL   O51435892   4.937   7.435   3.833  0.2680 -0.2109 -0.0339
   50MOL   C51535893   4.901   7.517   3.737 -0.2791  0.1745 -0.2523
   50MOL   O51635894   4.920   7.640   3.737 -0.1102  0.2716  0.0170
   50MOL   C51735895   4.840   7.444   3.619  0.2593 -0.0112 -0.2543
   50MOL   C51835896   4.936   7.326   3.577 -0.0824 -0.2057  0.9081
   50MOL   C51935897   4.812   7.550   3.502 -0.7772  0.2650  0.2579
   50MOL   H52035898   5.178   7.147   3.468 -1.1323  0.9734 -2.4583
   50MOL   H52135899   5.335   7.114   3.390  0.4148 -0.8240 -0.2198
   50MOL   H52235900   5.241   7.255   3.353 -1.3536  0.0693  0.7787
   50MOL   H52335901   5.320   7.354   3.575  0.7009 -1.2340  2.5646
   50MOL   H52435902   5.464   7.263   3.506  0.2577 -1.0109 -1.0825
   50MOL   H52535903   5.262   7.146   3.704  0.0581  0.3013 -0.3681
   50MOL   H52635904   5.411   7.079   3.656 -0.6445  0.4862 -1.9492
   50MOL   H52735905   5.457   7.183   3.886 -0.2017 -1.5059 -0.4358
   50MOL   H52835906   5.542   7.270   3.767  0.9376 -1.7669  1.8381
   50MOL   H52935907   5.428   7.424   3.913  1.4215 -2.3166  0.4958
   50MOL   H53035908   5.382   7.453   3.759  2.5975 -0.5953  0.3585
   50MOL   H53135909   5.224   7.287   3.952 -0.3898 -0.7553 -1.2182
   50MOL   H53235910   5.153   7.331   3.793 -1.9193 -0.2005  0.2696
   50MOL   H53335911   5.175   7.570   3.854 -0.5581  1.3731  1.2358
   50MOL   H53435912   5.212   7.521   4.017  2.5236  0.1325 -0.9043
   50MOL   H53535913   4.950   7.564   3.988  0.9180  0.6690 -0.5566
   50MOL   H53635914   4.991   7.397   4.022 -1.1099 -0.2181 -0.8499
   50MOL   H53735915   5.039   7.359   3.562  0.7421 -1.9737  2.6418
   50MOL   H53835916   4.900   7.288   3.481  0.2942  3.6314 -0.8839
   50MOL   H53935917   4.926   7.243   3.646 -1.1060 -0.8095  0.0423
   50MOL   H54035918   4.745   7.484   3.445  0.4065  0.2148 -1.1030
   50MOL   H54135919   4.749   7.632   3.536 -0.5632  0.1961  0.8224
   50MOL   C54235920   4.899   0.486   3.015  0.7544 -0.5441  0.0053
   50MOL   C54335921   4.992   0.586   3.078  0.4608 -0.2434 -0.2912
   50MOL   C54435922   4.969   0.573   3.237  0.2214 -0.4620 -0.1743
   50MOL   C54535923   4.982   0.435   3.300  0.8493  0.4519 -0.9520
   50MOL   C54635924   4.993   0.447   3.450  0.0298  0.0649  0.1833
   50MOL   C54735925   5.014   0.316   3.512  0.2537 -0.3505  0.2599
   50MOL   C54835926   5.148   0.244   3.491  1.1906 -0.2290  0.7522
   50MOL   C54935927   5.145   0.092   3.544  0.2502 -0.7244  0.3711
   50MOL   O55035928   5.050   0.022   3.466 -0.0541  0.4357 -0.0647
   50MOL   C55135929   5.045   7.668   3.465 -0.2690  0.3729  0.7413
   50MOL   O55235930   5.132   7.602   3.514  0.1286  0.0562 -0.0251
   50MOL   C55335931   4.916   7.602   3.397 -0.1887 -0.2005 -0.7776
   50MOL   C55435932   4.841   7.719   3.336 -0.2191 -0.5464  0.7666
   50MOL   C55535933   4.962   7.487   3.290  0.1834 -0.6736 -0.3858
   50MOL   H55635934   4.892   0.500   2.908 -1.3195  1.3669  0.3434
   50MOL   H55735935   4.794   0.490   3.044  1.0780  1.1512  1.0343
   50MOL   H55835936   4.939   0.386   3.032 -0.9827 -1.5086 -1.3953
   50MOL   H55935937   5.088   0.565   3.033  0.0922 -1.5688 -0.4978
   50MOL   H56035938   4.959   0.686   3.049 -0.4882 -1.0712 -2.1074
   50MOL   H56135939   4.865   0.594   3.260  0.8594  1.1027  1.4548
   50MOL   H56235940   5.038   0.646   3.279  0.8479 -0.8018 -0.6063
   50MOL   H56335941   4.889   0.387   3.272  1.1118 -1.3126  1.0362
   50MOL   H56435942   5.061   0.378   3.251  1.2677 -1.2199  1.5788
   50MOL   H56535943   4.904   0.499   3.485  0.9970  2.2685 -0.5471
   50MOL   H56635944   5.076   0.516   3.470  2.4926 -2.7584  0.0859
   50MOL   H56735945   5.000   0.329   3.619 -4.0225 -1.7922 -0.0480
   50MOL   H56835946   4.931   0.252   3.482  0.0846  0.0796 -0.2028
   50MOL   H56935947   5.165   0.250   3.384  0.5377 -0.5351  0.6303
   50MOL   H57035948   5.224   0.303   3.543  0.6893  2.6662 -1.6549
   50MOL   H57135949   5.126   0.083   3.651  2.0760 -0.3066  0.7547
   50MOL   H57235950   5.245   0.049   3.537  0.9141  0.7960  0.3677
   50MOL   H57335951   4.750   7.677   3.291 -1.3520  2.8945 -0.3777
   50MOL   H57435952   4.888   7.773   3.254 -2.4392 -0.6831 -0.6582
   50MOL   H57535953   4.806   0.014   3.407  1.5440  0.3551  0.7182
   50MOL   H57635954   4.870   7.428   3.283 -0.3467 -0.5677  4.1325
   50MOL   H57735955   5.035   7.424   3.340 -1.6671 -1.5856  1.2805
   50MOL   C57835956   5.762   7.435   2.508  0.6187  0.8921 -0.5083
   50MOL   C57935957   5.709   7.390   2.649 -0.8263  0.0706 -0.6229
   50MOL   C58035958   5.777   7.453   2.774 -0.2316  0.2606  0.8744
   50MOL   C58135959   5.687   7.449   2.902 -0.2381  0.3114  0.6293
   50MOL   C58235960   5.584   7.562   2.901 -0.8228  0.4952 -0.9409
   50MOL   C58335961   5.528   7.581   3.042 -0.1715 -0.0394 -0.7081
   50MOL   C58435962   5.421   7.691   3.041  0.3097 -0.3503 -0.5415
   50MOL   C58535963   5.343   7.697   3.176 -0.1137  0.3568 -0.1735
   50MOL   O58635964   5.242   7.603   3.182 -0.6821  0.2959  0.0137
   50MOL   C58735965   5.119   7.638   3.144 -0.2006  0.0705  0.4965
   50MOL   O58835966   5.082   7.753   3.107 -0.1206 -0.3058  0.0532
   50MOL   C58935967   5.013   7.521   3.144 -0.5694 -0.3562 -0.1806
   50MOL   C59035968   4.881   7.555   3.062  0.0338 -0.0078 -0.2158
   50MOL   C59135969   5.071   7.391   3.080 -0.1289 -0.2890 -0.3244
   50MOL   H59235970   5.859   7.401   2.474  0.0801 -0.2702 -0.8859
   50MOL   H59335971   5.773   7.544   2.505 -1.9973  1.1871 -1.2548
   50MOL   H59435972   5.693   7.407   2.428 -1.5916  1.8510  1.0135
   50MOL   H59535973   5.716   7.281   2.650 -0.6928  0.0865  0.7032
   50MOL   H59635974   5.601   7.401   2.653 -0.5837  2.2342  0.4919
   50MOL   H59735975   5.807   7.558   2.767 -0.6088  0.3602  0.7089
   50MOL   H59835976   5.871   7.400   2.784 -0.2365 -0.1868 -1.2895
   50MOL   H59935977   5.737   7.463   2.998 -2.3901 -1.1145  2.0115
   50MOL   H60035978   5.638   7.353   2.918 -2.7434  1.4904  0.2511
   50MOL   H60135979   5.505   7.527   2.835 -1.4166  0.7355 -0.3639
   50MOL   H60235980   5.637   7.648   2.860  0.0466  1.2564  1.6593
   50MOL   H60335981   5.605   7.608   3.114  0.7955  0.8365 -2.0439
   50MOL   H60435982   5.476   7.487   3.061  1.5475 -0.4235  2.3898
   50MOL   H60535983   5.360   7.687   2.951  1.1464  3.6707 -1.4164
   50MOL   H60635984   5.481   0.001   3.026  0.4995 -0.3850 -0.0027
   50MOL   H60735985   5.396   7.692   3.271 -0.2693  0.9352 -0.0566
   50MOL   H60835986   5.292   0.013   3.187 -1.5466 -0.5925  1.6305
   50MOL   H60935987   4.916   7.586   2.963 -1.2670  0.9309 -0.4071
   50MOL   H61035988   4.816   7.468   3.056  0.0838 -0.0310 -0.4307
   50MOL   H61135989   4.825   7.639   3.104  2.2923  1.0299  0.7836
   50MOL   H61235990   5.019   7.311   3.133  1.2508 -0.8771  0.1474
   50MOL   H61335991   5.171   7.394   3.123  0.5830  1.1673 -2.0391
   50MOL   C61435992   4.546   6.771   2.123  0.0344 -0.4278 -0.5015
   50MOL   C61535993   4.600   6.849   2.235 -0.2807  0.0607  0.1938
   50MOL   C61635994   4.564   6.792   2.377 -0.3051 -0.8341 -0.5481
   50MOL   C61735995   4.558   6.898   2.487  0.3958  0.1323  0.4145
   50MOL   C61835996   4.694   6.943   2.538 -0.2798 -0.4060  0.4505
   50MOL   C61935997   4.673   7.048   2.649 -0.5535 -1.1871  0.0265
   50MOL   C62035998   4.799   7.095   2.721 -0.5750 -0.4822  0.6064
   50MOL   C62135999   4.772   7.197   2.829  0.1536 -0.6382  0.1812
   50MOL   O62236000   4.894   7.228   2.900 -0.1372  0.0882 -0.0147
   50MOL   C62336001   4.965   7.325   2.851  0.2091  0.1461  0.4050
   50MOL   O62436002   4.932   7.397   2.752 -0.0107 -0.3440 -0.8529
   50MOL   C62536003   5.098   7.357   2.931  0.1240  1.2348  0.2103
   50MOL   C62636004   5.174   7.475   2.863  0.3194 -0.7052 -0.1608
   50MOL   C62736005   5.184   7.225   2.939  0.2563  0.1954  0.2083
   50MOL   H62836006   4.437   6.777   2.135  0.0831 -0.1035 -0.2167
   50MOL   H62936007   4.564   6.665   2.143 -1.3733 -0.3130  1.6295
   50MOL   H63036008   4.579   6.808   2.026 -0.8419 -1.4780 -1.2162
   50MOL   H63136009   4.707   6.842   2.215 -0.3989  1.0363 -0.7961
   50MOL   H63236010   4.577   6.955   2.239  0.8658  0.4242 -2.2844
   50MOL   H63336011   4.636   6.725   2.424 -0.2644 -0.9630 -0.7897
   50MOL   H63436012   4.474   6.731   2.375  0.1860 -1.6804  1.6840
   50MOL   H63536013   4.497   6.863   2.569 -0.3574 -0.6602 -0.4781
   50MOL   H63636014   4.501   6.982   2.447  0.6434 -0.5609 -1.4259
   50MOL   H63736015   4.743   6.859   2.588  0.1041  0.3834  1.4294
   50MOL   H63836016   4.762   6.982   2.462 -2.0812 -0.7035 -1.3233
   50MOL   H63936017   4.619   7.131   2.603  0.4692 -0.1763  0.6089
   50MOL   H64036018   4.613   7.013   2.732 -1.6663  0.8620  0.1135
   50MOL   H64136019   4.843   7.141   2.633 -1.9577 -0.2971  0.0006
   50MOL   H64236020   4.851   7.003   2.748 -2.1525 -1.5210  0.1092
   50MOL   H64336021   4.715   7.282   2.791  1.1639 -0.8242 -1.8291
   50MOL   H64436022   4.701   7.147   2.895  0.3968  2.6949  3.0899
   50MOL   H64536023   5.159   7.475   2.756 -0.0234  1.3603 -0.1230
   50MOL   H64636024   5.281   7.479   2.886  0.2770 -4.0356  0.9233
   50MOL   H64736025   5.118   7.567   2.878  0.2813 -0.5383 -1.2889
   50MOL   H64836026   5.126   7.149   2.991 -3.5422  1.7960 -1.5075
   50MOL   H64936027   5.262   7.241   3.014 -2.0248  2.4236  2.1725
   50MOL   C65036028   4.370   6.759   2.869  0.1917  0.0351 -0.0238
   50MOL   C65136029   4.499   6.779   2.948 -0.5409  0.1364 -0.0302
   50MOL   C65236030   4.617   6.715   2.872  0.3508 -0.0453  0.2024
   50MOL   C65336031   4.763   6.748   2.923  0.2742  0.2290  0.3075
   50MOL   C65436032   4.867   6.689   2.830  0.6904  0.2480 -0.6756
   50MOL   C65536033   4.999   6.716   2.900 -0.6183  0.5148 -0.4070
   50MOL   C65636034   5.127   6.701   2.814 -0.4709 -0.2558 -0.4166
   50MOL   C65736035   5.240   6.789   2.870  0.0455  0.0470  0.1739
   50MOL   O65836036   5.212   6.931   2.879  0.1722  0.3803 -0.0931
   50MOL   C65936037   5.315   7.023   2.864 -0.1954  0.3184 -0.8550
   50MOL   O66036038   5.438   6.994   2.874 -0.5806 -0.2513 -0.3842
   50MOL   C66136039   5.264   7.157   2.817  0.4844 -0.2702 -0.2119
   50MOL   C66236040   5.385   7.245   2.783 -0.4288 -0.1906 -0.0418
   50MOL   C66336041   5.183   7.124   2.689 -1.2878  0.3673  0.1851
   50MOL   H66436042   4.284   6.795   2.926  0.3141 -0.7331  0.6612
   50MOL   H66536043   4.354   6.652   2.855 -1.1894  0.4048 -1.3655
   50MOL   H66636044   4.379   6.796   2.767  0.8852 -0.1936 -0.0508
   50MOL   H66736045   4.482   6.732   3.044  0.3152  1.0754  0.5888
   50MOL   H66836046   4.515   6.886   2.965 -0.4680  0.3581 -1.3628
   50MOL   H66936047   4.605   6.754   2.771  1.3285 -0.1278  0.0532
   50MOL   H67036048   4.595   6.608   2.873  1.0356 -0.1904  2.8053
   50MOL   H67136049   4.765   6.703   3.022 -1.8735  2.0115  1.2282
   50MOL   H67236050   4.780   6.855   2.936  1.9958 -0.0088  0.0831
   50MOL   H67336051   4.856   6.749   2.740 -1.5894  1.8616  0.6387
   50MOL   H67436052   4.854   6.582   2.810 -1.6048  0.3470  0.2099
   50MOL   H67536053   4.997   6.821   2.930  1.4594  0.6106 -0.4968
   50MOL   H67636054   5.011   6.665   2.995 -1.4691  1.0010 -0.0358
   50MOL   H67736055   5.107   6.735   2.713  2.0823  0.6554 -0.6635
   50MOL   H67836056   5.153   6.597   2.799 -2.0331 -0.4234 -2.1230
   50MOL   H67936057   5.328   6.763   2.811 -0.6067 -1.6137 -0.0679
   50MOL   H68036058   5.270   6.760   2.971  1.6170  2.0722  0.3215
   50MOL   H68136059   5.462   7.190   2.728  0.2610  0.1912  0.5333
   50MOL   H68236060   5.425   7.294   2.872 -1.6940 -0.5731  0.7471
   50MOL   H68336061   5.357   7.328   2.718 -2.2034 -2.2492 -1.9905
   50MOL   H68436062   5.098   7.060   2.711 -1.5901  0.2507 -1.2561
   50MOL   H68536063   5.136   7.221   2.667 -0.9049  0.7493  1.0405
   50MOL   C68636064   5.184   0.280   2.867  0.7209 -0.1943  0.3752
   50MOL   C68736065   5.279   0.162   2.833  0.3318  0.1525  0.1908
   50MOL   C68836066   5.284   0.136   2.686  0.5637  0.2838  0.0371
   50MOL   C68936067   5.359   0.009   2.635  0.1575  0.3287  0.2825
   50MOL   C69036068   5.369   0.010   2.480  0.5125  0.0076 -0.4951
   50MOL   C69136069   5.410   7.663   2.411  0.2829  0.0827 -0.0231
   50MOL   C69236070   5.346   7.536   2.468  0.2841  0.6049 -0.1755
   50MOL   C69336071   5.337   7.421   2.368  0.7514  0.1920  0.0976
   50MOL   O69436072   5.267   7.315   2.435  0.2990  0.2944 -0.1995
   50MOL   C69536073   5.332   7.198   2.483 -0.0162 -0.1469  0.2161
   50MOL   O69636074   5.457   7.186   2.485  0.5873  0.2110  0.3845
   50MOL   C69736075   5.245   7.078   2.548 -0.7832 -0.1462 -0.3887
   50MOL   C69836076   5.139   7.048   2.452 -0.8191  0.1452  0.6481
   50MOL   C69936077   5.333   6.954   2.561 -0.2120  0.4195  0.2445
   50MOL   H70036078   5.169   0.291   2.974  1.8904  1.7480  0.3616
   50MOL   H70136079   5.088   0.257   2.821  1.0208  0.0928 -0.3942
   50MOL   H70236080   5.228   0.367   2.819  0.3499  0.6628  1.5543
   50MOL   H70336081   5.228   0.072   2.866  0.5321  0.4275  1.2565
   50MOL   H70436082   5.378   0.178   2.875  0.7886  2.7631 -1.7491
   50MOL   H70536083   5.339   0.224   2.654  1.8946 -0.8588 -0.9179
   50MOL   H70636084   5.184   0.131   2.642  0.3787 -1.2549  0.6017
   50MOL   H70736085   5.293   7.705   2.662  0.1452  0.2303 -0.0566
   50MOL   H70836086   5.454   7.769   2.684 -0.5286  0.4261  1.6977
   50MOL   H70936087   5.425   0.099   2.454  1.2529 -0.2424  0.2256
   50MOL   H71036088   5.270   0.027   2.438  0.6747 -0.4537 -1.0646
   50MOL   H71136089   5.398   7.668   2.303  0.2486 -1.2593 -0.0868
   50MOL   H71236090   5.516   7.663   2.435 -0.3653  0.6671  3.1102
   50MOL   H71336091   5.395   7.505   2.561 -1.1642 -0.6428  0.1918
   50MOL   H71436092   5.243   7.564   2.492  0.1987 -0.5068  0.8084
   50MOL   H71536093   5.431   7.382   2.329  0.5427 -0.0121 -0.2011
   50MOL   H71636094   5.274   7.440   2.281  0.6184 -0.0388  0.1413
   50MOL   H71736095   5.170   7.014   2.353 -0.6091  0.0870  0.7335
   50MOL   H71836096   5.080   6.967   2.495  1.3834 -0.3757  2.7471
   50MOL   H71936097   5.084   7.141   2.439  1.8401  1.7526  0.6144
   50MOL   H72036098   5.289   6.867   2.610  2.6281 -0.0799  2.0278
   50MOL   H72136099   5.423   6.986   2.613  0.3701  2.4273 -1.9190
   50MOL   H72236100   5.361   6.921   2.461 -1.3433 -1.1315  0.4237
   51MOL     C136101   5.682   5.365   1.713  0.8399 -1.2662 -0.0198
   51MOL     C236102   5.641   5.497   1.790 -0.0987 -0.1196  0.0762
   51MOL     C336103   5.768   5.585   1.786  0.5454  0.0427 -0.5545
   51MOL     C436104   5.775   5.702   1.895  0.7304  0.7193  0.1281
   51MOL     C536105   5.854   5.657   2.018 -0.0274 -0.0109 -0.9574
   51MOL     C636106   5.911   5.779   2.088 -0.4853 -0.0891 -0.0723
   51MOL     C736107   5.972   5.744   2.222 -0.3193  0.1644  0.3107
   51MOL     C836108   6.079   5.846   2.269 -0.1163  0.0253  0.2955
   51MOL     O936109   6.026   5.945   2.343  0.0999 -0.4927 -0.2510
   51MOL    C1036110   6.102   6.010   2.430 -0.2463  0.3531 -0.3535
   51MOL    O1136111   6.223   5.989   2.455  0.4960 -0.0941 -0.0645
   51MOL    C1236112   6.028   6.131   2.491  0.0721 -0.4300 -0.7878
   51MOL    C1336113   5.952   6.220   2.380  0.0711  0.6467 -0.0868
   51MOL    C1436114   5.927   6.090   2.600 -0.3324 -0.4974 -0.0209
   51MOL    H1536115   5.602   5.292   1.724  1.7071 -2.0287  1.4717
   51MOL    H1636116   5.758   5.309   1.768  0.8629  0.7788  2.0885
   51MOL    H1736117   5.700   5.377   1.606  0.8771 -0.5901  0.0611
   51MOL    H1836118   5.611   5.468   1.891  0.1126 -3.1186 -0.6803
   51MOL    H1936119   5.554   5.546   1.746  1.1225  1.7015 -0.3526
   51MOL    H2036120   5.860   5.527   1.781 -1.5044 -3.6261  1.3788
   51MOL    H2136121   5.767   5.625   1.685  0.1152 -2.2812 -1.5166
   51MOL    H2236122   5.829   5.783   1.845  0.8331  0.7969  0.3632
   51MOL    H2336123   5.675   5.735   1.919  0.6609  0.5798  0.0311
   51MOL    H2436124   5.925   5.578   1.995 -2.9897 -2.6989 -1.2905
   51MOL    H2536125   5.782   5.611   2.087  0.6429  1.6178  0.8691
   51MOL    H2636126   5.834   5.853   2.109  1.1524  1.2502  1.3665
   51MOL    H2736127   5.985   5.819   2.018 -0.6966  0.8886  0.2527
   51MOL    H2836128   6.022   5.647   2.213  0.8598  0.8164 -0.3804
   51MOL    H2936129   5.893   5.734   2.296 -0.3859 -0.0362  0.2126
   51MOL    H3036130   6.139   5.883   2.186 -0.7856 -0.1061 -0.2510
   51MOL    H3136131   6.152   5.794   2.331 -0.6456 -2.4519 -1.1184
   51MOL    H3236132   6.039   6.241   2.318 -0.5377  0.4593 -1.0036
   51MOL    H3336133   5.874   6.155   2.341 -1.0298  0.6152  2.1202
   51MOL    H3436134   5.894   6.301   2.422  0.5556  1.9036 -1.7855
   51MOL    H3536135   5.837   6.054   2.550  0.1292 -1.4608 -0.1687
   51MOL    H3636136   5.889   6.185   2.636 -1.2267 -0.0995 -1.9201
   51MOL    H3736137   6.098   6.196   2.544 -0.1964 -1.3566  0.7403
   51MOL    C3836138   5.748   5.566   3.716 -0.3481 -0.1609 -0.2203
   51MOL    C3936139   5.850   5.678   3.700 -0.5757  0.1441 -0.8034
   51MOL    C4036140   5.941   5.676   3.574 -0.8366 -0.2572  0.6589
   51MOL    C4136141   5.878   5.714   3.447 -0.0972 -0.6182  0.7047
   51MOL    C4236142   5.975   5.755   3.330 -0.0834 -0.4784  0.5325
   51MOL    C4336143   5.919   5.792   3.189  0.3080  0.2165 -0.1501
   51MOL    C4436144   5.857   5.935   3.190 -0.1618 -0.6380 -0.1172
   51MOL    C4536145   5.795   5.985   3.057 -0.4299 -0.3219  0.3143
   51MOL    O4636146   5.888   5.974   2.953 -0.0743  0.0079 -0.5870
   51MOL    C4736147   5.855   6.014   2.828  0.3800  0.6857 -0.4272
   51MOL    O4836148   5.738   6.053   2.792  0.0577 -0.2663 -0.0795
   51MOL    C4936149   5.970   6.006   2.729 -0.0915 -0.3466 -0.2054
   51MOL    C5036150   6.095   6.076   2.796 -0.1062 -0.1608 -0.0844
   51MOL    C5136151   6.008   5.855   2.708  0.7796  0.3232 -1.2662
   51MOL    H5236152   5.789   5.468   3.689 -1.6815 -0.1235 -2.5199
   51MOL    H5336153   5.663   5.589   3.651  0.3131 -0.2675 -1.1309
   51MOL    H5436154   5.689   5.561   3.808  1.0305  1.0374  0.7322
   51MOL    H5536155   5.909   5.685   3.791 -1.0731 -1.7784 -0.3000
   51MOL    H5636156   5.807   5.778   3.694 -0.8434  0.0787 -0.0773
   51MOL    H5736157   6.026   5.742   3.589  1.5079 -2.5012 -2.0927
   51MOL    H5836158   5.987   5.579   3.558 -0.5257  0.1342 -0.9147
   51MOL    H5936159   5.802   5.792   3.458 -0.8602 -0.8588 -2.3225
   51MOL    H6036160   5.815   5.629   3.421  1.0854 -0.8855 -1.3100
   51MOL    H6136161   6.048   5.830   3.358 -1.0228  1.0022 -0.8751
   51MOL    H6236162   6.048   5.676   3.311 -1.3735 -1.9145  1.4103
   51MOL    H6336163   6.006   5.788   3.123  0.3487  2.0956 -0.2474
   51MOL    H6436164   5.848   5.722   3.145 -0.9076 -0.1373  2.2659
   51MOL    H6536165   5.929   6.005   3.232 -1.4466  0.9894 -0.5866
   51MOL    H6636166   5.779   5.942   3.266  0.4512 -0.7452  0.5251
   51MOL    H6736167   5.764   6.089   3.072  0.4339  0.0495 -0.4469
   51MOL    H6836168   5.710   5.922   3.031  0.2877 -1.8191  1.5244
   51MOL    H6936169   6.172   6.100   2.722 -0.4231 -0.7787 -0.6209
   51MOL    H7036170   6.082   6.161   2.863 -1.2542 -0.4376  0.0490
   51MOL    H7136171   6.153   6.008   2.857 -0.3487  2.0675  2.7262
   51MOL    H7236172   6.051   5.819   2.801 -0.6817 -0.2162 -0.7908
   51MOL    H7336173   6.093   5.851   2.639 -1.5861 -1.3256 -4.2121
   51MOL    C7436174   5.154   6.282   2.972  0.1724 -0.5705  0.2531
   51MOL    C7536175   5.252   6.169   3.031  0.2871 -0.3350 -0.3005
   51MOL    C7636176   5.286   6.065   2.926  0.6192  0.7969  0.6678
   51MOL    C7736177   5.389   5.964   2.969  0.0571 -0.5355  0.6708
   51MOL    C7836178   5.387   5.839   2.879  0.3773  0.0099  0.0995
   51MOL    C7936179   5.502   5.742   2.915 -0.3743  0.0230  0.1906
   51MOL    C8036180   5.504   5.611   2.834  0.3188  0.3175  0.0968
   51MOL    C8136181   5.646   5.553   2.833  0.0320  0.0129 -0.5410
   51MOL    O8236182   5.737   5.623   2.745 -0.5517 -0.4565  0.4696
   51MOL    C8336183   5.845   5.680   2.779 -0.4078 -0.1154  0.1945
   51MOL    O8436184   5.889   5.682   2.894 -0.2669 -0.2472 -0.0338
   51MOL    C8536185   5.917   5.740   2.660  0.0145  0.1404 -0.4579
   51MOL    C8636186   5.800   5.797   2.571  0.1995  0.1130  0.8941
   51MOL    C8736187   5.989   5.625   2.577  0.4772 -0.6131  0.5880
   51MOL    H8836188   5.058   6.231   2.980  0.4070 -0.7419  2.1353
   51MOL    H8936189   5.180   6.301   2.868  0.8344  0.0135  0.5224
   51MOL    H9036190   5.153   6.377   3.025 -1.6956  1.0680 -2.5604
   51MOL    H9136191   5.220   6.137   3.130 -2.6982 -0.0512 -1.1315
   51MOL    H9236192   5.336   6.236   3.051 -1.2894  1.7135 -0.3598
   51MOL    H9336193   5.196   6.007   2.907  0.4592  1.0726  0.5844
   51MOL    H9436194   5.321   6.112   2.834  1.3396 -2.4777 -0.8083
   51MOL    H9536195   5.367   5.930   3.070  0.9167  0.6985  1.2983
   51MOL    H9636196   5.488   6.009   2.962 -1.2303  2.4341  0.7192
   51MOL    H9736197   5.291   5.791   2.898  1.3606 -2.2723 -0.4606
   51MOL    H9836198   5.390   5.862   2.772  1.2866  0.4306  0.2110
   51MOL    H9936199   5.592   5.800   2.900  0.1182 -0.9271 -0.5704
   51MOL   H10036200   5.502   5.729   3.024  1.9896 -1.6390  0.0264
   51MOL   H10136201   5.433   5.539   2.874  0.2316  0.6719  0.5912
   51MOL   H10236202   5.477   5.643   2.734 -0.8190 -2.2824 -0.4500
   51MOL   H10336203   5.645   5.453   2.790 -0.0511 -0.2549  0.0808
   51MOL   H10436204   5.677   5.556   2.937 -2.1587  0.4042  0.1356
   51MOL   H10536205   5.835   5.828   2.473 -0.5214  0.5598  0.7691
   51MOL   H10636206   5.721   5.863   2.608 -0.8601 -1.3274  1.2307
   51MOL   H10736207   5.729   5.725   2.530  0.0110  0.7948  0.0157
   51MOL   H10836208   5.910   5.556   2.549  0.1455  0.5082 -1.3308
   51MOL   H10936209   6.012   5.665   2.478 -0.2104 -1.6991 -0.0187
   51MOL   C11036210   6.214   5.532   1.809  0.2550 -0.3082  0.0981
   51MOL   C11136211   6.252   5.471   1.942 -0.2123  0.2147  0.0797
   51MOL   C11236212   6.395   5.477   1.991 -0.2104  0.5243 -0.4846
   51MOL   C11336213   6.414   5.425   2.137  0.4228  0.3374 -0.0992
   51MOL   C11436214   6.392   5.540   2.245  0.0023  0.0735  0.7637
   51MOL   C11536215   6.497   5.653   2.257  0.0149  0.4555  0.2581
   51MOL   C11636216   6.445   5.768   2.344  0.3850 -1.1064  0.0435
   51MOL   C11736217   6.403   5.740   2.489 -0.5795 -0.2634 -0.3399
   51MOL   O11836218   6.300   5.646   2.506  0.0088 -0.1561 -0.4914
   51MOL   C11936219   6.248   5.625   2.632 -0.3925  0.4677  0.2534
   51MOL   O12036220   6.289   5.682   2.736  0.1646 -0.2474 -0.1950
   51MOL   C12136221   6.116   5.542   2.633  0.5315 -0.4045  0.0884
   51MOL   C12236222   6.131   5.429   2.524  0.1246 -0.1435 -0.1147
   51MOL   C12336223   6.093   5.479   2.778  0.0343 -0.8626  0.7629
   51MOL   H12436224   6.249   5.635   1.802 -0.1091 -0.1551  0.4883
   51MOL   H12536225   6.260   5.485   1.722 -0.8089  1.7431 -1.6177
   51MOL   H12636226   6.106   5.523   1.798  0.4524 -0.5562 -1.7833
   51MOL   H12736227   6.214   5.372   1.919 -4.0332  1.4421  0.6288
   51MOL   H12836228   6.191   5.518   2.019  1.9537 -1.6133  2.9906
   51MOL   H12936229   6.438   5.577   1.984  1.5006 -0.3021 -2.2896
   51MOL   H13036230   6.454   5.417   1.921  1.5781 -0.5452  1.8979
   51MOL   H13136231   6.350   5.340   2.157 -1.7324  0.9196 -4.0469
   51MOL   H13236232   6.517   5.393   2.154  0.8234  0.9878 -1.2163
   51MOL   H13336233   6.385   5.491   2.342 -0.7862 -1.8335 -0.2265
   51MOL   H13436234   6.290   5.574   2.230  0.2795  1.5242  2.1568
   51MOL   H13536235   6.592   5.611   2.290 -0.2666 -1.7406 -1.6177
   51MOL   H13636236   6.511   5.700   2.160 -1.0914  0.6987  0.2112
   51MOL   H13736237   6.361   5.816   2.294 -0.8450  0.0811  3.1271
   51MOL   H13836238   6.529   5.838   2.341  0.7846 -1.5506  0.8627
   51MOL   H13936239   6.494   5.722   2.547 -0.3059  0.0122 -0.6802
   51MOL   H14036240   6.375   5.833   2.539  0.5889 -0.5188  0.8334
   51MOL   H14136241   6.117   5.466   2.422 -1.4905 -0.2250  0.0698
   51MOL   H14236242   6.221   5.367   2.526  0.4488  0.3043 -0.5795
   51MOL   H14336243   6.046   5.363   2.540 -0.5598  0.8443  0.3576
   51MOL   H14436244   5.991   5.447   2.800  0.2495 -0.4165  2.5364
   51MOL   H14536245   6.106   5.565   2.843  0.1583  0.2592 -0.7306
   51MOL   C14636246   5.165   5.437   2.625  0.3813 -0.1441  0.0620
   51MOL   C14736247   5.170   5.284   2.640 -0.1175 -1.0534  0.4533
   51MOL   C14836248   5.280   5.226   2.727  0.2545 -0.1945 -0.5536
   51MOL   C14936249   5.418   5.235   2.668  0.2645 -0.0942  0.4541
   51MOL   C15036250   5.531   5.132   2.714  0.7951 -0.7239  0.0184
   51MOL   C15136251   5.678   5.177   2.680  0.2218 -0.3606  0.8842
   51MOL   C15236252   5.785   5.074   2.735 -0.5161  0.9598 -0.0628
   51MOL   C15336253   5.927   5.109   2.681 -0.1017  0.1493 -0.0816
   51MOL   O15436254   5.986   5.219   2.746  0.2691 -0.0479  0.1050
   51MOL   C15536255   6.121   5.226   2.761 -0.0009  0.7423  0.7153
   51MOL   O15636256   6.201   5.146   2.713 -0.2136  0.1734 -0.1174
   51MOL   C15736257   6.175   5.348   2.834  0.2498 -0.6020 -0.1753
   51MOL   C15836258   6.327   5.376   2.812  0.3957  0.1924 -0.1984
   51MOL   C15936259   6.164   5.340   2.993  0.0719 -0.1601 -0.3893
   51MOL   H16036260   5.193   5.490   2.717  1.2793 -2.8026  1.3616
   51MOL   H16136261   5.075   5.488   2.592  1.9470  3.3248  0.9117
   51MOL   H16236262   5.239   5.464   2.549 -1.4382 -0.6686 -1.9310
   51MOL   H16336263   5.078   5.242   2.682  0.2365 -1.9598  0.3405
   51MOL   H16436264   5.181   5.248   2.538  0.4446  1.2079 -0.3141
   51MOL   H16536265   5.258   5.122   2.748 -2.0144  0.3330 -0.1785
   51MOL   H16636266   5.289   5.278   2.823 -2.9224 -0.0930 -0.2604
   51MOL   H16736267   5.419   5.241   2.560  1.8337 -1.9372  0.3249
   51MOL   H16836268   5.453   5.334   2.697 -1.6676  0.7816 -0.1738
   51MOL   H16936269   5.507   5.037   2.667 -1.4194 -0.9345  1.4671
   51MOL   H17036270   5.516   5.124   2.822 -1.3337 -0.8483 -0.2567
   51MOL   H17136271   5.700   5.274   2.723  1.0015 -0.7917  1.4727
   51MOL   H17236272   5.678   5.198   2.573  0.3050  2.6962  1.4373
   51MOL   H17336273   5.775   5.073   2.843  1.6182  0.6020  0.1588
   51MOL   H17436274   5.772   4.969   2.710  2.6864  0.9066 -1.8862
   51MOL   H17536275   5.992   5.023   2.689 -2.1199 -1.5669 -1.6467
   51MOL   H17636276   5.935   5.137   2.576  2.4296 -1.2080 -0.2859
   51MOL   H17736277   6.351   5.388   2.707  0.3504 -0.0733 -0.2389
   51MOL   H17836278   6.376   5.280   2.830 -1.4299 -0.7638 -0.2146
   51MOL   H17936279   6.375   5.459   2.865 -1.5592  0.6034  0.9908
   51MOL   H18036280   6.210   5.436   3.017  1.6393 -0.9008 -0.3276
   51MOL   H18136281   6.251   5.278   3.012 -0.7698 -1.5138 -0.8728
   51MOL   C18236282   5.072   4.952   2.913 -0.0718  0.0579 -0.0249
   51MOL   C18336283   5.090   5.058   3.020 -0.4432  0.1495 -0.0998
   51MOL   C18436284   5.201   5.031   3.120  0.7588  0.1138 -0.1369
   51MOL   C18536285   5.340   5.022   3.054 -0.0599 -0.4567 -0.3573
   51MOL   C18636286   5.450   4.988   3.157 -0.5595 -0.0432  0.0283
   51MOL   C18736287   5.589   4.999   3.099 -0.1913 -0.8161 -0.0795
   51MOL   C18836288   5.702   4.952   3.191 -0.7089 -0.3812 -0.3128
   51MOL   C18936289   5.839   4.978   3.131  0.4710  0.3213  0.3155
   51MOL   O19036290   5.887   5.108   3.139 -0.2410 -0.0064 -0.7059
   51MOL   C19136291   5.994   5.148   3.062 -0.5171  0.3231 -0.1820
   51MOL   O19236292   6.060   5.063   3.003  0.4416 -0.1542  0.1176
   51MOL   C19336293   6.045   5.295   3.081 -0.6957  0.1207  0.4215
   51MOL   C19436294   5.919   5.378   3.066  0.8179  0.0806  0.1563
   51MOL   C19536295   6.082   5.327   3.228 -0.6175 -0.1993 -0.5154
   51MOL   H19636296   5.155   4.940   2.843  0.9710  3.1854  0.5651
   51MOL   H19736297   5.059   4.858   2.966  0.4879  1.2299  2.2354
   51MOL   H19836298   4.974   4.964   2.867  0.1493 -1.3542 -0.9044
   51MOL   H19936299   5.005   5.067   3.087 -0.0398 -1.2954  0.6229
   51MOL   H20036300   5.093   5.159   2.980  0.9904  0.4311  0.6455
   51MOL   H20136301   5.198   5.114   3.190  0.6565 -0.1622  0.1847
   51MOL   H20236302   5.180   4.942   3.181 -0.6740  1.4112  1.3145
   51MOL   H20336303   5.341   4.950   2.972  0.2340 -0.7456 -0.0981
   51MOL   H20436304   5.349   5.120   3.009  2.1747 -1.1224 -1.4304
   51MOL   H20536305   5.421   4.888   3.188  2.0072 -1.1512 -0.9493
   51MOL   H20636306   5.442   5.052   3.244  2.1810  1.5114 -0.7675
   51MOL   H20736307   5.609   5.100   3.064 -0.1048 -0.6994  0.2959
   51MOL   H20836308   5.597   4.936   3.011 -1.0083 -1.3066  0.1964
   51MOL   H20936309   5.694   5.000   3.288  1.2221 -0.6079 -0.0201
   51MOL   H21036310   5.689   4.846   3.213 -0.8881 -0.5136 -1.0463
   51MOL   H21136311   5.850   4.926   3.035  2.7169 -0.9701  1.2281
   51MOL   H21236312   5.900   4.921   3.201  0.6407 -1.0478 -0.9199
   51MOL   H21336313   5.866   5.363   2.973  0.0067  1.0288  0.4520
   51MOL   H21436314   5.847   5.356   3.145  0.1176  0.9441 -0.2427
   51MOL   H21536315   5.944   5.484   3.072  0.6072  0.1739 -0.5833
   51MOL   H21636316   6.064   5.434   3.234 -1.7647 -0.3870 -0.5608
   51MOL   H21736317   6.006   5.288   3.296 -2.8047  0.2934 -2.6178
   51MOL   C21836318   6.085   6.198   3.138 -0.1296  0.1658 -0.3706
   51MOL   C21936319   6.232   6.249   3.114 -0.1917 -0.0695  0.1235
   51MOL   C22036320   6.334   6.181   3.194  0.0329  0.4528 -0.1915
   51MOL   C22136321   6.339   6.029   3.171 -0.6734  1.1820  0.3058
   51MOL   C22236322   6.441   5.966   3.267  0.3305 -0.1940  0.3245
   51MOL   C22336323   6.472   5.822   3.228 -0.7009 -0.4047  0.1147
   51MOL   C22436324   6.363   5.722   3.263 -0.3631  0.0178 -0.5003
   51MOL   C22536325   6.407   5.580   3.243 -0.4532  0.4787  0.2323
   51MOL   O22636326   6.307   5.498   3.280 -0.1134  0.6857 -0.3996
   51MOL   C22736327   6.338   5.367   3.269  0.7146 -0.0734 -0.1658
   51MOL   O22836328   6.441   5.310   3.236 -0.6357 -0.4622 -0.0367
   51MOL   C22936329   6.213   5.280   3.307 -0.4999 -0.7627 -0.1501
   51MOL   C23036330   6.249   5.132   3.275 -0.2176  0.0837  0.6504
   51MOL   C23136331   6.188   5.304   3.458 -0.3050  0.8585  0.5095
   51MOL   H23236332   6.011   6.255   3.081  1.3961  0.6144 -1.9343
   51MOL   H23336333   6.065   6.213   3.244  0.5659 -2.2537  0.1283
   51MOL   H23436334   6.077   6.092   3.115 -1.2507  0.1083  0.2349
   51MOL   H23536335   6.236   6.348   3.159 -0.4157 -0.5154  1.1360
   51MOL   H23636336   6.263   6.259   3.010  1.8924 -0.0767  0.7199
   51MOL   H23736337   6.431   6.221   3.163  1.4469 -2.1150  0.7663
   51MOL   H23836338   6.309   6.195   3.299 -0.3650  0.9195 -0.3444
   51MOL   H23936339   6.242   5.983   3.190  1.2093 -3.5043 -0.5168
   51MOL   H24036340   6.372   6.005   3.069  1.8656 -1.2965  1.6339
   51MOL   H24136341   6.537   6.018   3.267  0.3311 -0.1643 -0.9550
   51MOL   H24236342   6.421   5.967   3.374 -0.7237  0.2489  0.1270
   51MOL   H24336343   6.473   5.823   3.119 -0.3323 -0.0325  0.1181
   51MOL   H24436344   6.573   5.787   3.250 -0.0575  0.7034 -1.0017
   51MOL   H24536345   6.271   5.738   3.207  1.1787 -0.9823 -3.4624
   51MOL   H24636346   6.324   5.726   3.364  0.7688 -0.6888 -0.0207
   51MOL   H24736347   6.490   5.557   3.309 -1.6549 -2.0456  0.8973
   51MOL   H24836348   6.452   5.551   3.149  1.2902  1.5475  0.7305
   51MOL   H24936349   6.334   5.091   3.331  1.0632  0.7299 -0.7976
   51MOL   H25036350   6.290   5.107   3.177  1.8275 -2.6868  2.1272
   51MOL   H25136351   6.165   5.066   3.295 -1.5954  1.8516  0.7624
   51MOL   H25236352   6.273   5.359   3.500  0.8626  0.1688 -0.8812
   51MOL   H25336353   6.117   5.386   3.469 -2.2960 -0.4299 -2.1638
   51MOL   C25436354   7.086   5.322   4.054  0.1935 -0.3587  1.0155
   51MOL   C25536355   6.984   5.263   3.953  0.4035  0.1869  0.4253
   51MOL   C25636356   6.882   5.365   3.891 -0.4863  1.0440  0.3826
   51MOL   C25736357   6.762   5.298   3.826  0.0666  0.0053  0.2938
   51MOL   C25836358   6.793   5.201   3.711  0.4577  0.8386  0.4294
   51MOL   C25936359   6.675   5.159   3.623 -0.1856 -0.2057  0.2675
   51MOL   C26036360   6.581   5.069   3.698 -0.1907  0.0137 -0.5883
   51MOL   C26136361   6.467   5.037   3.614  0.1406 -0.4870 -0.2382
   51MOL   O26236362   6.370   5.135   3.612 -0.2959 -0.1131 -0.2136
   51MOL   C26336363   6.240   5.092   3.586 -0.3138 -0.3062  0.1401
   51MOL   O26436364   6.210   4.977   3.550  0.0230  0.1738  0.2236
   51MOL   C26536365   6.133   5.205   3.571  0.1214  0.4350 -0.5961
   51MOL   C26636366   5.997   5.153   3.522  0.1956 -0.1000  0.2447
   51MOL   C26736367   6.123   5.278   3.708 -0.1584 -0.3328 -0.5860
   51MOL   H26836368   7.026   5.353   4.139 -0.2058  0.8015  0.3219
   51MOL   H26936369   7.166   5.257   4.089 -0.8562 -1.1482  1.9983
   51MOL   H27036370   7.137   5.410   4.014 -1.3008  0.0189 -0.1343
   51MOL   H27136371   7.037   5.204   3.878  1.9145 -1.1752  2.5289
   51MOL   H27236372   6.924   5.183   3.997 -1.1187  0.9972 -0.1263
   51MOL   H27336373   6.925   5.440   3.824  1.0284  0.4847  0.7186
   51MOL   H27436374   6.848   5.435   3.968  1.5458  4.3009 -1.5453
   51MOL   H27536375   6.715   5.383   3.777  0.3864 -0.1719 -0.3226
   51MOL   H27636376   6.685   5.264   3.894  0.8360 -2.2833  0.0535
   51MOL   H27736377   6.875   5.241   3.651 -0.4111 -0.4282 -1.6242
   51MOL   H27836378   6.828   5.108   3.756  1.2383  0.4775 -0.9030
   51MOL   H27936379   6.707   5.114   3.529 -1.0516  1.2755 -0.7612
   51MOL   H28036380   6.634   5.250   3.579  0.5236 -0.2278 -0.4493
   51MOL   H28136381   6.636   4.975   3.708 -0.3655 -0.3283 -2.6719
   51MOL   H28236382   6.552   5.108   3.796  2.0429  0.2628  0.0059
   51MOL   H28336383   6.514   5.014   3.518  1.5926  1.9537 -0.1457
   51MOL   H28436384   6.421   4.946   3.653  0.9961 -0.7108  0.2643
   51MOL   H28536385   5.953   5.075   3.585 -0.1534 -1.5052 -1.6772
   51MOL   H28636386   5.929   5.238   3.530  0.9475  0.5996 -0.6873
   51MOL   H28736387   6.002   5.112   3.421 -0.5586 -0.7288  0.4595
   51MOL   H28836388   6.055   5.361   3.687 -0.3550  0.6529  3.5757
   51MOL   H28936389   6.219   5.325   3.727 -1.2034  1.5858  0.1432
   51MOL   C29036390   6.452   4.123   4.078 -0.1271 -0.2118  0.5714
   51MOL   C29136391   6.324   4.172   4.158 -0.1101 -0.0382 -0.2289
   51MOL   C29236392   6.234   4.274   4.088 -0.3177 -0.1845 -0.3224
   51MOL   C29336393   6.299   4.408   4.069 -0.2693  0.1655 -0.2994
   51MOL   C29436394   6.193   4.515   4.020 -0.0265  0.5023  0.3552
   51MOL   C29536395   6.264   4.655   3.989 -0.6310  0.0798  0.1721
   51MOL   C29636396   6.165   4.758   3.928 -0.1329 -0.0924 -0.3143
   51MOL   C29736397   6.239   4.896   3.918  0.7784  0.5631  0.2329
   51MOL   O29836398   6.163   5.004   3.864  0.3039 -0.1459 -0.2340
   51MOL   C29936399   6.184   5.125   3.903 -0.0768 -0.3047  0.1201
   51MOL   O30036400   6.263   5.159   3.992  0.6458 -0.4228  0.2787
   51MOL   C30136401   6.074   5.217   3.844  0.4617  0.2635  0.3459
   51MOL   C30236402   6.074   5.345   3.935 -0.9679 -0.7410  0.0354
   51MOL   C30336403   5.934   5.152   3.823  0.6166 -0.5279 -0.1304
   51MOL   H30436404   6.509   4.045   4.128 -2.1692 -0.7589  2.0805
   51MOL   H30536405   6.513   4.212   4.064 -0.9079  0.6757  2.6164
   51MOL   H30636406   6.427   4.088   3.978  0.5301 -0.5271  0.5149
   51MOL   H30736407   6.344   4.205   4.260 -0.1397  0.2150 -0.3046
   51MOL   H30836408   6.262   4.084   4.177  2.6347 -1.6538  1.6989
   51MOL   H30936409   6.132   4.284   4.124  0.0778  0.4476  0.6114
   51MOL   H31036410   6.216   4.233   3.988  0.6084  0.3585 -0.7194
   51MOL   H31136411   6.352   4.435   4.161  1.9986  0.9631 -1.7884
   51MOL   H31236412   6.374   4.397   3.991 -2.1724 -0.4769 -2.0596
   51MOL   H31336413   6.140   4.479   3.932  0.8406 -1.9567  0.7925
   51MOL   H31436414   6.125   4.520   4.106 -0.0126 -0.8002  0.4532
   51MOL   H31536415   6.354   4.640   3.930  0.5499  0.0986  1.9390
   51MOL   H31636416   6.304   4.683   4.087  1.6345 -0.3955 -0.5888
   51MOL   H31736417   6.078   4.780   3.990  0.7904 -0.8763  1.3115
   51MOL   H31836418   6.119   4.725   3.836 -2.2893 -2.9681  1.7037
   51MOL   H31936419   6.328   4.889   3.856 -0.0059  1.3507 -1.0029
   51MOL   H32036420   6.244   4.912   4.026  1.0373  2.4971 -0.0425
   51MOL   H32136421   6.174   5.390   3.941 -0.7912 -1.2287  0.7549
   51MOL   H32236422   6.056   5.319   4.039 -0.0293 -0.8573  0.1736
   51MOL   H32336423   6.017   5.430   3.899  0.1180  0.8285  1.9080
   51MOL   H32436424   5.884   5.214   3.748  1.2861 -2.0925 -1.9074
   51MOL   H32536425   5.959   5.053   3.786  1.1361 -1.5111  2.7163
   51MOL   C32636426   6.010   5.877   4.467 -0.5537  0.7030 -0.8942
   51MOL   C32736427   6.105   5.797   4.560 -0.1473 -0.8910  0.7966
   51MOL   C32836428   6.155   5.674   4.486 -0.2355  0.0400 -0.2818
   51MOL   C32936429   6.051   5.563   4.487 -0.2818  0.2976  0.2959
   51MOL   C33036430   6.110   5.444   4.419 -0.4937 -0.5270 -0.2121
   51MOL   C33136431   5.999   5.349   4.383 -0.5098  0.0805 -0.2501
   51MOL   C33236432   6.057   5.207   4.354 -0.1221 -0.5592  0.3419
   51MOL   C33336433   5.931   5.123   4.306 -0.1384  0.2877  0.4335
   51MOL   O33436434   5.902   5.158   4.172  0.3311  0.0317 -0.0420
   51MOL   C33536435   5.904   5.079   4.066  0.2220 -0.1693 -0.2469
   51MOL   O33636436   5.964   4.969   4.062  0.8068  0.5117 -0.0569
   51MOL   C33736437   5.833   5.137   3.936 -0.2104  0.9427  0.1284
   51MOL   C33836438   5.767   5.275   3.969  0.4755  0.0794  0.0715
   51MOL   C33936439   5.730   5.042   3.876  0.0016  0.1742  0.2672
   51MOL   H34036440   5.921   5.819   4.443 -0.2414 -0.1953  0.0935
   51MOL   H34136441   6.065   5.896   4.375 -0.1995 -1.0546 -1.0697
   51MOL   H34236442   5.976   5.966   4.519 -2.8806 -0.6404 -0.0077
   51MOL   H34336443   6.059   5.769   4.655  0.8189 -0.2864  1.4440
   51MOL   H34436444   6.192   5.860   4.576 -1.7482  1.4945  0.3843
   51MOL   H34536445   6.249   5.646   4.534  0.8140 -0.0690 -2.3191
   51MOL   H34636446   6.188   5.690   4.383  0.3436 -0.3735 -0.1667
   51MOL   H34736447   5.967   5.597   4.425 -0.1125 -1.8714 -1.1664
   51MOL   H34836448   6.021   5.530   4.587  1.0423 -0.7494  0.3583
   51MOL   H34936449   6.173   5.482   4.339  1.4466  1.0259  1.9639
   51MOL   H35036450   6.196   5.407   4.474 -1.0979  0.6782  1.6109
   51MOL   H35136451   5.929   5.331   4.465 -0.8908  0.9827 -0.3680
   51MOL   H35236452   5.941   5.389   4.300 -2.9368  1.0142  1.8200
   51MOL   H35336453   6.080   5.164   4.451 -0.2571 -1.6892 -0.1167
   51MOL   H35436454   6.133   5.208   4.275  0.3927  1.2611  0.8319
   51MOL   H35536455   5.952   5.017   4.322 -1.7923  0.1287  1.6771
   51MOL   H35636456   5.849   5.137   4.377  0.1875 -1.2027  1.1391
   51MOL   H35736457   5.733   5.339   3.888  0.3240  0.1577  0.1966
   51MOL   H35836458   5.697   5.283   4.052 -2.2206  0.1048 -2.1196
   51MOL   H35936459   5.846   5.341   4.004  1.0248 -2.1123  3.2055
   51MOL   H36036460   5.677   5.097   3.798 -1.5847  0.4794  1.5175
   51MOL   H36136461   5.780   4.966   3.817 -0.7472  0.0298 -0.1989
   51MOL   C36236462   6.051   3.902   4.004  1.1390 -0.4850 -0.1759
   51MOL   C36336463   5.960   3.945   3.877 -0.0635  0.6171 -0.4516
   51MOL   C36436464   5.963   4.095   3.859 -0.1880  0.4080  0.0546
   51MOL   C36536465   5.847   4.140   3.767 -0.1192 -0.2583 -0.4652
   51MOL   C36636466   5.863   4.295   3.743 -0.1309 -0.4250  0.2996
   51MOL   C36736467   5.816   4.369   3.869 -0.6259  0.6217 -0.2273
   51MOL   C36836468   5.799   4.522   3.849  0.2487  0.0726 -0.4746
   51MOL   C36936469   5.768   4.614   3.966 -0.0344 -0.5972  0.2583
   51MOL   O37036470   5.716   4.742   3.921 -0.1008 -0.7173  0.2276
   51MOL   C37136471   5.674   4.830   4.007 -0.5877  0.3833 -0.4461
   51MOL   O37236472   5.667   4.803   4.127 -0.3582 -1.0053 -0.2025
   51MOL   C37336473   5.617   4.966   3.956 -0.8348 -0.0312  0.0415
   51MOL   C37436474   5.507   4.934   3.849 -0.2339  0.3996  0.2392
   51MOL   C37536475   5.545   5.058   4.067  0.4030 -0.8178  0.1060
   51MOL   H37636476   6.013   3.935   4.100  1.1924  1.8200 -0.9049
   51MOL   H37736477   6.064   3.794   4.001  0.8235 -0.5191 -0.3091
   51MOL   H37836478   6.148   3.947   3.981 -0.1272  1.8212 -1.2008
   51MOL   H37936479   5.855   3.923   3.895 -0.3257  0.6534 -1.8873
   51MOL   H38036480   5.986   3.899   3.782 -2.3493  0.1858 -0.8896
   51MOL   H38136481   6.054   4.124   3.807 -0.5218  0.5832 -0.4399
   51MOL   H38236482   5.960   4.146   3.955  1.1886 -1.0435  0.8738
   51MOL   H38336483   5.753   4.109   3.813  1.8820 -0.5248  3.7132
   51MOL   H38436484   5.844   4.086   3.673 -0.4454  0.7788 -1.0621
   51MOL   H38536485   5.967   4.310   3.713 -1.3537  1.7630 -3.1939
   51MOL   H38636486   5.799   4.328   3.661 -0.0614  1.0768  0.8285
   51MOL   H38736487   5.887   4.357   3.951  0.9665  1.8710 -1.4038
   51MOL   H38836488   5.718   4.334   3.903  0.2017 -1.6740 -0.1317
   51MOL   H38936489   5.723   4.543   3.773 -1.2765  0.2963  1.0839
   51MOL   H39036490   5.892   4.565   3.812  0.6318 -0.0913  0.2824
   51MOL   H39136491   5.697   4.554   4.022  0.3327 -0.9588  0.3458
   51MOL   H39236492   5.849   4.618   4.040 -0.2613 -1.0497  0.5348
   51MOL   H39336493   5.461   5.025   3.810 -1.8454 -0.8393 -0.8161
   51MOL   H39436494   5.557   4.871   3.775 -0.7449 -0.1412  0.3496
   51MOL   H39536495   5.430   4.866   3.885  0.9250 -1.4500 -0.7309
   51MOL   H39636496   5.624   5.073   4.141  0.5548  0.0548 -0.2237
   51MOL   H39736497   5.536   5.158   4.025  2.0027 -0.2287  1.0794
   51MOL   C39836498   5.889   5.385   5.136 -0.2908  0.0767 -0.4585
   51MOL   C39936499   5.831   5.463   5.010 -0.8195 -0.2790 -0.1994
   51MOL   C40036500   5.763   5.372   4.902  0.2292  0.4563 -0.2411
   51MOL   C40136501   5.700   5.454   4.783 -0.1112 -0.3120 -0.2735
   51MOL   C40236502   5.629   5.364   4.683  0.0575  0.2136 -0.3203
   51MOL   C40336503   5.601   5.427   4.543 -0.0707  0.6411 -0.0261
   51MOL   C40436504   5.582   5.323   4.426 -0.3026 -0.0053  0.2989
   51MOL   C40536505   5.483   5.207   4.455  0.6984  0.2917  0.5112
   51MOL   O40636506   5.474   5.120   4.339  0.1914  0.3568 -0.6538
   51MOL   C40736507   5.397   5.147   4.238 -0.2313  0.3784  0.5924
   51MOL   O40836508   5.330   5.250   4.228  0.7293  0.6582 -0.2930
   51MOL   C40936509   5.397   5.034   4.124 -0.1613  0.2198 -0.0245
   51MOL   C41036510   5.288   5.078   4.027  0.1631 -0.0370  0.0065
   51MOL   C41136511   5.368   4.889   4.184  0.1046  0.1410  0.7717
   51MOL   H41236512   5.950   5.448   5.201 -1.4268 -0.4745  1.1833
   51MOL   H41336513   5.953   5.301   5.109 -0.1818  0.7198 -2.3039
   51MOL   H41436514   5.803   5.352   5.194  1.0849 -1.6912  0.6430
   51MOL   H41536515   5.906   5.517   4.952  0.1900  1.0911  2.2935
   51MOL   H41636516   5.764   5.538   5.051  0.0888 -0.3211  1.4475
   51MOL   H41736517   5.825   5.290   4.866 -0.3252  0.6084 -1.5634
   51MOL   H41836518   5.693   5.306   4.954  0.8044  0.5800  0.6855
   51MOL   H41936519   5.775   5.511   4.728 -0.1182  0.2943  0.3505
   51MOL   H42036520   5.627   5.520   4.829  0.8295 -0.1526  1.0143
   51MOL   H42136521   5.683   5.270   4.686  1.9082  1.2847  1.6159
   51MOL   H42236522   5.533   5.337   4.725  0.7764 -1.1752  0.4550
   51MOL   H42336523   5.677   5.497   4.510 -1.9404  1.9580 -1.6422
   51MOL   H42436524   5.519   5.498   4.556  2.2541  3.1136  1.4293
   51MOL   H42536525   5.556   5.375   4.334 -4.4404 -1.8042  0.3319
   51MOL   H42636526   5.679   5.286   4.392  0.0152  0.1150  1.0676
   51MOL   H42736527   5.509   5.156   4.548 -0.4604 -2.2067 -0.4833
   51MOL   H42836528   5.387   5.256   4.472  0.0824 -0.4789 -0.6788
   51MOL   H42936529   5.199   5.115   4.079  0.2482  2.2480 -1.4395
   51MOL   H43036530   5.245   4.999   3.965 -0.3317 -0.2812  0.6417
   51MOL   H43136531   5.321   5.161   3.966  0.8909 -0.1698  0.2230
   51MOL   H43236532   5.454   4.873   4.249 -0.3390 -0.3507  1.2403
   51MOL   H43336533   5.379   4.819   4.101  0.9823  0.6481  0.4606
   51MOL   C43436534   4.585   5.721   4.872  0.0044  0.2997  0.1546
   51MOL   C43536535   4.672   5.587   4.871 -0.7189  0.3293 -0.1150
   51MOL   C43636536   4.774   5.581   4.752 -0.5043  0.0047 -0.1380
   51MOL   C43736537   4.840   5.448   4.748 -0.7860 -0.0132  0.1647
   51MOL   C43836538   4.903   5.414   4.614  0.6002  0.2996  1.5109
   51MOL   C43936539   4.973   5.275   4.620  0.4669 -0.1814  0.7166
   51MOL   C44036540   5.051   5.238   4.488 -0.3907  0.5968  0.6278
   51MOL   C44136541   5.122   5.106   4.493 -0.3190 -0.5058  0.0065
   51MOL   O44236542   5.158   5.042   4.369  0.4360 -0.2049  0.1036
   51MOL   C44336543   5.213   4.919   4.382 -0.1154 -0.3981  0.4401
   51MOL   O44436544   5.245   4.874   4.496 -0.0452  0.1692  0.3923
   51MOL   C44536545   5.229   4.837   4.253 -0.3036 -0.4248 -0.0137
   51MOL   C44636546   5.266   4.691   4.295 -0.1233  0.4655 -0.3374
   51MOL   C44736547   5.092   4.840   4.160 -0.0070 -0.2662 -0.1234
   51MOL   H44836548   4.514   5.687   4.948  0.2630 -1.0125 -0.1704
   51MOL   H44936549   4.521   5.739   4.786 -1.5009  1.3242  1.4402
   51MOL   H45036550   4.644   5.803   4.913  2.9800 -2.3480  1.4853
   51MOL   H45136551   4.602   5.505   4.857 -0.4967  0.4654 -2.2327
   51MOL   H45236552   4.722   5.571   4.966 -1.3764  0.8903  0.3319
   51MOL   H45336553   4.854   5.654   4.759  0.4934 -0.8465 -2.3452
   51MOL   H45436554   4.728   5.591   4.654 -0.3503  0.4963 -0.1577
   51MOL   H45536555   4.771   5.365   4.765  0.1039 -0.5342  1.2695
   51MOL   H45636556   4.914   5.454   4.827 -1.4965 -1.1623  0.9376
   51MOL   H45736557   4.831   5.412   4.533 -0.7580  0.4860  2.6980
   51MOL   H45836558   4.970   5.494   4.584 -0.6566  0.4592 -0.9989
   51MOL   H45936559   4.906   5.195   4.653  1.3816 -0.6256  1.5303
   51MOL   H46036560   5.047   5.261   4.699 -0.2516 -3.0901  0.9501
   51MOL   H46136561   4.980   5.230   4.406 -2.6040 -2.3725  2.7319
   51MOL   H46236562   5.129   5.307   4.457 -0.6218  0.5182 -0.1431
   51MOL   H46336563   5.056   5.037   4.546 -0.6940  1.1470  1.7540
   51MOL   H46436564   5.214   5.111   4.551 -0.4950  1.0229  0.1810
   51MOL   H46536565   5.257   4.623   4.210  1.7752  0.0242 -0.2031
   51MOL   H46636566   5.358   4.682   4.353 -0.3484  3.3187  0.5711
   51MOL   H46736567   5.190   4.653   4.363  0.6277 -2.1561 -0.9066
   51MOL   H46836568   5.059   4.943   4.144  0.5591 -0.1703 -0.6985
   51MOL   H46936569   5.128   4.808   4.062 -1.3094  0.0565 -0.7217
   51MOL   C47036570   5.624   4.524   4.832 -0.7018  0.2952  0.3476
   51MOL   C47136571   5.472   4.539   4.797  0.6066  0.3297  1.1471
   51MOL   C47236572   5.415   4.431   4.710  0.3647  0.5735 -0.5611
   51MOL   C47336573   5.278   4.460   4.652  0.0486  0.6538  0.1742
   51MOL   C47436574   5.253   4.392   4.520  0.6424  0.2800  1.3888
   51MOL   C47536575   5.108   4.409   4.471  0.5026 -0.1453  0.4972
   51MOL   C47636576   5.088   4.365   4.324 -0.1411  0.0762 -0.1097
   51MOL   C47736577   4.943   4.388   4.272  0.3103 -0.5654 -0.3944
   51MOL   O47836578   4.910   4.531   4.249 -0.3643  0.8444  0.0380
   51MOL   C47936579   4.976   4.608   4.164  0.3086 -0.0370  0.0048
   51MOL   O48036580   5.032   4.564   4.063  0.5200 -0.6273 -0.3757
   51MOL   C48136581   4.959   4.756   4.199 -0.1365 -0.5934 -0.1954
   51MOL   C48236582   4.929   4.775   4.350 -0.0044  0.0291  0.0147
   51MOL   C48336583   4.829   4.811   4.130 -0.3656  0.1729 -0.1432
   51MOL   H48436584   5.696   4.506   4.752  0.1506  0.2230  1.1294
   51MOL   H48536585   5.642   4.441   4.900  2.5979  0.0710 -0.7196
   51MOL   H48636586   5.652   4.610   4.892  2.1366  0.4148 -1.0634
   51MOL   H48736587   5.423   4.533   4.894  0.3446  2.0601  1.1411
   51MOL   H48836588   5.452   4.638   4.757 -2.9770 -0.5827  0.5444
   51MOL   H48936589   5.479   4.403   4.626 -0.6605 -1.2446 -0.7591
   51MOL   H49036590   5.412   4.335   4.761  0.2265  2.3068  2.8010
   51MOL   H49136591   5.204   4.431   4.727  0.0996  1.3294  0.4934
   51MOL   H49236592   5.266   4.568   4.639  1.4753  0.6812 -1.0584
   51MOL   H49336593   5.319   4.435   4.446 -0.1464  0.7305  0.9415
   51MOL   H49436594   5.287   4.289   4.513 -1.5315 -0.4369  1.0532
   51MOL   H49536595   5.034   4.359   4.534 -0.2352  1.0272  0.5845
   51MOL   H49636596   5.075   4.511   4.490  0.5215  0.2464 -1.4940
   51MOL   H49736597   5.163   4.417   4.265  0.4270 -2.4665 -1.6974
   51MOL   H49836598   5.111   4.258   4.324 -0.9880 -0.1312 -2.1164
   51MOL   H49936599   4.871   4.342   4.339 -0.6847 -0.1633 -1.1724
   51MOL   H50036600   4.943   4.334   4.177  1.1066 -2.7883  0.8290
   51MOL   H50136601   4.933   4.879   4.382  1.8173 -0.5899  1.9502
   51MOL   H50236602   5.001   4.723   4.413 -0.2366  1.8126  1.7857
   51MOL   H50336603   4.828   4.753   4.384  0.1833 -0.0351  0.5420
   51MOL   H50436604   4.757   4.735   4.161  0.3009 -0.3644  0.0754
   51MOL   H50536605   4.795   4.895   4.190  1.2296  0.8684 -0.2017
   51MOL   C50636606   4.360   5.442   4.553  0.5873 -0.7561  0.0204
   51MOL   C50736607   4.364   5.565   4.457  0.0288 -0.6785 -0.0268
   51MOL   C50836608   4.493   5.568   4.370  0.4155  0.5364 -0.0914
   51MOL   C50936609   4.505   5.446   4.272 -0.1160 -0.0247 -0.6526
   51MOL   C51036610   4.649   5.453   4.210 -0.3037  0.9295  0.2290
   51MOL   C51136611   4.677   5.342   4.104  0.0479 -0.4972  0.0126
   51MOL   C51236612   4.831   5.319   4.091  1.2264 -0.5794  0.4854
   51MOL   C51336613   4.869   5.213   3.989  0.3368 -0.1899  0.0591
   51MOL   O51436614   4.812   5.083   4.016 -0.1461  0.4367 -0.5123
   51MOL   C51536615   4.873   4.982   3.945 -0.1868  0.0876 -0.1598
   51MOL   O51636616   4.966   4.987   3.867 -0.6175 -0.5244  0.3698
   51MOL   C51736617   4.799   4.855   3.980 -0.1350  0.4938  0.4647
   51MOL   C51836618   4.855   4.741   3.901 -0.3686 -0.1845 -0.0119
   51MOL   C51936619   4.639   4.877   3.984  0.4144 -0.3732 -0.2655
   51MOL   H52036620   4.455   5.432   4.605  1.3364  0.8430 -0.9958
   51MOL   H52136621   4.351   5.349   4.498 -0.4144  0.3895 -1.7921
   51MOL   H52236622   4.290   5.442   4.637  0.4971 -2.1708 -0.0484
   51MOL   H52336623   4.355   5.660   4.510 -0.5322 -1.2972  0.9817
   51MOL   H52436624   4.280   5.554   4.388 -2.6735  3.4060  2.4019
   51MOL   H52536625   4.494   5.660   4.311 -2.1647  0.8130  0.2397
   51MOL   H52636626   4.582   5.577   4.431  0.1438  1.0380  0.2372
   51MOL   H52736627   4.490   5.354   4.329 -0.0529  1.2464  1.4616
   51MOL   H52836628   4.427   5.452   4.197 -1.2676  0.9890  0.5892
   51MOL   H52936629   4.668   5.551   4.166  0.0707  0.1930 -1.2571
   51MOL   H53036630   4.726   5.441   4.286 -0.4636  1.6404  0.5122
   51MOL   H53136631   4.640   5.382   4.009  1.6535  1.0295  0.0088
   51MOL   H53236632   4.628   5.249   4.132 -0.7250 -0.5215 -1.3860
   51MOL   H53336633   4.869   5.276   4.184  0.4051 -1.6158  0.3596
   51MOL   H53436634   4.884   5.410   4.067  1.0128 -0.5659  0.0547
   51MOL   H53536635   4.977   5.215   3.978  0.4205 -1.5422  0.4778
   51MOL   H53636636   4.836   5.251   3.892 -0.8325  0.9289  0.8745
   51MOL   H53736637   4.963   4.724   3.894 -0.5577 -1.5700  0.1768
   51MOL   H53836638   4.834   4.766   3.797  1.0126  1.2590  0.0307
   51MOL   H53936639   4.811   4.647   3.935  1.8272 -0.3840  2.4430
   51MOL   H54036640   4.593   4.786   4.023 -2.6303  1.5285  0.6911
   51MOL   H54136641   4.623   4.936   4.074  2.8460 -1.7188  1.1070
   51MOL   C54236642   4.624   4.195   4.303 -0.5072 -0.5850  0.6030
   51MOL   C54336643   4.592   4.262   4.172 -0.0175  0.2803  0.3455
   51MOL   C54436644   4.651   4.183   4.060 -1.1870 -0.5140 -0.2549
   51MOL   C54536645   4.700   4.271   3.939 -0.8921 -0.4723  0.0739
   51MOL   C54636646   4.585   4.324   3.857  0.3134  0.2663  1.0094
   51MOL   C54736647   4.630   4.452   3.794 -0.1032  0.3143 -0.4377
   51MOL   C54836648   4.532   4.501   3.688  0.2726  0.0166  0.1338
   51MOL   C54936649   4.551   4.641   3.627  0.1964 -0.1262 -0.4236
   51MOL   O55036650   4.533   4.733   3.739  0.2630  0.7610  0.8694
   51MOL   C55136651   4.582   4.853   3.734  0.4245 -0.2727  0.3856
   51MOL   O55236652   4.657   4.895   3.645  0.5787 -1.0987 -0.0880
   51MOL   C55336653   4.554   4.932   3.867 -0.3909  0.2078  0.1870
   51MOL   C55436654   4.589   5.077   3.824  0.5571 -0.3504  0.2207
   51MOL   C55536655   4.404   4.915   3.903 -1.0994 -0.5392 -0.2329
   51MOL   H55636656   4.586   4.250   4.390 -0.9703 -0.5203  0.3612
   51MOL   H55736657   4.729   4.173   4.320 -0.0434  0.3684 -0.9346
   51MOL   H55836658   4.581   4.095   4.303  2.5571 -1.9445 -0.0626
   51MOL   H55936659   4.485   4.277   4.156 -0.2138 -1.3767 -0.0041
   51MOL   H56036660   4.632   4.363   4.172  1.5919 -0.3448  1.6414
   51MOL   H56136661   4.578   4.111   4.024 -2.7624  1.4649 -1.1532
   51MOL   H56236662   4.750   4.144   4.083  0.0616  2.2452 -0.7271
   51MOL   H56336663   4.754   4.359   3.975  0.8497 -2.0554  1.4004
   51MOL   H56436664   4.774   4.219   3.880 -0.2008 -0.2857  0.7684
   51MOL   H56536665   4.487   4.345   3.900 -1.2607  1.6603 -3.0509
   51MOL   H56636666   4.564   4.253   3.777  0.7744 -0.3892  1.4538
   51MOL   H56736667   4.626   4.524   3.876  0.4011 -2.4087  2.0112
   51MOL   H56836668   4.726   4.455   3.741  0.2769  2.1793  0.2819
   51MOL   H56936669   4.537   4.427   3.608 -0.1917 -0.3845  0.4669
   51MOL   H57036670   4.428   4.487   3.719  0.4776 -0.0114  0.8340
   51MOL   H57136671   4.479   4.662   3.548 -0.6071  0.2165  0.3853
   51MOL   H57236672   4.652   4.653   3.588 -0.1778 -1.0853 -1.7185
   51MOL   H57336673   4.687   5.081   3.776  0.4639 -2.4837 -0.1977
   51MOL   H57436674   4.593   5.146   3.908 -1.2525 -0.2250  0.2258
   51MOL   H57536675   4.535   5.126   3.742  2.6668 -0.9125 -1.5574
   51MOL   H57636676   4.386   4.818   3.949 -1.3119 -1.2361 -1.7595
   51MOL   H57736677   4.352   4.912   3.808 -0.0480  1.3376 -0.9014
   51MOL   C57836678   4.743   5.000   3.104 -0.1174  0.1088 -0.5610
   51MOL   C57936679   4.663   4.921   3.203 -0.2085  0.4937 -0.7817
   51MOL   C58036680   4.538   5.003   3.248 -0.4281  0.2243 -0.1269
   51MOL   C58136681   4.432   4.921   3.321 -0.4694 -0.1821 -0.1100
   51MOL   C58236682   4.309   5.002   3.372  0.1025  0.0551 -0.3741
   51MOL   C58336683   4.326   5.083   3.507 -0.3963 -0.2627  0.2216
   51MOL   C58436684   4.206   5.155   3.561  1.0048 -0.5310 -0.1911
   51MOL   C58536685   4.232   5.221   3.698 -0.1823 -0.3986 -0.4413
   51MOL   O58636686   4.244   5.120   3.796 -0.0731 -0.0704 -0.4722
   51MOL   C58736687   4.298   5.146   3.917  0.2308 -0.0276 -0.3438
   51MOL   O58836688   4.327   5.256   3.965  0.6450 -0.7221  0.0840
   51MOL   C58936689   4.326   5.014   3.997  0.2200  0.1473  0.2555
   51MOL   C59036690   4.384   5.052   4.138 -0.1688  0.3410 -0.3120
   51MOL   C59136691   4.178   4.955   4.027 -0.1179 -0.2072 -0.2842
   51MOL   H59236692   4.677   5.045   3.031 -0.6528  1.6690  0.8578
   51MOL   H59336693   4.821   4.936   3.062  2.0847  2.0462  0.4745
   51MOL   H59436694   4.791   5.084   3.154  1.1029 -1.1984  0.5444
   51MOL   H59536695   4.720   4.890   3.290  0.1005  2.2375 -0.3416
   51MOL   H59636696   4.632   4.829   3.153 -2.4377  1.7321 -1.7343
   51MOL   H59736697   4.483   5.040   3.162 -1.4289 -0.3501  0.2536
   51MOL   H59836698   4.586   5.084   3.303 -1.0204  0.7769 -0.4286
   51MOL   H59936699   4.474   4.859   3.401 -3.0282 -0.8831  0.7273
   51MOL   H60036700   4.404   4.849   3.245 -1.5493 -0.9092  0.9655
   51MOL   H60136701   4.233   4.923   3.380  1.0120 -1.0656 -2.3040
   51MOL   H60236702   4.267   5.056   3.287 -1.1941 -2.8125 -1.6509
   51MOL   H60336703   4.395   5.165   3.486 -1.1066 -0.1277 -1.6529
   51MOL   H60436704   4.371   5.023   3.586  1.5447  0.9416  0.0559
   51MOL   H60536705   4.130   5.081   3.586  1.8275 -1.1963  0.3952
   51MOL   H60636706   4.170   5.230   3.491  2.2438  2.0778  1.8750
   51MOL   H60736707   4.324   5.279   3.701 -0.1371 -0.4514 -0.9117
   51MOL   H60836708   4.149   5.283   3.730  0.9118  0.2662  1.2362
   51MOL   H60936709   4.433   4.973   4.195  2.4860 -0.1402 -3.1672
   51MOL   H61036710   4.465   5.125   4.129 -0.8290  1.1158 -0.0286
   51MOL   H61136711   4.306   5.104   4.194 -0.3440  0.1440 -0.3721
   51MOL   H61236712   4.123   4.950   3.933 -1.9815 -1.6737  0.8430
   51MOL   H61336713   4.119   5.030   4.080 -1.1189 -0.8148 -0.5110
   51MOL   C61436714   4.193   4.288   3.331 -0.3031 -0.2102  0.0333
   51MOL   C61536715   4.197   4.383   3.205  0.6663 -0.6697 -0.3597
   51MOL   C61636716   4.233   4.530   3.233 -0.6356  0.4413  0.0106
   51MOL   C61736717   4.125   4.619   3.300 -0.8296  0.4457 -0.1380
   51MOL   C61836718   4.150   4.635   3.449 -0.3236 -0.0118 -0.2606
   51MOL   C61936719   4.043   4.726   3.515  0.1872  0.6644 -0.5443
   51MOL   C62036720   4.076   4.772   3.656 -0.5723 -0.3651  0.2983
   51MOL   C62136721   4.068   4.656   3.758 -0.2165 -0.1705 -0.3723
   51MOL   O62236722   4.064   4.719   3.889  0.1066  0.1792 -0.2666
   51MOL   C62336723   4.161   4.700   3.978 -0.6743 -0.2524 -0.4068
   51MOL   O62436724   4.245   4.608   3.977 -0.4504  0.1314  0.0906
   51MOL   C62536725   4.155   4.806   4.090  0.0333  0.2409 -0.0476
   51MOL   C62636726   4.261   4.780   4.202  0.1156 -0.1225 -0.9041
   51MOL   C62736727   4.014   4.820   4.148  0.0331  0.3488 -0.7668
   51MOL   H62836728   4.295   4.257   3.353  1.0280  2.3118 -2.2258
   51MOL   H62936729   4.145   4.196   3.298  0.0791 -0.7360  0.9383
   51MOL   H63036730   4.126   4.324   3.409  2.1917  0.2647  2.0223
   51MOL   H63136731   4.269   4.339   3.136 -0.8607 -1.7193 -1.3414
   51MOL   H63236732   4.095   4.382   3.167 -0.5091  3.6227  2.3383
   51MOL   H63336733   4.259   4.582   3.141  0.9689 -0.5821 -0.1305
   51MOL   H63436734   4.329   4.520   3.284 -0.3699  1.0827 -0.3604
   51MOL   H63536735   4.025   4.576   3.292 -0.7902  0.7077 -2.7682
   51MOL   H63636736   4.128   4.720   3.259 -0.5639 -0.0244 -1.3152
   51MOL   H63736737   4.157   4.541   3.505 -0.2450 -0.5440 -1.1579
   51MOL   H63836738   4.247   4.684   3.460 -1.2867  1.8978 -0.2798
   51MOL   H63936739   4.006   4.801   3.445 -1.8998 -0.0690 -0.2554
   51MOL   H64036740   3.956   4.663   3.533 -0.1262  0.7723 -1.6852
   51MOL   H64136741   4.008   4.852   3.687 -0.0046 -0.9729  3.2532
   51MOL   H64236742   4.174   4.817   3.649 -0.8444 -0.0074 -1.5208
   51MOL   H64336743   3.986   4.586   3.754 -0.4201 -0.0045  0.7888
   51MOL   H64436744   4.149   4.584   3.748  0.1482 -0.0864  1.6387
   51MOL   H64536745   4.235   4.688   4.255 -0.8801  0.3300 -0.5941
   51MOL   H64636746   4.262   4.859   4.277  2.0821  0.3141 -1.3610
   51MOL   H64736747   4.363   4.764   4.167  0.9009  0.1189  1.1772
   51MOL   H64836748   3.947   4.830   4.063  1.1847 -0.1410 -1.7484
   51MOL   H64936749   4.003   4.916   4.198  1.8785  1.2768 -2.0807
   51MOL   C65036750   4.705   5.138   4.976  0.3855 -0.6744 -0.4915
   51MOL   C65136751   4.561   5.104   4.956  0.1706 -0.2430  0.8977
   51MOL   C65236752   4.469   5.211   4.882 -0.4149 -0.5537  0.5257
   51MOL   C65336753   4.323   5.166   4.848 -0.5342 -0.4128  0.0345
   51MOL   C65436754   4.318   5.057   4.734 -0.2336 -0.7721 -0.8407
   51MOL   C65536755   4.178   4.998   4.711  0.3784  0.2081 -0.0180
   51MOL   C65636756   4.170   4.901   4.591 -0.5253  0.1978  0.1723
   51MOL   C65736757   4.027   4.848   4.582 -0.0889 -0.6184  0.1841
   51MOL   O65836758   3.985   4.834   4.453 -0.4112 -0.3127  0.6029
   51MOL   C65936759   3.997   4.714   4.380  0.1045  0.7846  0.0882
   51MOL   O66036760   4.055   4.619   4.431  0.2116 -0.5151  0.0698
   51MOL   C66136761   3.938   4.710   4.239  0.1472 -0.7248  0.3600
   51MOL   C66236762   3.956   4.570   4.171 -0.0574 -0.2075  0.1859
   51MOL   C66336763   3.787   4.757   4.241  0.8635 -0.1927 -0.3489
   51MOL   H66436764   4.752   5.156   4.879  1.6772 -0.4516  0.1781
   51MOL   H66536765   4.774   5.071   5.027 -0.1296 -1.1389 -0.3978
   51MOL   H66636766   4.708   5.236   5.024 -1.1969 -1.0606  0.4334
   51MOL   H66736767   4.528   5.095   5.059  2.7237  2.1314  1.9862
   51MOL   H66836768   4.557   5.004   4.911  2.4129 -0.0339  0.1611
   51MOL   H66936769   4.518   5.239   4.789 -1.0119 -2.9880 -0.5495
   51MOL   H67036770   4.455   5.305   4.936 -0.8737 -0.7174  0.6987
   51MOL   H67136771   4.273   5.259   4.825  0.4303  0.2431  0.5529
   51MOL   H67236772   4.282   5.137   4.945 -1.2371  1.7524  0.4093
   51MOL   H67336773   4.388   4.976   4.758  2.3268  1.3525 -0.9769
   51MOL   H67436774   4.360   5.110   4.649  1.3512  1.0036  0.9851
   51MOL   H67536775   4.149   4.949   4.804 -0.3572 -0.7594 -0.7538
   51MOL   H67636776   4.114   5.085   4.699  1.8342  1.2971  0.0052
   51MOL   H67736777   4.247   4.828   4.612  0.9801  1.4192 -0.9794
   51MOL   H67836778   4.204   4.950   4.500 -0.3066 -1.1511 -0.4755
   51MOL   H67936779   3.957   4.919   4.627 -3.1356 -2.0473 -2.1547
   51MOL   H68036780   4.020   4.755   4.637 -2.9471 -0.1895  0.6245
   51MOL   H68136781   4.058   4.531   4.171 -0.7006 -1.9453 -0.5895
   51MOL   H68236782   3.939   4.565   4.064  2.3197 -1.3627 -0.1779
   51MOL   H68336783   3.898   4.500   4.231  1.1209  0.6733  2.4423
   51MOL   H68436784   3.784   4.863   4.264  2.3599 -0.2978  0.3914
   51MOL   H68536785   3.745   4.764   4.141 -2.3968 -0.4434  0.9392
   51MOL   C68636786   3.979   5.297   4.086  0.1903  0.2731  0.2320
   51MOL   C68736787   3.915   5.303   4.222  0.0007  0.2458 -1.0534
   51MOL   C68836788   4.000   5.254   4.332  0.2571  0.3043 -0.4000
   51MOL   C68936789   3.934   5.256   4.472 -0.4953 -0.4324 -0.1164
   51MOL   C69036790   3.823   5.162   4.482  0.7204 -0.1532 -0.0448
   51MOL   C69136791   3.753   5.152   4.621  0.3274 -0.0782 -0.3084
   51MOL   C69236792   3.624   5.071   4.629 -0.3179  0.6089  0.3190
   51MOL   C69336793   3.650   4.920   4.623  0.5518 -0.5744  1.0022
   51MOL   O69436794   3.646   4.868   4.498 -0.9512  0.1869  0.2349
   51MOL   C69536795   3.666   4.733   4.475  0.4934 -0.4025 -0.1071
   51MOL   O69636796   3.689   4.657   4.569  0.1479 -0.2016 -0.1142
   51MOL   C69736797   3.667   4.689   4.328  0.6532  0.0297  0.8448
   51MOL   C69836798   3.660   4.533   4.321  0.2273  0.2620 -1.3351
   51MOL   C69936799   3.537   4.752   4.270  0.3337 -0.1713 -0.1658
   51MOL   H70036800   3.966   5.202   4.034 -0.9632  1.0206 -0.8939
   51MOL   H70136801   4.085   5.321   4.086  0.4185 -0.5975 -1.8713
   51MOL   H70236802   3.920   5.366   4.026 -1.1271  0.1292  1.3237
   51MOL   H70336803   3.828   5.238   4.210 -1.4793  2.2580 -1.4361
   51MOL   H70436804   3.892   5.409   4.230 -2.1606 -0.2663 -0.3252
   51MOL   H70536805   4.091   5.312   4.345 -1.0061  1.6815  2.6861
   51MOL   H70636806   4.034   5.153   4.311  1.4565  0.6008  0.0731
   51MOL   H70736807   3.894   5.353   4.501 -2.2542 -1.1866  0.0243
   51MOL   H70836808   4.004   5.227   4.550 -0.2473  3.0153  1.0585
   51MOL   H70936809   3.850   5.059   4.459 -0.5409 -0.8467  1.4516
   51MOL   H71036810   3.749   5.189   4.406 -2.3449  0.2279  2.9378
   51MOL   H71136811   3.827   5.113   4.691 -0.3652 -0.6461  0.1108
   51MOL   H71236812   3.737   5.247   4.672 -1.1853 -1.4696  1.9159
   51MOL   H71336813   3.571   5.091   4.722  0.1666  1.6466  0.3834
   51MOL   H71436814   3.556   5.104   4.551  1.5768  0.1336 -1.5888
   51MOL   H71536815   3.580   4.875   4.693 -1.7148  1.1144 -0.0906
   51MOL   H71636816   3.749   4.898   4.663  1.2489  0.3810 -0.1446
   51MOL   H71736817   3.665   4.502   4.217  1.3342 -0.3886 -1.0973
   51MOL   H71836818   3.730   4.468   4.373 -0.9074 -0.6172 -0.8857
   51MOL   H71936819   3.565   4.504   4.367  0.0108  1.8565 -0.7427
   51MOL   H72036820   3.527   4.718   4.167 -0.8837  0.4501 -0.2511
   51MOL   H72136821   3.535   4.860   4.262 -1.4176 -0.2346 -0.7027
   51MOL   H72236822   3.444   4.723   4.318 -0.6726  1.8676 -0.8529
   52MOL     C136823   5.058   4.963   5.371 -0.5570 -0.1621 -0.0311
   52MOL     C236824   5.108   5.106   5.346  0.6637 -0.0593 -0.6133
   52MOL     C336825   5.018   5.214   5.394  0.1346  0.7512  0.0237
   52MOL     C436826   4.894   5.235   5.304 -0.1448 -0.1762  0.5818
   52MOL     C536827   4.789   5.325   5.368  0.7446  0.0057  0.4816
   52MOL     C636828   4.662   5.337   5.285 -0.4037 -0.1901  0.5108
   52MOL     C736829   4.553   5.429   5.353 -0.5782  0.2629  0.2655
   52MOL     C836830   4.422   5.438   5.270 -0.2027 -0.5562 -0.4553
   52MOL     O936831   4.324   5.525   5.340 -0.0351 -0.2203  0.0429
   52MOL    C1036832   4.256   5.479   5.447 -0.2078  0.2092  0.1740
   52MOL    O1136833   4.268   5.368   5.497  0.3554  0.1186 -0.4420
   52MOL    C1236834   4.170   5.585   5.507 -0.0101  0.0836 -0.0677
   52MOL    C1336835   4.264   5.689   5.583  0.6907  0.4808 -0.3348
   52MOL    C1436836   4.084   5.645   5.395 -0.2964  0.2677 -0.2539
   52MOL    H1536837   4.971   4.942   5.309 -0.3266 -0.1947 -0.3428
   52MOL    H1636838   5.023   4.936   5.470 -2.0885 -0.4718 -0.6408
   52MOL    H1736839   5.135   4.897   5.332 -0.5976 -0.2988  0.1185
   52MOL    H1836840   5.120   5.120   5.239  0.1435 -0.4018 -0.7169
   52MOL    H1936841   5.207   5.110   5.391 -0.0401  0.9656  0.9017
   52MOL    H2036842   4.980   5.183   5.492  1.3765 -3.3301 -0.6889
   52MOL    H2136843   5.083   5.299   5.413 -0.0063  1.1048 -1.0716
   52MOL    H2236844   4.933   5.277   5.212 -0.2981  2.4208  1.6642
   52MOL    H2336845   4.844   5.139   5.287 -0.1033  0.0667 -0.9684
   52MOL    H2436846   4.828   5.424   5.391  0.1933  0.2091  0.5444
   52MOL    H2536847   4.755   5.286   5.464 -3.2315 -1.8887 -1.5643
   52MOL    H2636848   4.629   5.239   5.253  1.8005 -0.9036  0.3511
   52MOL    H2736849   4.683   5.386   5.190 -2.3522 -0.0154  0.1436
   52MOL    H2836850   4.599   5.527   5.369  1.9803 -0.9506  0.5280
   52MOL    H2936851   4.534   5.389   5.453 -0.3009  0.0730  0.2431
   52MOL    H3036852   4.377   5.341   5.251 -1.4553  0.0671 -0.7256
   52MOL    H3136853   4.428   5.480   5.169 -0.1952  0.5455 -0.0105
   52MOL    H3236854   4.206   5.745   5.656  0.2829  0.5012 -0.6717
   52MOL    H3336855   4.338   5.639   5.645  1.0401  0.2425 -0.9381
   52MOL    H3436856   4.320   5.758   5.519  0.2481  1.6161  0.4770
   52MOL    H3536857   4.057   5.568   5.323  1.1541  0.4778 -1.0412
   52MOL    H3636858   4.147   5.716   5.341  1.3797 -0.9348  0.0811
   52MOL    H3736859   4.107   5.527   5.574  0.1576  0.4054  0.3760
   52MOL    C3836860   4.685   6.439   5.638  0.5329  0.4381  0.1896
   52MOL    C3936861   4.634   6.299   5.679  0.2915 -0.0268  0.2593
   52MOL    C4036862   4.662   6.187   5.572 -0.3930  0.3117  0.6241
   52MOL    C4136863   4.610   6.039   5.612 -0.0645  0.5618 -0.7209
   52MOL    C4236864   4.472   6.024   5.662 -0.6188  0.7307  0.6549
   52MOL    C4336865   4.368   6.054   5.555 -0.1212  0.4720  0.3906
   52MOL    C4436866   4.223   6.068   5.604 -0.6283 -0.1590  0.2981
   52MOL    C4536867   4.118   6.063   5.490  0.7302  0.2593  1.1531
   52MOL    O4636868   4.086   5.928   5.449  0.3377  0.5920  0.4279
   52MOL    C4736869   3.997   5.854   5.510  0.5259 -0.0783 -0.9055
   52MOL    O4836870   3.945   5.881   5.616  0.1073 -0.0077 -0.0215
   52MOL    C4936871   3.957   5.728   5.429 -0.2211 -0.5156  0.0457
   52MOL    C5036872   3.850   5.639   5.511  1.0242  0.1580 -0.3202
   52MOL    C5136873   3.909   5.775   5.286 -0.0793 -0.7661  0.1308
   52MOL    H5236874   4.686   6.511   5.720 -2.2035  0.9116 -0.1381
   52MOL    H5336875   4.619   6.483   5.563 -2.3809 -1.9755  1.2353
   52MOL    H5436876   4.779   6.430   5.583  0.6322  1.3292  0.2096
   52MOL    H5536877   4.529   6.295   5.708  0.0026 -0.9679 -0.8678
   52MOL    H5636878   4.696   6.263   5.761  4.8028  2.5919 -1.8144
   52MOL    H5736879   4.620   6.218   5.477  1.2214 -2.7140 -1.1364
   52MOL    H5836880   4.769   6.172   5.564 -0.2888  1.5596 -0.4784
   52MOL    H5936881   4.676   6.008   5.693 -1.4010  3.8154  1.7070
   52MOL    H6036882   4.625   5.956   5.542  2.1108 -2.6341  3.3240
   52MOL    H6136883   4.447   5.920   5.680 -2.7240  1.4451  1.9960
   52MOL    H6236884   4.454   6.070   5.760  0.2072  1.6888  0.3642
   52MOL    H6336885   4.406   6.128   5.484  0.4687 -0.8886 -0.7393
   52MOL    H6436886   4.368   5.965   5.492  1.1960  0.2636  0.6568
   52MOL    H6536887   4.219   6.160   5.662 -0.4429 -0.0396  0.1237
   52MOL    H6636888   4.210   5.990   5.679  0.8404  1.1132  1.9112
   52MOL    H6736889   4.143   6.125   5.405  1.8370 -1.2117  0.3809
   52MOL    H6836890   4.021   6.096   5.528  0.1687  2.7683 -2.2827
   52MOL    H6936891   3.884   5.594   5.604  0.3739  0.1473 -0.0885
   52MOL    H7036892   3.756   5.689   5.531  1.1379  0.8254 -1.3997
   52MOL    H7136893   3.831   5.550   5.451  1.2309 -1.0199  1.3632
   52MOL    H7236894   3.918   5.684   5.227  0.2686 -0.6054 -0.0616
   52MOL    H7336895   3.992   5.832   5.245 -1.0531  1.0860  0.6962
   52MOL    C7436896   2.636   5.685   5.385  0.3455 -0.3302 -0.0668
   52MOL    C7536897   2.781   5.640   5.368 -0.4667  0.5662 -0.2731
   52MOL    C7636898   2.881   5.739   5.310 -1.1120 -0.6623  0.0431
   52MOL    C7736899   3.021   5.741   5.380 -0.5535 -0.3864 -0.1299
   52MOL    C7836900   3.115   5.832   5.307  0.1073 -0.3338  0.0918
   52MOL    C7936901   3.253   5.825   5.369  0.1281 -0.4524 -0.1173
   52MOL    C8036902   3.328   5.686   5.346  0.1442  0.9316 -0.0503
   52MOL    C8136903   3.470   5.654   5.405  0.0947  0.0623 -0.0405
   52MOL    O8236904   3.562   5.756   5.362  0.3992  0.4728  0.0480
   52MOL    C8336905   3.657   5.726   5.268 -0.1995  0.0029 -0.3695
   52MOL    O8436906   3.656   5.620   5.204 -0.3815  0.4126 -0.5816
   52MOL    C8536907   3.767   5.836   5.248 -0.2208 -0.0103 -0.0601
   52MOL    C8636908   3.744   5.957   5.342  0.6187  0.2793  0.0379
   52MOL    C8736909   3.777   5.878   5.097 -0.6369  0.4244  1.3366
   52MOL    H8836910   2.631   5.769   5.454 -0.1834 -1.1765  0.9274
   52MOL    H8936911   2.572   5.600   5.406 -0.9852  1.1743  2.2221
   52MOL    H9036912   2.609   5.719   5.285  2.1136  1.1268 -0.0704
   52MOL    H9136913   2.773   5.552   5.305 -0.1579  1.1850 -1.1814
   52MOL    H9236914   2.815   5.603   5.465 -1.8753 -0.7483 -0.2581
   52MOL    H9336915   2.895   5.721   5.203 -3.2871  1.4301 -0.6327
   52MOL    H9436916   2.837   5.838   5.312  0.9866  0.4665 -3.7750
   52MOL    H9536917   3.053   5.638   5.390  0.3787 -0.1321 -0.3969
   52MOL    H9636918   3.014   5.782   5.481  1.7118  1.0945 -0.5267
   52MOL    H9736919   3.132   5.813   5.201 -3.9017 -2.5440 -0.2377
   52MOL    H9836920   3.073   5.932   5.319 -0.2744 -0.7626  2.6025
   52MOL    H9936921   3.318   5.907   5.337  1.3673 -1.1393  0.5679
   52MOL   H10036922   3.250   5.835   5.478 -2.4440 -2.3578  0.0247
   52MOL   H10136923   3.266   5.602   5.376  3.0784 -1.0508  0.7062
   52MOL   H10236924   3.338   5.671   5.239  0.3831 -0.3588  0.1382
   52MOL   H10336925   3.515   5.559   5.375 -3.7653 -2.0848  0.6060
   52MOL   H10436926   3.467   5.654   5.514  1.4059  2.3067  0.0088
   52MOL   H10536927   3.813   6.039   5.321 -0.3107  1.2015  0.5646
   52MOL   H10636928   3.746   5.935   5.449 -2.9615  3.8853  0.9787
   52MOL   H10736929   3.648   6.006   5.334  0.2200 -0.5494 -0.3024
   52MOL   H10836930   3.862   5.947   5.096 -0.1836 -0.0954 -1.7954
   52MOL   H10936931   3.816   5.788   5.049  0.6782  0.6182  2.0172
   52MOL   C11036932   4.338   6.716   5.524 -0.2764 -0.1596  0.4127
   52MOL   C11136933   4.278   6.575   5.494  0.0303 -0.0530  0.3911
   52MOL   C11236934   4.210   6.568   5.356  0.8272  0.3332  0.2747
   52MOL   C11336935   4.135   6.437   5.338 -0.0739  0.5323 -0.0736
   52MOL   C11436936   4.037   6.437   5.221  0.3826 -0.2678 -0.7609
   52MOL   C11536937   3.931   6.319   5.229  0.0741  0.9231 -0.4988
   52MOL   C11636938   3.801   6.371   5.155  0.0734  0.0170  0.1895
   52MOL   C11736939   3.670   6.284   5.160  0.2327 -0.8951 -0.4236
   52MOL   O11836940   3.694   6.161   5.090 -0.3837 -0.3189  0.2998
   52MOL   C11936941   3.602   6.060   5.089 -0.1021 -0.4712 -0.2466
   52MOL   O12036942   3.492   6.065   5.135 -0.0986  0.2797 -0.4310
   52MOL   C12136943   3.661   5.933   5.016  0.0059 -1.3333  0.4145
   52MOL   C12236944   3.550   5.829   4.993  0.2726 -0.0069 -0.1054
   52MOL   C12336945   3.727   5.974   4.872  0.1840 -0.3050  0.3708
   52MOL   H12436946   4.408   6.711   5.607  0.4790  1.4129 -0.1116
   52MOL   H12536947   4.384   6.756   5.433  1.7949 -1.4471  0.8678
   52MOL   H12636948   4.260   6.787   5.551 -0.4990 -0.1059 -0.3615
   52MOL   H12736949   4.211   6.549   5.576 -0.9321  0.1642 -0.3125
   52MOL   H12836950   4.363   6.508   5.503 -0.4090 -0.9916 -2.0546
   52MOL   H12936951   4.288   6.571   5.280  1.0170  1.4980  0.5155
   52MOL   H13036952   4.143   6.651   5.333 -1.1338 -1.6471 -1.4231
   52MOL   H13136953   4.198   6.349   5.325 -0.2581  0.5644 -1.2040
   52MOL   H13236954   4.075   6.425   5.428  1.8094 -0.2644  1.1099
   52MOL   H13336955   4.084   6.443   5.122  0.7566 -0.6985 -0.6100
   52MOL   H13436956   3.990   6.535   5.228 -0.4774 -0.3958 -3.9224
   52MOL   H13536957   3.965   6.227   5.182 -0.9593  0.6229 -0.6855
   52MOL   H13636958   3.906   6.303   5.334 -1.6678  1.9272 -0.7379
   52MOL   H13736959   3.831   6.393   5.053 -1.3483  0.4110 -0.1550
   52MOL   H13836960   3.779   6.473   5.186 -0.6667 -0.2531  0.5883
   52MOL   H13936961   3.647   6.263   5.264 -0.4414 -1.4950 -0.6854
   52MOL   H14036962   3.579   6.336   5.129 -0.7045 -0.9049  2.1673
   52MOL   H14136963   3.504   5.798   5.087  2.0460 -0.7634  0.5265
   52MOL   H14236964   3.479   5.878   4.926  1.3002  2.9689  0.8868
   52MOL   H14336965   3.593   5.741   4.945  1.6479  0.2191  0.6834
   52MOL   H14436966   3.753   5.878   4.827  0.2958  0.9173 -2.2723
   52MOL   H14536967   3.824   6.015   4.900  0.1492  1.0050 -1.3323
   52MOL   C14636968   4.165   5.698   4.148  0.1568 -0.2212 -0.4156
   52MOL   C14736969   4.149   5.814   4.245 -0.6737 -0.6722  0.5830
   52MOL   C14836970   4.017   5.822   4.317 -0.1312  0.1952 -0.2007
   52MOL   C14936971   3.970   5.692   4.388 -0.3758  0.1962 -0.2346
   52MOL   C15036972   3.849   5.708   4.478  0.1348 -1.1362 -0.1547
   52MOL   C15136973   3.714   5.687   4.401 -0.2592  0.5432 -0.6978
   52MOL   C15236974   3.587   5.667   4.490 -0.1426 -0.2083  0.2464
   52MOL   C15336975   3.512   5.794   4.531 -0.5905  0.2205 -0.2474
   52MOL   O15436976   3.588   5.859   4.630 -0.4455  0.6064  0.3388
   52MOL   C15536977   3.539   5.976   4.683  0.0645 -0.3784  0.1076
   52MOL   O15636978   3.423   6.008   4.672 -0.6438 -0.3940  0.0971
   52MOL   C15736979   3.647   6.068   4.759  0.6816  0.0580  0.8272
   52MOL   C15836980   3.576   6.192   4.807  0.3949  0.2086 -0.5229
   52MOL   C15936981   3.756   6.112   4.651  0.4575  0.5674  0.0896
   52MOL   H16036982   4.181   5.605   4.202 -0.6683 -0.7149 -0.9993
   52MOL   H16136983   4.253   5.694   4.084  0.5861 -1.5235  0.2495
   52MOL   H16236984   4.077   5.687   4.084 -0.4455 -0.5414  0.4603
   52MOL   H16336985   4.224   5.807   4.324 -1.1711 -1.4015  0.9924
   52MOL   H16436986   4.165   5.910   4.194 -1.4152 -0.3084  1.0214
   52MOL   H16536987   3.948   5.831   4.233  1.0313  0.7081 -1.1095
   52MOL   H16636988   4.027   5.898   4.394 -0.3461 -0.7991  0.8406
   52MOL   H16736989   3.970   5.617   4.309 -2.5436  1.2432 -1.2932
   52MOL   H16836990   4.049   5.656   4.454 -0.9447 -0.3330  0.1678
   52MOL   H16936991   3.844   5.806   4.526  0.7370 -1.4516  0.5511
   52MOL   H17036992   3.852   5.638   4.561  0.0533 -2.2040 -1.0278
   52MOL   H17136993   3.728   5.593   4.348  0.6628  0.8443 -0.9929
   52MOL   H17236994   3.705   5.760   4.320  1.0732 -0.1464 -1.4720
   52MOL   H17336995   3.524   5.609   4.423  1.7364 -1.9223 -0.0859
   52MOL   H17436996   3.604   5.599   4.573  0.7387 -0.2217  0.0571
   52MOL   H17536997   3.491   5.860   4.447  1.5242  2.0187  0.5757
   52MOL   H17636998   3.415   5.752   4.557  0.0722 -1.0734  0.1944
   52MOL   H17736999   3.647   6.264   4.847  0.5424  0.0853 -0.5673
   52MOL   H17837000   3.493   6.172   4.876 -0.2162  1.6499 -0.8190
   52MOL   H17937001   3.517   6.240   4.728 -2.7867 -0.8823  1.0796
   52MOL   H18037002   3.793   6.020   4.607 -0.4177  2.0393 -3.9208
   52MOL   H18137003   3.844   6.134   4.711  1.5674 -1.9056 -0.5702
   52MOL   C18237004   4.352   7.112   4.913 -0.3200  0.1083 -0.6666
   52MOL   C18337005   4.288   6.998   4.991 -0.6457 -0.1218  0.3147
   52MOL   C18437006   4.227   6.881   4.914 -0.1439  0.2801  0.3560
   52MOL   C18537007   4.219   6.765   5.004  0.5912  0.1840 -0.1578
   52MOL   C18637008   4.185   6.633   4.933 -0.9445 -0.8620 -0.0788
   52MOL   C18737009   4.037   6.628   4.887  0.0601  0.0597  0.1723
   52MOL   C18837010   4.001   6.500   4.817 -0.0311 -0.4999 -0.3939
   52MOL   C18937011   3.872   6.512   4.735 -0.8864  0.3098  0.4412
   52MOL   O19037012   3.863   6.394   4.658 -0.0855 -0.1578 -0.2742
   52MOL   C19137013   3.744   6.366   4.604  0.5256  0.2867 -0.3869
   52MOL   O19237014   3.648   6.446   4.598  0.8042  0.7061 -0.7866
   52MOL   C19337015   3.740   6.224   4.535  0.0509  0.1560 -0.5231
   52MOL   C19437016   3.615   6.197   4.456  0.5130 -0.3363 -0.3170
   52MOL   C19537017   3.865   6.204   4.441 -0.1768  1.2223 -0.1952
   52MOL   H19637018   4.389   7.193   4.976  1.4565 -0.7008 -0.6541
   52MOL   H19737019   4.439   7.088   4.853 -0.3885  0.6628 -0.9907
   52MOL   H19837020   4.276   7.146   4.843  1.0452  2.1107 -1.2204
   52MOL   H19937021   4.216   7.052   5.052  0.5058  0.9211  0.7842
   52MOL   H20037022   4.369   6.966   5.057 -0.7953 -1.3462 -0.0768
   52MOL   H20137023   4.124   6.884   4.877 -0.7435 -0.6059  1.8850
   52MOL   H20237024   4.285   6.857   4.825  3.0434  2.1200  1.8390
   52MOL   H20337025   4.312   6.751   5.059  0.4028 -4.3234 -0.7828
   52MOL   H20437026   4.157   6.787   5.091  2.2393  0.3301  0.9880
   52MOL   H20537027   4.205   6.553   5.004  0.4518 -1.0800 -0.7209
   52MOL   H20637028   4.255   6.608   4.854 -1.7713 -1.4127 -0.6422
   52MOL   H20737029   4.021   6.711   4.819  0.2799 -0.6324 -0.7300
   52MOL   H20837030   3.970   6.646   4.971  0.3985  0.5818  0.3364
   52MOL   H20937031   4.090   6.458   4.770  3.6625  3.9302  2.2235
   52MOL   H21037032   3.979   6.417   4.884 -0.1209 -0.2760 -0.1442
   52MOL   H21137033   3.876   6.599   4.670 -1.0218 -0.0930 -0.1166
   52MOL   H21237034   3.786   6.524   4.800 -0.5677  0.1987  0.8852
   52MOL   H21337035   3.621   6.106   4.397  2.3381 -0.9857  0.8503
   52MOL   H21437036   3.524   6.207   4.516  0.8780  1.6734 -0.0621
   52MOL   H21537037   3.595   6.280   4.388 -1.5568 -1.4848 -1.1609
   52MOL   H21637038   3.951   6.190   4.505 -0.0641  1.2115 -0.3489
   52MOL   H21737039   3.856   6.101   4.404  2.1815  0.2664  1.8390
   52MOL   C21837040   4.732   6.911   4.845 -0.1115  0.1039 -0.2683
   52MOL   C21937041   4.685   6.892   4.703 -0.5191  0.1264  0.2956
   52MOL   C22037042   4.588   6.775   4.682  0.4792 -0.0183  1.2859
   52MOL   C22137043   4.585   6.724   4.541  0.0552 -0.4080 -0.3410
   52MOL   C22237044   4.502   6.596   4.514 -0.3368  0.0161 -0.4055
   52MOL   C22337045   4.348   6.638   4.501  0.5940  0.5025  0.2155
   52MOL   C22437046   4.254   6.516   4.494  0.0546  0.0219  0.7871
   52MOL   C22537047   4.107   6.551   4.457  0.0727 -0.3830  0.0933
   52MOL   O22637048   4.044   6.428   4.433 -0.6852  0.1564 -0.2285
   52MOL   C22737049   3.943   6.430   4.350 -0.2233  0.0281 -0.4426
   52MOL   O22837050   3.890   6.528   4.302 -0.7233 -0.5047 -0.2271
   52MOL   C22937051   3.897   6.289   4.314 -0.0700  0.2034  0.0072
   52MOL   C23037052   3.778   6.306   4.218 -0.3952 -0.3603  0.5018
   52MOL   C23137053   4.026   6.221   4.243 -0.4041 -0.0751 -0.0315
   52MOL   H23237054   4.798   6.999   4.842 -2.0544  1.5917 -0.2355
   52MOL   H23337055   4.778   6.824   4.892  0.9964  1.3556  1.0505
   52MOL   H23437056   4.644   6.933   4.905  0.4524 -0.5328  0.8098
   52MOL   H23537057   4.774   6.879   4.643 -0.8826  0.7871 -0.3976
   52MOL   H23637058   4.628   6.976   4.663  0.1878  1.0457  1.2219
   52MOL   H23737059   4.609   6.696   4.754  2.3814 -1.6309 -0.9582
   52MOL   H23837060   4.488   6.805   4.714  0.3931  0.4685  0.5663
   52MOL   H23937061   4.538   6.806   4.486  0.1074 -0.0535  0.1376
   52MOL   H24037062   4.687   6.717   4.505  0.4227  2.0732  0.0977
   52MOL   H24137063   4.532   6.555   4.418  0.5761 -0.6129  0.1375
   52MOL   H24237064   4.517   6.525   4.596  1.9555  1.1419  0.1835
   52MOL   H24337065   4.322   6.694   4.591  2.9654 -1.4672  2.2081
   52MOL   H24437066   4.339   6.706   4.416  3.2716  0.1946 -0.3827
   52MOL   H24537067   4.249   6.469   4.592 -1.4853 -0.6818  0.3792
   52MOL   H24637068   4.294   6.445   4.423  1.8059 -0.2470  2.0132
   52MOL   H24737069   4.110   6.618   4.371  0.0557  3.0927  2.7047
   52MOL   H24837070   4.046   6.601   4.532  0.4745 -0.3143  0.3713
   52MOL   H24937071   3.696   6.370   4.250  0.1826  1.1722 -0.9932
   52MOL   H25037072   3.736   6.210   4.187 -1.8502 -0.1913  1.8700
   52MOL   H25137073   3.822   6.353   4.130 -0.8634 -1.3005 -0.2593
   52MOL   H25237074   4.106   6.188   4.310  1.1283 -0.7684 -2.1369
   52MOL   H25337075   3.989   6.118   4.240 -0.5548  0.0233 -2.2739
   52MOL   C25437076   4.866   7.193   4.212  0.1803  0.1790 -0.6337
   52MOL   C25537077   4.727   7.163   4.147  0.8935 -0.5103  0.5272
   52MOL   C25637078   4.669   7.023   4.172  0.3412 -0.2223  0.0247
   52MOL   C25737079   4.539   6.984   4.100  0.2746  0.6428  0.0152
   52MOL   C25837080   4.505   6.838   4.130  1.2707 -0.0973 -0.1795
   52MOL   C25937081   4.354   6.809   4.089 -0.5315 -0.3525 -0.6374
   52MOL   C26037082   4.325   6.664   4.100  0.0008 -1.0836 -0.1778
   52MOL   C26137083   4.176   6.624   4.082  0.4353 -0.7198  0.5957
   52MOL   O26237084   4.165   6.492   4.131 -0.0732  0.2043  0.3809
   52MOL   C26337085   4.088   6.405   4.065  0.2674 -0.0120  0.8400
   52MOL   O26437086   4.016   6.442   3.974  0.0371 -0.0296  0.4362
   52MOL   C26537087   4.098   6.253   4.103  0.5973  0.0005  0.0777
   52MOL   C26637088   4.017   6.169   3.996 -0.2751 -0.3862 -0.2507
   52MOL   C26737089   4.251   6.202   4.112 -0.2611 -0.4999 -0.0610
   52MOL   H26837090   4.947   7.132   4.172 -0.5111  0.9009 -3.2450
   52MOL   H26937091   4.893   7.295   4.183  0.1301  0.0916 -0.9908
   52MOL   H27037092   4.863   7.185   4.321 -2.7249  1.6961 -0.5666
   52MOL   H27137093   4.648   7.224   4.191 -0.4550 -1.5759 -0.3647
   52MOL   H27237094   4.731   7.184   4.040  0.9046  2.0878  1.0100
   52MOL   H27337095   4.655   7.012   4.279  0.6093 -0.6384  0.0168
   52MOL   H27437096   4.754   6.962   4.142 -1.0180 -1.6223 -1.0304
   52MOL   H27537097   4.536   7.005   3.993  2.4628  0.6380 -0.0691
   52MOL   H27637098   4.462   7.036   4.156  0.9470 -0.8811  2.4221
   52MOL   H27737099   4.568   6.768   4.074  1.9392  0.6998 -0.4276
   52MOL   H27837100   4.513   6.811   4.235 -1.5576 -2.9670 -0.6099
   52MOL   H27937101   4.334   6.845   3.988  0.8472  0.3416 -0.6824
   52MOL   H28037102   4.286   6.864   4.155  0.0600  0.2507 -0.5173
   52MOL   H28137103   4.391   6.600   4.040  1.0659 -0.3027  0.1647
   52MOL   H28237104   4.347   6.630   4.201  1.6337  0.1454 -0.1069
   52MOL   H28337105   4.105   6.687   4.135 -0.4048  0.8737 -2.3786
   52MOL   H28437106   4.148   6.628   3.977  0.9896  1.1074  0.4968
   52MOL   H28537107   4.065   6.175   3.898  2.1741 -2.0227  0.7862
   52MOL   H28637108   4.012   6.061   4.014  0.9629  0.0661  3.3475
   52MOL   H28737109   3.913   6.200   3.988 -0.3717 -1.0705 -1.8034
   52MOL   H28837110   4.267   6.109   4.167 -2.0947 -0.9431 -0.2334
   52MOL   H28937111   4.295   6.277   4.177  3.1442 -1.5885 -1.0425
   52MOL   C29037112   4.610   6.599   3.265  0.3831  0.3622  0.4903
   52MOL   C29137113   4.594   6.480   3.164 -0.0480  0.2276 -0.6250
   52MOL   C29237114   4.618   6.342   3.238  0.1240 -0.4058 -0.6882
   52MOL   C29337115   4.502   6.295   3.330 -0.4103  0.0966 -0.2709
   52MOL   C29437116   4.521   6.148   3.377 -0.0134 -0.1285  0.0375
   52MOL   C29537117   4.419   6.104   3.481  0.1091  0.2485  0.0676
   52MOL   C29637118   4.461   5.981   3.565 -0.1719 -0.4414 -0.0240
   52MOL   C29737119   4.358   5.962   3.678  1.0077 -0.3662  0.5939
   52MOL   O29837120   4.371   6.064   3.777  0.4140 -0.7372 -0.4080
   52MOL   C29937121   4.332   6.057   3.907 -1.0345  0.2362  1.1600
   52MOL   O30037122   4.280   5.957   3.960  0.0638 -0.7262  0.4330
   52MOL   C30137123   4.350   6.193   3.987  0.1231  0.2871 -0.9587
   52MOL   C30237124   4.336   6.311   3.889  0.1419 -0.4468  0.8256
   52MOL   C30337125   4.502   6.189   4.030 -0.3672 -0.2897 -0.6560
   52MOL   H30437126   4.616   6.697   3.218 -0.3834  0.0279 -0.3012
   52MOL   H30537127   4.716   6.599   3.294 -0.0291  0.8431  2.0817
   52MOL   H30637128   4.536   6.597   3.345  0.7681  0.0815  0.8455
   52MOL   H30737129   4.669   6.491   3.086  0.1046  1.3429 -0.3231
   52MOL   H30837130   4.491   6.477   3.129 -0.7907  1.4884  1.3734
   52MOL   H30937131   4.715   6.354   3.287 -0.7876  1.0955  0.8091
   52MOL   H31037132   4.623   6.256   3.171 -0.2848  0.6991 -2.1461
   52MOL   H31137133   4.488   6.356   3.420  1.7250 -0.6110  0.5742
   52MOL   H31237134   4.406   6.304   3.279 -1.3102 -2.2719  0.8945
   52MOL   H31337135   4.515   6.088   3.286 -0.1077  0.6667 -0.4789
   52MOL   H31437136   4.623   6.129   3.409 -0.2490 -1.1916  0.1823
   52MOL   H31537137   4.327   6.086   3.426 -0.1133  0.4110  0.3847
   52MOL   H31637138   4.396   6.183   3.553 -0.2911  0.3480 -0.1718
   52MOL   H31737139   4.552   5.991   3.625 -0.3187 -2.6307  0.6062
   52MOL   H31837140   4.461   5.888   3.508  5.2264 -0.8004  0.2389
   52MOL   H31937141   4.360   5.863   3.723  0.9619 -2.1930 -3.2229
   52MOL   H32037142   4.259   5.976   3.635  1.8580  0.7940 -1.0440
   52MOL   H32137143   4.345   6.405   3.942 -0.2658 -0.4420  0.8889
   52MOL   H32237144   4.256   6.296   3.817 -0.4696  2.5209  0.8634
   52MOL   H32337145   4.421   6.302   3.821 -0.0812  1.0631  0.3465
   52MOL   H32437146   4.559   6.157   3.943 -2.2561 -1.7604 -1.3880
   52MOL   H32537147   4.537   6.290   4.053 -0.2450 -0.1265 -1.5482
   52MOL   C32637148   4.298   5.896   5.186  0.0761  0.8207 -0.3472
   52MOL   C32737149   4.237   6.015   5.123  0.2712  0.2543  0.5589
   52MOL   C32837150   4.224   6.006   4.971 -0.0240  0.2355  0.6788
   52MOL   C32937151   4.178   6.130   4.901 -0.2013  0.6505  0.2124
   52MOL   C33037152   4.215   6.138   4.748  0.2280 -0.2510 -0.3308
   52MOL   C33137153   4.361   6.122   4.705  0.5020  1.0922  0.1302
   52MOL   C33237154   4.371   6.127   4.550  0.0144 -0.8022 -0.1783
   52MOL   C33337155   4.522   6.121   4.509 -0.4131 -0.4014  0.0602
   52MOL   O33437156   4.526   6.072   4.382 -0.4269  0.4580 -0.8197
   52MOL   C33537157   4.535   6.166   4.286 -0.1633 -0.1992 -0.3119
   52MOL   O33637158   4.515   6.288   4.303 -0.1191  0.0985 -0.1374
   52MOL   C33737159   4.564   6.103   4.148  0.3094 -0.2020 -0.1697
   52MOL   C33837160   4.529   5.947   4.139 -0.5093 -0.2396 -0.0454
   52MOL   C33937161   4.720   6.108   4.133  0.0728 -0.8451  0.8769
   52MOL   H34037162   4.276   5.895   5.292 -2.1543  1.4978 -0.7894
   52MOL   H34137163   4.407   5.896   5.182  0.0963  0.7480  0.2540
   52MOL   H34237164   4.260   5.798   5.156 -0.3293  1.1334 -0.8554
   52MOL   H34337165   4.291   6.107   5.148 -0.4783  0.3696  1.8182
   52MOL   H34437166   4.136   6.024   5.162 -0.1217 -0.9791 -0.1597
   52MOL   H34537167   4.151   5.928   4.951  1.2608 -1.0910  1.0509
   52MOL   H34637168   4.325   5.982   4.936  0.7946  1.5225  2.1215
   52MOL   H34737169   4.214   6.218   4.952  0.2876  1.6980 -1.8902
   52MOL   H34837170   4.069   6.141   4.906 -0.3485 -0.3955 -0.4156
   52MOL   H34937171   4.151   6.083   4.678  0.9863  0.2288 -1.4247
   52MOL   H35037172   4.185   6.241   4.731 -0.7424 -0.4696  0.0368
   52MOL   H35137173   4.422   6.190   4.764  0.9455  0.4268  0.4410
   52MOL   H35237174   4.401   6.025   4.734 -1.4300 -0.1584 -1.2214
   52MOL   H35337175   4.322   6.220   4.523  0.8190 -0.4991 -0.6202
   52MOL   H35437176   4.315   6.041   4.514  1.2914 -1.5821 -0.3280
   52MOL   H35537177   4.574   6.216   4.511  0.1710 -0.7326  1.0802
   52MOL   H35637178   4.567   6.054   4.582 -0.1714 -0.0310  0.2452
   52MOL   H35737179   4.599   5.879   4.188  1.3402  0.8995 -1.0525
   52MOL   H35837180   4.431   5.927   4.182  0.5158 -0.6729  2.1544
   52MOL   H35937181   4.529   5.917   4.034 -0.1428  2.2244 -0.7739
   52MOL   H36037182   4.751   6.206   4.169  0.7947 -0.0288 -1.8606
   52MOL   H36137183   4.760   6.043   4.212  1.6747 -2.0052 -0.8410
   52MOL   C36237184   5.021   7.039   3.902 -0.2242 -0.2375 -0.6287
   52MOL   C36337185   4.972   6.909   3.832  0.4970 -0.4435 -0.0907
   52MOL   C36437186   4.849   6.930   3.730 -0.1586 -0.2591  0.7241
   52MOL   C36537187   4.801   6.799   3.666  0.1119 -0.3911  0.5683
   52MOL   C36637188   4.742   6.706   3.773 -0.7972 -0.0393 -0.2666
   52MOL   C36737189   4.733   6.568   3.701 -0.9070 -0.3626  0.7248
   52MOL   C36837190   4.710   6.458   3.801  1.2019 -0.0959  0.2496
   52MOL   C36937191   4.837   6.424   3.881  0.4089  0.3506  0.1239
   52MOL   O37037192   4.797   6.306   3.963  0.0236  0.2862  0.1025
   52MOL   C37137193   4.812   6.189   3.909 -0.1501  0.0719 -0.0833
   52MOL   O37237194   4.830   6.176   3.787  0.0498  0.6012  0.3430
   52MOL   C37337195   4.812   6.072   4.008 -0.3646  0.0412  0.7069
   52MOL   C37437196   4.761   5.956   3.921 -0.5447  0.3518  0.4148
   52MOL   C37537197   4.964   6.044   4.045  0.1169  0.8460  0.4440
   52MOL   H37637198   5.069   7.020   3.998  0.3237  1.0542 -0.6280
   52MOL   H37737199   5.082   7.091   3.828  1.1240 -1.8982 -0.7182
   52MOL   H37837200   4.946   7.117   3.916  1.8731  1.8327 -0.7385
   52MOL   H37937201   4.952   6.829   3.903 -3.1507  1.4410  1.1184
   52MOL   H38037202   5.056   6.865   3.778  0.3201  0.5076 -1.1744
   52MOL   H38137203   4.881   7.003   3.656 -1.5221  0.9222  1.2807
   52MOL   H38237204   4.758   6.964   3.779 -1.4370 -1.4326 -0.8118
   52MOL   H38337205   4.892   6.756   3.623  0.2749  1.4702 -1.0052
   52MOL   H38437206   4.741   6.822   3.577 -0.5112  0.8588  1.3008
   52MOL   H38537207   4.788   6.702   3.871  0.8466  0.9941 -0.9685
   52MOL   H38637208   4.639   6.735   3.793 -0.7698  1.0272 -1.5878
   52MOL   H38737209   4.829   6.555   3.650 -0.9870  0.0205  0.4720
   52MOL   H38837210   4.652   6.575   3.628 -0.4768  2.5454  0.4968
   52MOL   H38937211   4.664   6.372   3.751 -0.5003  0.1089  1.4015
   52MOL   H39037212   4.643   6.491   3.880 -0.4945 -1.5766 -0.5275
   52MOL   H39137213   4.912   6.393   3.808 -0.0793  3.2437 -1.6748
   52MOL   H39237214   4.868   6.507   3.944  1.9433  0.1071 -0.2846
   52MOL   H39337215   4.754   5.871   3.989  0.4705  0.9965  1.3460
   52MOL   H39437216   4.670   5.974   3.864  0.1929 -1.5963 -1.4480
   52MOL   H39537217   4.833   5.938   3.841 -1.6501  1.6082 -0.8999
   52MOL   H39637218   4.957   5.953   4.103  1.3424  0.4227 -0.0583
   52MOL   H39737219   5.005   6.004   3.952 -0.6718  0.2890  0.3282
   52MOL   C39837220   5.102   7.065   4.597 -0.6239 -0.9462 -0.2738
   52MOL   C39937221   5.029   6.968   4.507  0.1120  0.5321  0.2735
   52MOL   C40037222   5.106   6.933   4.379  0.4447  0.0571 -0.5158
   52MOL   C40137223   5.029   6.856   4.276 -0.0863 -0.9491  0.1871
   52MOL   C40237224   4.987   6.713   4.315 -0.1466 -0.6474  0.1793
   52MOL   C40337225   4.913   6.639   4.194  0.7871 -0.0863  0.8163
   52MOL   C40437226   4.812   6.532   4.235 -0.5965  0.0096  0.3320
   52MOL   C40537227   4.886   6.412   4.306 -0.8609 -0.0779  0.0249
   52MOL   O40637228   4.972   6.352   4.213  0.0751 -0.0832  0.0099
   52MOL   C40737229   5.011   6.223   4.238  0.6008 -0.0513 -0.4147
   52MOL   O40837230   4.999   6.166   4.344  0.2108 -0.7347 -0.5546
   52MOL   C40937231   5.071   6.150   4.113  0.5643  0.5260 -0.0445
   52MOL   C41037232   5.171   6.047   4.169  0.1329 -0.7584 -0.3327
   52MOL   C41137233   5.132   6.248   4.002 -1.2431  0.6436 -0.3948
   52MOL   H41237234   5.108   7.161   4.547 -1.5586  0.2866  1.9543
   52MOL   H41337235   5.204   7.034   4.621  0.3124  1.6287 -0.7566
   52MOL   H41437236   5.065   7.094   4.695  1.5750 -1.2458  0.6730
   52MOL   H41537237   4.940   7.016   4.468 -1.1364 -3.5282 -2.1163
   52MOL   H41637238   4.996   6.882   4.566  1.9577 -0.6482 -0.3885
   52MOL   H41737239   5.140   7.024   4.330 -2.0612  1.2654 -0.0900
   52MOL   H41837240   5.188   6.874   4.419  0.7537  1.5813  1.1534
   52MOL   H41937241   5.092   6.842   4.189  1.7377 -1.7494  1.6024
   52MOL   H42037242   4.944   6.915   4.242 -0.9771 -2.7624 -0.8369
   52MOL   H42137243   5.071   6.655   4.352 -0.2950  0.0637  1.6777
   52MOL   H42237244   4.909   6.734   4.389 -0.6386 -1.1117 -0.2056
   52MOL   H42337245   4.983   6.594   4.124 -0.3616 -1.1897  0.3493
   52MOL   H42437246   4.859   6.709   4.130  0.1393 -0.6684  0.7125
   52MOL   H42537247   4.743   6.576   4.307  0.5239  2.5155 -0.0677
   52MOL   H42637248   4.745   6.497   4.156 -0.5009 -2.5714  1.3399
   52MOL   H42737249   4.944   6.448   4.390  0.9980  2.1267 -2.1332
   52MOL   H42837250   4.811   6.339   4.337 -0.1840 -0.8645 -0.1814
   52MOL   H42937251   5.131   5.962   4.224  0.3051  0.8924  2.4318
   52MOL   H43037252   5.249   6.091   4.231  1.0952 -1.6910 -0.8752
   52MOL   H43137253   5.240   6.009   4.093 -0.8019  1.6316 -2.4679
   52MOL   H43237254   5.054   6.320   3.980 -1.2593  1.7381  2.9717
   52MOL   H43337255   5.143   6.190   3.910 -1.2758 -0.2250  0.1450
   52MOL   C43437256   5.108   5.313   3.717 -0.1513  0.0327  0.5994
   52MOL   C43537257   5.108   5.474   3.728 -0.2075 -0.5022  0.0575
   52MOL   C43637258   5.250   5.521   3.718 -0.3858 -0.6229 -0.4075
   52MOL   C43737259   5.272   5.669   3.769  0.0303  0.1145  0.7291
   52MOL   C43837260   5.412   5.736   3.754  0.1507 -0.8395 -0.4038
   52MOL   C43937261   5.408   5.880   3.821 -0.1783 -0.7359 -0.0006
   52MOL   C44037262   5.545   5.959   3.828 -0.3862 -0.0582  0.3840
   52MOL   C44137263   5.546   6.069   3.933  0.0315  0.3767  0.2551
   52MOL   O44237264   5.424   6.150   3.918  0.3621 -0.2805 -0.9364
   52MOL   C44337265   5.392   6.229   4.026 -0.6075 -0.2111  0.5160
   52MOL   O44437266   5.466   6.241   4.124 -0.0224 -0.0670 -0.0103
   52MOL   C44537267   5.263   6.322   4.015 -0.0776  0.3736  0.6452
   52MOL   C44637268   5.267   6.425   4.138  0.4404  0.0375  0.5081
   52MOL   C44737269   5.279   6.405   3.886 -0.0074 -0.0488  0.4995
   52MOL   H44837270   5.008   5.269   3.722  0.6531 -1.9356 -0.2904
   52MOL   H44937271   5.153   5.276   3.809 -1.6904 -2.7174  0.3163
   52MOL   H45037272   5.150   5.260   3.632  0.9843 -1.6114  2.1497
   52MOL   H45137273   5.072   5.496   3.828 -0.6778 -0.1173 -0.1926
   52MOL   H45237274   5.059   5.518   3.641  1.0940 -1.1797 -1.0442
   52MOL   H45337275   5.287   5.512   3.616  2.4827 -1.6607  0.6797
   52MOL   H45437276   5.313   5.446   3.766 -0.7555 -2.0773 -2.1048
   52MOL   H45537277   5.223   5.678   3.866 -2.0918 -2.0729 -0.1072
   52MOL   H45637278   5.196   5.717   3.709 -0.4804 -2.0884 -0.4658
   52MOL   H45737279   5.492   5.677   3.797 -1.4144 -2.1772  0.6835
   52MOL   H45837280   5.429   5.739   3.646  0.7985  1.2863 -0.2832
   52MOL   H45937281   5.369   5.874   3.923 -0.7306 -0.3518 -0.1875
   52MOL   H46037282   5.334   5.951   3.784  0.8287 -0.6950 -1.9983
   52MOL   H46137283   5.626   5.890   3.854  1.8377  2.2216 -0.2595
   52MOL   H46237284   5.573   5.998   3.730  1.5246 -1.3536  0.3829
   52MOL   H46337285   5.633   6.134   3.921  1.2679 -1.1950  0.6726
   52MOL   H46437286   5.551   6.029   4.034  2.1142 -0.8975 -0.3377
   52MOL   H46537287   5.361   6.479   4.143  0.7827 -0.5391  0.3903
   52MOL   H46637288   5.185   6.497   4.137  0.5251  0.2133 -3.1865
   52MOL   H46737289   5.270   6.368   4.230 -0.7687  0.5557  0.8783
   52MOL   H46837290   5.288   6.333   3.805  2.9774  0.0588  0.6957
   52MOL   H46937291   5.181   6.451   3.873  0.8131  1.3174 -0.9387
   52MOL   C47037292   6.221   6.998   4.442  0.3917  0.2151  0.0513
   52MOL   C47137293   6.081   6.945   4.414  0.7162 -0.3201  0.5163
   52MOL   C47237294   6.032   6.977   4.272 -0.1718  0.1264  0.7831
   52MOL   C47337295   5.894   6.914   4.260 -0.1859  0.2199 -0.2655
   52MOL   C47437296   5.821   6.928   4.123 -0.2236 -0.3116 -0.2143
   52MOL   C47537297   5.689   6.849   4.102  0.3738 -0.4076 -0.2007
   52MOL   C47637298   5.597   6.923   4.005 -0.3355 -0.5333 -0.0295
   52MOL   C47737299   5.460   6.859   3.980  1.3105  0.2790 -0.1745
   52MOL   O47837300   5.470   6.731   3.912 -0.3295 -0.3123 -0.1656
   52MOL   C47937301   5.359   6.648   3.918  0.0439  0.1514 -0.0214
   52MOL   O48037302   5.247   6.676   3.968 -0.3608  0.0980 -0.4215
   52MOL   C48137303   5.391   6.511   3.852  0.3256 -0.2214 -0.1244
   52MOL   C48237304   5.533   6.462   3.899 -0.3135  0.1731  0.7473
   52MOL   C48337305   5.416   6.540   3.698  0.1444 -0.0499  0.3086
   52MOL   H48437306   6.302   6.956   4.382 -2.2377  0.1102 -3.6771
   52MOL   H48537307   6.248   6.976   4.545 -0.6429  1.0094  0.5053
   52MOL   H48637308   6.226   7.105   4.422  1.1639  0.2066  0.2179
   52MOL   H48737309   6.067   6.840   4.437 -0.7733  0.3792  3.0123
   52MOL   H48837310   6.005   6.991   4.478 -3.1191 -0.5495 -3.6115
   52MOL   H48937311   6.031   7.085   4.260 -0.9585  0.0831  0.4570
   52MOL   H49037312   6.100   6.930   4.200  0.1369 -0.4525  1.4396
   52MOL   H49137313   5.922   6.809   4.260 -1.0439 -0.0103  0.2752
   52MOL   H49237314   5.817   6.933   4.335 -1.6424 -0.3556 -1.5818
   52MOL   H49337315   5.807   7.033   4.095  3.1475  0.3127  0.1612
   52MOL   H49437316   5.887   6.906   4.038  2.2812  1.7699  1.1050
   52MOL   H49537317   5.708   6.744   4.078  1.1266 -0.2819 -0.1846
   52MOL   H49637318   5.632   6.836   4.194 -0.2840  0.0099 -0.5480
   52MOL   H49737319   5.588   7.030   4.021  1.9190 -0.1559 -1.1039
   52MOL   H49837320   5.642   6.920   3.905 -1.0130  0.5909 -0.3757
   52MOL   H49937321   5.407   6.922   3.908  0.7619  1.5894  1.3342
   52MOL   H50037322   5.410   6.853   4.076 -0.3006  1.1834 -0.9208
   52MOL   H50137323   5.564   6.367   3.856  0.2407  0.3578  0.7333
   52MOL   H50237324   5.545   6.457   4.008  2.2983 -0.5933  0.4489
   52MOL   H50337325   5.606   6.531   3.857 -0.8036  1.3588  1.7888
   52MOL   H50437326   5.476   6.631   3.701 -0.1587  0.1305  0.9446
   52MOL   H50537327   5.484   6.466   3.656 -1.1914 -0.7367 -0.6903
   52MOL   C50637328   5.579   5.406   3.193 -0.0535  0.1555 -0.8299
   52MOL   C50737329   5.470   5.507   3.222  0.0525  0.1670  0.2001
   52MOL   C50837330   5.524   5.635   3.273  0.0509 -0.8848  0.1625
   52MOL   C50937331   5.407   5.732   3.319  0.5120  0.3182  0.0981
   52MOL   C51037332   5.456   5.864   3.376  0.2528 -0.7048  0.4485
   52MOL   C51137333   5.337   5.950   3.425  0.0825  0.4981 -0.8861
   52MOL   C51237334   5.384   6.091   3.466  0.1568 -0.6151  0.1849
   52MOL   C51337335   5.266   6.184   3.510  0.3069  0.3734 -0.5741
   52MOL   O51437336   5.305   6.314   3.525  0.1113  0.3261 -0.2687
   52MOL   C51537337   5.227   6.409   3.572  0.7689  0.7393  0.2864
   52MOL   O51637338   5.111   6.390   3.607  0.7367  0.0765 -0.0069
   52MOL   C51737339   5.294   6.546   3.593 -0.0206 -0.1983  0.1574
   52MOL   C51837340   5.188   6.643   3.636  0.4246  0.3561  0.6128
   52MOL   C51937341   5.360   6.598   3.453 -0.5859 -0.4587  0.0784
   52MOL   H52037342   5.630   5.423   3.098 -0.9692  0.8952 -1.1985
   52MOL   H52137343   5.527   5.313   3.168 -1.8029  0.9100 -0.0772
   52MOL   H52237344   5.651   5.379   3.269  1.1265 -3.9235 -3.2181
   52MOL   H52337345   5.409   5.463   3.301 -2.0986 -0.2472 -1.6583
   52MOL   H52437346   5.409   5.517   3.133 -2.9448 -1.6881  1.9559
   52MOL   H52537347   5.582   5.620   3.363 -0.8935  0.0956  0.9467
   52MOL   H52637348   5.593   5.685   3.204 -4.5385  0.5443 -3.6893
   52MOL   H52737349   5.347   5.755   3.231  1.8444  2.7144 -0.2210
   52MOL   H52837350   5.351   5.690   3.402  1.9453 -1.3558  0.2615
   52MOL   H52937351   5.523   5.843   3.460 -0.4084 -0.1379  1.1147
   52MOL   H53037352   5.508   5.920   3.298 -1.5504  0.3503 -0.0226
   52MOL   H53137353   5.278   5.896   3.499  0.3705 -0.6176 -1.4640
   52MOL   H53237354   5.255   5.967   3.355  0.7202 -1.7509 -2.2452
   52MOL   H53337355   5.435   6.132   3.379  1.1832 -0.1912  0.9731
   52MOL   H53437356   5.447   6.077   3.554  0.7756 -0.9464 -0.3053
   52MOL   H53537357   5.228   6.137   3.601  1.2787 -3.0955 -1.8762
   52MOL   H53637358   5.182   6.173   3.441 -1.1902 -0.4155  1.3353
   52MOL   H53737359   5.112   6.672   3.563 -0.3252  1.0822  1.6661
   52MOL   H53837360   5.227   6.740   3.668  1.4093 -0.4110  1.7411
   52MOL   H53937361   5.132   6.594   3.715  1.8476  0.8964  1.9682
   52MOL   H54037362   5.419   6.687   3.477 -0.3829 -1.1103  2.1430
   52MOL   H54137363   5.432   6.517   3.443 -0.3292 -0.3512  0.9592
   52MOL   C54237364   4.530   7.331   3.003 -0.1533  0.2831  0.0287
   52MOL   C54337365   4.526   7.329   3.162  0.0952 -0.0452  0.5999
   52MOL   C54437366   4.632   7.240   3.231  0.2653  0.0959 -0.3605
   52MOL   C54537367   4.604   7.090   3.208 -0.5337 -0.3211 -0.3110
   52MOL   C54637368   4.721   7.008   3.271  0.3550  0.7218 -0.3360
   52MOL   C54737369   4.865   7.040   3.224  0.0856  0.3931 -0.1835
   52MOL   C54837370   4.954   6.915   3.262 -0.3207  0.5375 -1.2446
   52MOL   C54937371   5.093   6.932   3.207 -0.2124 -0.1196 -0.4191
   52MOL   O55037372   5.169   6.810   3.215  0.3543 -0.9304 -0.4080
   52MOL   C55137373   5.226   6.769   3.333  0.5410 -0.3519 -0.2243
   52MOL   O55237374   5.245   6.846   3.425  0.0401 -0.1978 -0.2694
   52MOL   C55337375   5.284   6.624   3.324 -0.2635  0.2726  0.2977
   52MOL   C55437376   5.168   6.525   3.292 -1.0181  0.1848 -0.7663
   52MOL   C55537377   5.385   6.613   3.204 -0.0780  0.4485 -0.4063
   52MOL   H55637378   4.629   7.357   2.967 -0.2244 -0.0051 -0.3788
   52MOL   H55737379   4.454   7.401   2.968  0.4887  0.8056 -0.3274
   52MOL   H55837380   4.494   7.237   2.962 -3.6926  1.3950  0.4171
   52MOL   H55937381   4.542   7.432   3.193 -1.3353 -0.1499  1.7385
   52MOL   H56037382   4.426   7.303   3.195  0.5230 -1.3064  0.9561
   52MOL   H56137383   4.621   7.259   3.338  2.6349  1.2580 -0.2776
   52MOL   H56237384   4.731   7.265   3.191  0.3033 -1.4211 -1.2287
   52MOL   H56337385   4.509   7.059   3.250 -1.4671  2.8249  0.0601
   52MOL   H56437386   4.613   7.068   3.101  2.0572  0.9268 -0.4145
   52MOL   H56537387   4.703   6.905   3.240  1.1885  0.2908  0.5735
   52MOL   H56637388   4.714   7.019   3.379 -0.8089 -1.5337 -0.1357
   52MOL   H56737389   4.868   7.039   3.115  0.3725 -1.0620 -0.1725
   52MOL   H56837390   4.900   7.132   3.272 -1.5328 -0.4454  2.7404
   52MOL   H56937391   4.961   6.906   3.371  2.9255  0.0430 -1.4205
   52MOL   H57037392   4.892   6.832   3.230 -2.7890  0.8359  2.3987
   52MOL   H57137393   5.128   7.025   3.253 -0.2037  0.0367 -0.7430
   52MOL   H57237394   5.083   6.955   3.101  1.6545 -1.3912 -0.8900
   52MOL   H57337395   5.203   6.422   3.288  1.2631  0.9174 -0.4105
   52MOL   H57437396   5.110   6.551   3.203 -0.2204  2.4333 -0.6579
   52MOL   H57537397   5.093   6.536   3.371  0.1256  0.9186  0.2300
   52MOL   H57637398   5.331   6.634   3.111 -1.8384 -0.3815  0.4045
   52MOL   H57737399   5.401   6.506   3.190  0.9050  0.4060  1.0100
   52MOL   C57837400   6.346   6.067   3.644 -0.2867  0.6473 -0.3317
   52MOL   C57937401   6.200   6.012   3.641 -0.0688 -0.9363 -0.4006
   52MOL   C58037402   6.095   6.097   3.559  0.3802  0.0207  0.2953
   52MOL   C58137403   5.948   6.067   3.591  0.4452 -0.3431 -0.5229
   52MOL   C58237404   5.846   6.155   3.519  0.2175 -0.1751  0.7594
   52MOL   C58337405   5.854   6.306   3.537  0.2538 -0.5663 -0.3303
   52MOL   C58437406   5.726   6.382   3.471  0.4707 -0.0196 -0.7549
   52MOL   C58537407   5.742   6.397   3.323 -0.5304 -0.1739 -0.0693
   52MOL   O58637408   5.630   6.469   3.263 -0.5552 -0.0637 -0.6507
   52MOL   C58737409   5.638   6.609   3.272  0.6093  0.1444  0.1727
   52MOL   O58837410   5.733   6.662   3.320 -0.3744  0.6418  0.3435
   52MOL   C58937411   5.524   6.683   3.193 -0.6528 -0.0428  1.0382
   52MOL   C59037412   5.520   6.828   3.243  0.0287 -1.1406  0.2536
   52MOL   C59137413   5.567   6.690   3.034  0.3519  0.3592  0.0712
   52MOL   H59237414   6.356   6.153   3.711  1.6630 -0.7430  1.2176
   52MOL   H59337415   6.390   6.091   3.548 -0.5336 -2.9379 -1.3807
   52MOL   H59437416   6.415   5.991   3.680  1.7889  2.0755 -1.1758
   52MOL   H59537417   6.167   5.987   3.741  0.3775  0.4629  0.1105
   52MOL   H59637418   6.197   5.912   3.599 -0.1984 -0.7313 -0.8840
   52MOL   H59737419   6.090   6.065   3.455  2.2373  2.6026 -0.6398
   52MOL   H59837420   6.118   6.203   3.564 -0.0689  0.0790  1.2208
   52MOL   H59937421   5.937   6.096   3.696 -0.8926 -1.9431 -0.1852
   52MOL   H60037422   5.920   5.964   3.567 -1.7714 -0.0175  0.5655
   52MOL   H60137423   5.750   6.114   3.550 -0.3635 -0.8217 -1.7724
   52MOL   H60237424   5.845   6.137   3.411 -1.6435 -2.4509  1.1025
   52MOL   H60337425   5.951   6.352   3.521  0.9107 -0.7966  2.7220
   52MOL   H60437426   5.836   6.315   3.645 -2.2101  0.6498 -0.7946
   52MOL   H60537427   5.718   6.482   3.514  1.5454 -0.4204  0.4380
   52MOL   H60637428   5.638   6.325   3.499  0.5916 -0.2023 -0.7500
   52MOL   H60737429   5.838   6.439   3.294  0.3346 -1.9536  0.2045
   52MOL   H60837430   5.732   6.308   3.262  1.9199 -1.2608  1.0556
   52MOL   H60937431   5.485   6.824   3.346  0.0403  1.3866  0.3817
   52MOL   H61037432   5.607   6.887   3.272 -1.8430  1.2240  1.2745
   52MOL   H61137433   5.444   6.890   3.196  1.8049 -1.0961 -2.7455
   52MOL   H61237434   5.649   6.762   3.035 -0.2727  1.0605  1.7002
   52MOL   H61337435   5.496   6.750   2.978 -0.2065 -2.2340 -2.1545
   52MOL   C61437436   6.286   7.320   3.377 -0.0291 -0.3363  0.0006
   52MOL   C61537437   6.184   7.206   3.388 -0.5969 -0.5159 -0.3161
   52MOL   C61637438   6.125   7.147   3.254 -0.4759  0.3627 -0.3901
   52MOL   C61737439   6.104   6.995   3.258  0.7114  0.3761 -0.2838
   52MOL   C61837440   6.100   6.927   3.120  0.4160  0.5099  0.3301
   52MOL   C61937441   6.034   6.791   3.141  0.4495  0.3932  0.0392
   52MOL   C62037442   6.070   6.683   3.031 -0.3521 -0.4296 -0.4702
   52MOL   C62137443   5.971   6.562   3.037 -0.9988 -0.2035 -0.0122
   52MOL   O62237444   5.847   6.599   2.987 -0.5532  0.0472 -0.4895
   52MOL   C62337445   5.748   6.508   2.975  0.4470 -0.2301 -0.0170
   52MOL   O62437446   5.766   6.387   2.988 -0.4485 -0.2970  0.0223
   52MOL   C62537447   5.612   6.573   2.942  0.0680 -0.4875  0.1196
   52MOL   C62637448   5.512   6.461   2.932  0.3049 -0.0731 -0.0217
   52MOL   C62737449   5.619   6.647   2.799 -0.4384 -0.0862  0.4347
   52MOL   H62837450   6.377   7.289   3.428 -0.0389  1.1265  0.9368
   52MOL   H62937451   6.243   7.408   3.425  1.4203  0.8497 -0.8325
   52MOL   H63037452   6.314   7.349   3.276 -0.0582  0.3709  0.1952
   52MOL   H63137453   6.237   7.126   3.440 -0.7251  0.8463  1.9750
   52MOL   H63237454   6.111   7.240   3.462  1.0511  0.8151  0.7364
   52MOL   H63337455   6.192   7.169   3.171  0.1684 -0.7033 -0.1708
   52MOL   H63437456   6.030   7.198   3.237 -1.5469 -1.8084 -1.1342
   52MOL   H63537457   6.015   6.978   3.317  1.9523  0.4469  1.6484
   52MOL   H63637458   6.183   6.940   3.309  2.1619  0.9653 -1.8339
   52MOL   H63737459   6.048   6.988   3.047 -0.1421  1.1176  1.2177
   52MOL   H63837460   6.198   6.911   3.076  0.4179 -1.9560  1.1873
   52MOL   H63937461   6.055   6.752   3.241  4.4069 -0.2516 -0.9434
   52MOL   H64037462   5.926   6.798   3.152  0.6834  0.5966  2.5256
   52MOL   H64137463   6.173   6.651   3.041  0.8605  3.4758  0.2080
   52MOL   H64237464   6.075   6.734   2.935  3.8494 -1.1974 -0.7180
   52MOL   H64337465   5.999   6.475   2.979  1.0592  0.5446 -0.1900
   52MOL   H64437466   5.970   6.519   3.137  0.9121 -0.4216 -0.0733
   52MOL   H64537467   5.519   6.394   3.018 -1.3564 -0.0091  0.1765
   52MOL   H64637468   5.538   6.391   2.852 -1.2800 -0.5995 -0.0949
   52MOL   H64737469   5.411   6.501   2.930  0.0641 -0.6665  0.0334
   52MOL   H64837470   5.701   6.718   2.810 -0.5339  0.1559 -0.3763
   52MOL   H64937471   5.546   6.726   2.783  0.0567  0.2098 -0.3767
   52MOL   C65037472   5.285   5.645   2.303  0.4630 -0.1608  0.1002
   52MOL   C65137473   5.334   5.764   2.227 -0.4628 -0.0721  0.1492
   52MOL   C65237474   5.437   5.847   2.293  0.7262 -0.6237  0.0193
   52MOL   C65337475   5.465   5.974   2.211 -0.1394  0.7702 -0.1896
   52MOL   C65437476   5.583   6.064   2.260  0.5877 -0.1839  0.1295
   52MOL   C65537477   5.555   6.133   2.402 -0.7525  0.3186  0.0726
   52MOL   C65637478   5.441   6.240   2.395 -0.4606  0.4487  0.9410
   52MOL   C65737479   5.410   6.297   2.536  0.5214  0.2878  0.2164
   52MOL   O65837480   5.516   6.383   2.583  0.0190 -0.2493  0.0157
   52MOL   C65937481   5.500   6.514   2.618 -0.4285  0.0547  0.0240
   52MOL   O66037482   5.396   6.586   2.612 -0.5535  0.3180  0.3221
   52MOL   C66137483   5.636   6.577   2.656  0.3795 -1.0335 -0.6897
   52MOL   C66237484   5.747   6.473   2.663 -0.7103 -0.0786 -0.3426
   52MOL   C66337485   5.670   6.699   2.558  0.4591  0.2695 -0.2270
   52MOL   H66437486   5.256   5.564   2.237 -3.3957  0.7432  0.6012
   52MOL   H66537487   5.195   5.667   2.360 -0.4900  0.5195 -1.6174
   52MOL   H66637488   5.361   5.599   2.367 -1.6881 -0.1465  2.7485
   52MOL   H66737489   5.259   5.829   2.182 -1.5590  0.9680  3.3026
   52MOL   H66837490   5.384   5.731   2.136 -1.0453  1.9715 -0.9258
   52MOL   H66937491   5.524   5.794   2.330  0.9959  0.5386  1.0780
   52MOL   H67037492   5.387   5.894   2.378 -0.8752  1.1048 -1.8462
   52MOL   H67137493   5.384   6.040   2.183 -1.6732  0.5841  3.5093
   52MOL   H67237494   5.488   5.942   2.109 -1.5208  2.4195 -1.0336
   52MOL   H67337495   5.609   6.143   2.190  2.6989 -1.0323 -0.0823
   52MOL   H67437496   5.677   6.011   2.273  0.0825 -0.8037  1.4440
   52MOL   H67537497   5.530   6.052   2.471 -1.0892 -0.4700 -0.9689
   52MOL   H67637498   5.652   6.178   2.426 -0.9801  1.1539 -0.5538
   52MOL   H67737499   5.358   6.188   2.347  0.4924 -0.2761  0.0637
   52MOL   H67837500   5.464   6.325   2.330 -0.0786 -1.3263 -1.2864
   52MOL   H67937501   5.393   6.226   2.617  1.0520 -1.1437 -0.9005
   52MOL   H68037502   5.322   6.359   2.522  0.7761  0.4874 -0.4857
   52MOL   H68137503   5.727   6.394   2.735  0.4239  1.7116  2.0092
   52MOL   H68237504   5.843   6.517   2.691 -0.6989 -0.5073  0.2911
   52MOL   H68337505   5.753   6.438   2.560  0.0950  0.3530 -0.4509
   52MOL   H68437506   5.575   6.750   2.549 -0.4041 -0.9782  1.5506
   52MOL   H68537507   5.725   6.779   2.608  0.9542 -0.7202  0.8536
   52MOL   C68637508   6.646   6.480   2.962 -0.8517  0.1864 -0.8368
   52MOL   C68737509   6.655   6.629   2.971 -0.4963  0.0281 -0.4044
   52MOL   C68837510   6.532   6.704   2.917  0.2324 -0.1630 -0.0592
   52MOL   C68937511   6.483   6.675   2.776 -0.2871 -1.2745 -0.6921
   52MOL   C69037512   6.356   6.759   2.739  0.1137  0.5061 -0.6474
   52MOL   C69137513   6.290   6.695   2.616 -0.4291 -0.5766 -0.1203
   52MOL   C69237514   6.144   6.737   2.598  0.2499 -0.3638  0.4653
   52MOL   C69337515   6.082   6.650   2.493  0.0548 -0.3317 -0.2640
   52MOL   O69437516   5.942   6.682   2.485  0.5552 -0.5166  0.2153
   52MOL   C69537517   5.856   6.623   2.393 -0.5010 -0.6747  0.0361
   52MOL   O69637518   5.889   6.539   2.311  0.0362  0.1910  0.4275
   52MOL   C69737519   5.716   6.676   2.409  0.3827 -0.3926  0.2912
   52MOL   C69837520   5.728   6.824   2.351  1.1038 -0.1113 -0.4200
   52MOL   C69937521   5.615   6.597   2.320 -0.4543 -0.3127 -0.3261
   52MOL   H70037522   6.562   6.441   3.020 -0.7436  2.3317  0.8390
   52MOL   H70137523   6.740   6.442   3.003 -1.5634 -2.5718 -1.6804
   52MOL   H70237524   6.653   6.449   2.858 -1.3225  0.5840 -0.9877
   52MOL   H70337525   6.732   6.655   2.899  0.8669 -1.0724  0.6296
   52MOL   H70437526   6.687   6.652   3.073  2.6200 -1.3155 -1.0235
   52MOL   H70537527   6.550   6.811   2.928 -1.3030  0.0391  0.6200
   52MOL   H70637528   6.450   6.689   2.988  0.8655 -1.1078  0.4802
   52MOL   H70737529   6.467   6.567   2.772 -2.5826 -1.0352  0.8757
   52MOL   H70837530   6.567   6.692   2.709  0.1386 -1.7920 -0.3019
   52MOL   H70937531   6.376   6.865   2.719 -0.2803  0.6028 -0.5347
   52MOL   H71037532   6.286   6.768   2.822 -0.6882 -0.4813 -1.2200
   52MOL   H71137533   6.339   6.692   2.518  0.4032 -3.5226  0.3230
   52MOL   H71237534   6.288   6.589   2.643 -0.9493 -0.6618 -0.4763
   52MOL   H71337535   6.089   6.738   2.692  0.1676  1.3634  0.4211
   52MOL   H71437536   6.133   6.842   2.568 -0.1207 -0.2942  0.8334
   52MOL   H71537537   6.077   6.545   2.522  1.5162 -0.6440 -1.0775
   52MOL   H71637538   6.134   6.652   2.397 -0.3225 -2.5970 -0.5342
   52MOL   H71737539   5.766   6.821   2.249  0.4451  0.3465 -0.6872
   52MOL   H71837540   5.627   6.866   2.342  0.9371 -0.3746  0.2053
   52MOL   H71937541   5.792   6.890   2.410  0.7939 -0.2919  0.1271
   52MOL   H72037542   5.636   6.628   2.217  0.7822  0.6351  0.2146
   52MOL   H72137543   5.509   6.615   2.340 -0.2822  0.1153  0.1888
   52MOL   H72237544   5.636   6.490   2.313 -2.8510 -0.9048  0.8653
   53MOL     C137545   1.776   2.841   3.174  0.8291  0.3259  0.1314
   53MOL     C237546   1.893   2.762   3.217 -0.3260 -0.1501  0.3074
   53MOL     C337547   2.018   2.777   3.123 -0.4940 -0.5000  0.0821
   53MOL     C437548   2.129   2.670   3.160  0.0249 -0.3680  0.9217
   53MOL     C537549   2.253   2.690   3.061  1.0415  0.8166 -0.2585
   53MOL     C637550   2.374   2.603   3.098  0.4134 -0.1461  0.4595
   53MOL     C737551   2.338   2.452   3.105 -0.0182 -0.1741  0.4782
   53MOL     C837552   2.472   2.364   3.103 -0.5846 -0.1315  0.1389
   53MOL     O937553   2.519   2.381   3.235 -0.5966 -0.1812  0.3379
   53MOL    C1037554   2.641   2.356   3.262 -0.0749 -0.2382  0.5185
   53MOL    O1137555   2.713   2.285   3.187 -0.7185 -0.3888 -0.6430
   53MOL    C1237556   2.685   2.408   3.403 -0.1906  0.8451 -0.2687
   53MOL    C1337557   2.839   2.398   3.424 -0.4877  0.0529 -0.2004
   53MOL    C1437558   2.635   2.550   3.443 -0.3085  0.3483  0.3866
   53MOL    H1537559   1.766   2.804   3.071 -2.7168 -0.0664  0.5570
   53MOL    H1637560   1.778   2.950   3.172 -0.7093  0.3601  0.3541
   53MOL    H1737561   1.692   2.820   3.240  1.4634  2.5219  1.6937
   53MOL    H1837562   1.864   2.658   3.204  2.0815 -0.8951  0.5377
   53MOL    H1937563   1.915   2.768   3.324 -1.1699  2.0242  0.3817
   53MOL    H2037564   1.978   2.761   3.023  0.5785 -1.7750 -0.1538
   53MOL    H2137565   2.058   2.878   3.124 -3.2901  0.6773  0.1327
   53MOL    H2237566   2.159   2.695   3.262 -1.1835  0.1805  1.1486
   53MOL    H2337567   2.089   2.570   3.170 -0.0368 -0.6127 -1.5086
   53MOL    H2437568   2.287   2.793   3.067 -2.7053  1.9980  2.5182
   53MOL    H2537569   2.224   2.660   2.960 -1.3605 -0.1694  0.6947
   53MOL    H2637570   2.410   2.635   3.196 -1.6971 -1.2814  1.6236
   53MOL    H2737571   2.455   2.609   3.026 -0.6549 -0.6678 -0.7949
   53MOL    H2837572   2.283   2.431   3.014 -1.8900  1.1969  1.2604
   53MOL    H2937573   2.277   2.422   3.190 -0.1359  3.5038  1.7929
   53MOL    H3037574   2.538   2.386   3.019  1.1928 -0.8278  1.3151
   53MOL    H3137575   2.441   2.260   3.101 -2.4101  0.3946 -0.1063
   53MOL    H3237576   2.881   2.298   3.422 -0.3652  0.1136 -0.7486
   53MOL    H3337577   2.894   2.450   3.345  1.2418  0.6857  1.3950
   53MOL    H3437578   2.875   2.439   3.518  0.9017  0.1560 -0.7616
   53MOL    H3537579   2.594   2.598   3.354 -1.3503 -1.5754 -0.1975
   53MOL    H3637580   2.728   2.607   3.447 -0.9589  1.2443  3.1670
   53MOL    H3737581   2.636   2.331   3.462  2.1469  1.3639  2.4110
   53MOL    C3837582   3.486   2.092   4.225 -0.2827 -0.2523 -0.0736
   53MOL    C3937583   3.361   2.183   4.216  0.1644 -0.6622 -0.0776
   53MOL    C4037584   3.271   2.162   4.098 -0.1674 -0.0344 -0.2286
   53MOL    C4137585   3.144   2.253   4.090  0.2125 -0.7467  0.0403
   53MOL    C4237586   3.067   2.274   3.959 -0.3530  0.2823  0.0446
   53MOL    C4337587   2.968   2.387   3.955  0.4245  0.0298  0.6937
   53MOL    C4437588   2.914   2.421   3.819  0.3052 -0.1739 -0.0607
   53MOL    C4537589   2.829   2.547   3.835 -0.0271  0.2918  0.2905
   53MOL    O4637590   2.745   2.571   3.717 -0.4779  0.2360  0.0767
   53MOL    C4737591   2.624   2.514   3.689  0.0946 -0.2759  0.6505
   53MOL    O4837592   2.582   2.411   3.749 -0.1617  0.0053  0.2812
   53MOL    C4937593   2.553   2.586   3.571  0.1813  0.4919 -0.2140
   53MOL    C5037594   2.410   2.531   3.540  0.1934 -0.0713  0.0685
   53MOL    C5137595   2.552   2.740   3.592 -0.2009  0.5256  0.2439
   53MOL    H5237596   3.549   2.107   4.312  0.8420  1.4306 -1.1495
   53MOL    H5337597   3.557   2.102   4.143  1.0077 -0.4897  1.0061
   53MOL    H5437598   3.457   1.987   4.227  1.2373 -0.6560  0.7761
   53MOL    H5537599   3.391   2.288   4.214 -0.4599 -0.4862 -3.3742
   53MOL    H5637600   3.298   2.166   4.303 -3.6201 -2.8055 -3.0468
   53MOL    H5737601   3.326   2.189   4.008  1.4370 -0.7806  0.5049
   53MOL    H5837602   3.240   2.059   4.081 -1.2991  0.6266 -2.3226
   53MOL    H5937603   3.170   2.355   4.118 -1.8976  0.3742 -1.8864
   53MOL    H6037604   3.080   2.226   4.174 -0.2803  2.2399  0.7064
   53MOL    H6137605   3.148   2.289   3.886 -1.0286  0.9906 -0.5625
   53MOL    H6237606   3.014   2.183   3.930  0.3742  0.7183 -2.8670
   53MOL    H6337607   2.883   2.367   4.020 -1.7337  1.7824 -1.4629
   53MOL    H6437608   3.013   2.477   3.998 -0.6088  1.5050 -1.1945
   53MOL    H6537609   2.859   2.330   3.794  0.8387 -0.7001  0.6692
   53MOL    H6637610   2.984   2.439   3.738 -1.5667  0.2074 -1.6158
   53MOL    H6737611   2.888   2.638   3.848  1.5054 -0.6799  0.2650
   53MOL    H6837612   2.753   2.535   3.912  0.2411  0.0797  0.5177
   53MOL    H6937613   2.354   2.590   3.467  0.9365 -2.6850 -2.6804
   53MOL    H7037614   2.415   2.439   3.483 -0.9999 -0.7580  1.0417
   53MOL    H7137615   2.354   2.502   3.629 -1.0272  1.7960 -0.0662
   53MOL    H7237616   2.517   2.774   3.495 -2.7314 -2.1316  0.1517
   53MOL    H7337617   2.657   2.771   3.595  0.0631 -0.4658  1.8040
   53MOL    C7437618   2.509   3.939   3.942  0.1126 -0.6499 -0.6147
   53MOL    C7537619   2.503   3.872   3.800 -0.1560  0.7088 -0.4328
   53MOL    C7637620   2.486   3.722   3.818 -0.5384 -0.6922  0.2775
   53MOL    C7737621   2.491   3.642   3.682 -0.0031 -0.4215  0.2439
   53MOL    C7837622   2.439   3.496   3.702 -0.4505 -0.4739  0.9765
   53MOL    C7937623   2.515   3.400   3.612  0.7374 -0.2648 -0.5228
   53MOL    C8037624   2.470   3.255   3.637 -0.2364  0.4182  0.4111
   53MOL    C8137625   2.544   3.152   3.543  0.0598 -0.0860 -0.6233
   53MOL    O8237626   2.493   3.022   3.581 -0.0619  0.4445 -0.1551
   53MOL    C8337627   2.529   2.959   3.695 -0.4532 -0.5377  0.2707
   53MOL    O8437628   2.601   3.006   3.783  0.1514  0.3088 -0.1867
   53MOL    C8537629   2.478   2.808   3.704 -0.1440  0.3536 -0.6724
   53MOL    C8637630   2.329   2.818   3.664  0.4171 -0.3640 -0.3181
   53MOL    C8737631   2.501   2.752   3.847 -0.2089  0.2743 -0.4959
   53MOL    H8837632   2.411   3.931   3.990  1.1390 -0.6956  1.5007
   53MOL    H8937633   2.529   4.046   3.937  1.8133 -0.8372  1.6458
   53MOL    H9037634   2.581   3.895   4.011  1.6672  0.3070 -1.6048
   53MOL    H9137635   2.592   3.894   3.740  1.8543  0.0905  2.2410
   53MOL    H9237636   2.422   3.927   3.751 -0.9073  0.2732  0.3087
   53MOL    H9337637   2.563   3.675   3.879  0.8841  0.6153 -0.4714
   53MOL    H9437638   2.390   3.719   3.870 -0.2221  0.1075  0.9155
   53MOL    H9537639   2.588   3.657   3.635  1.0771 -0.4218  2.4299
   53MOL    H9637640   2.418   3.697   3.623  0.6355  0.4874  0.2943
   53MOL    H9737641   2.476   3.470   3.801  0.7228  1.2907  1.0224
   53MOL    H9837642   2.332   3.480   3.691 -0.3403 -0.9247  0.5308
   53MOL    H9937643   2.506   3.432   3.508  0.1058 -0.5856 -0.5633
   53MOL   H10037644   2.621   3.397   3.641  0.5883  0.4755  0.1064
   53MOL   H10137645   2.485   3.239   3.744 -0.7009  2.5067  0.7985
   53MOL   H10237646   2.363   3.255   3.613 -0.6728  1.8992  2.2184
   53MOL   H10337647   2.650   3.144   3.565 -0.0198  0.7287  0.1202
   53MOL   H10437648   2.536   3.170   3.436  1.1938 -0.8604 -0.8392
   53MOL   H10537649   2.278   2.723   3.648 -1.2568  0.8584 -2.4336
   53MOL   H10637650   2.323   2.852   3.561 -1.7514 -0.4620 -0.2282
   53MOL   H10737651   2.261   2.877   3.726 -0.4439 -1.0668 -0.5928
   53MOL   H10837652   2.493   2.644   3.833  0.0046  0.0716  0.8899
   53MOL   H10937653   2.607   2.770   3.864 -0.6795  1.7903  1.0059
   53MOL   C11037654   1.742   2.301   3.442  0.7034 -0.7719 -0.0625
   53MOL   C11137655   1.807   2.432   3.393  0.3650  0.1849  0.5375
   53MOL   C11237656   1.954   2.441   3.428  0.5503  0.0370 -0.4334
   53MOL   C11337657   1.991   2.457   3.577 -0.3334 -0.2357  0.0426
   53MOL   C11437658   1.978   2.601   3.627 -0.0790  0.3929 -0.0688
   53MOL   C11537659   2.024   2.621   3.771 -0.0641 -0.0985 -0.1866
   53MOL   C11637660   2.004   2.758   3.838 -0.8026  0.0706 -0.3750
   53MOL   C11737661   2.049   2.774   3.984 -0.1734 -0.5660 -0.7641
   53MOL   O11837662   2.189   2.818   3.991  0.0537  0.4515 -0.1742
   53MOL   C11937663   2.289   2.723   3.983  0.7014 -0.2245 -0.3516
   53MOL   O12037664   2.265   2.602   3.964 -0.7379  0.6703  0.3227
   53MOL   C12137665   2.434   2.781   3.983  0.1723 -0.1754  0.1649
   53MOL   C12237666   2.438   2.934   4.019  0.3860 -0.2632  0.4142
   53MOL   C12337667   2.522   2.706   4.089  0.1759  0.2327  0.4026
   53MOL   H12437668   1.730   2.295   3.551  2.2718  0.7602  0.2193
   53MOL   H12537669   1.638   2.294   3.409  0.0903  1.6354  1.1818
   53MOL   H12637670   1.798   2.215   3.408 -0.3149 -0.4734 -2.5758
   53MOL   H12737671   1.758   2.522   3.431  0.5621 -0.1002  1.4740
   53MOL   H12837672   1.800   2.448   3.285  0.6992  0.7287  0.5937
   53MOL   H12937673   1.994   2.529   3.377  0.0174 -0.4660 -1.7469
   53MOL   H13037674   2.009   2.353   3.394  1.4040  1.1683 -2.0169
   53MOL   H13137675   1.952   2.378   3.641  0.9454  0.4257  1.6781
   53MOL   H13237676   2.097   2.429   3.576  0.2218  1.7741  0.3894
   53MOL   H13337677   1.877   2.637   3.610 -0.8219 -1.2536  0.7584
   53MOL   H13437678   2.031   2.664   3.554  0.5765 -4.1896 -3.8418
   53MOL   H13537679   1.964   2.554   3.833  1.1966 -1.3220 -0.2472
   53MOL   H13637680   2.123   2.574   3.762  0.3566  0.2162  2.3614
   53MOL   H13737681   1.898   2.784   3.833 -0.4547  1.6760  0.1985
   53MOL   H13837682   2.044   2.836   3.773 -3.0495  0.5785 -1.2060
   53MOL   H13937683   2.000   2.861   4.027 -1.8467 -1.2724 -1.2186
   53MOL   H14037684   2.036   2.682   4.041 -0.6880  0.4236  0.7467
   53MOL   H14137685   2.384   2.996   3.948  2.6390 -0.4958 -1.5581
   53MOL   H14237686   2.374   2.941   4.108  0.1183 -0.3820  0.2326
   53MOL   H14337687   2.538   2.968   4.045  0.2857  0.8696 -0.6861
   53MOL   H14437688   2.623   2.748   4.092 -0.0626  0.7216  2.2276
   53MOL   H14537689   2.537   2.606   4.047 -2.0953 -0.2155  0.5733
   53MOL   C14637690   2.899   2.764   5.009  0.4460 -0.8778  0.0346
   53MOL   C14737691   2.971   2.859   4.914 -0.3930 -0.2452 -0.3877
   53MOL   C14837692   2.881   2.927   4.811 -0.5829  0.2520 -0.3677
   53MOL   C14937693   2.945   2.999   4.688  0.1375 -0.5840 -0.4044
   53MOL   C15037694   2.837   3.077   4.610  0.0672  0.2550  0.5022
   53MOL   C15137695   2.724   2.993   4.548  0.6566 -0.2258  0.2307
   53MOL   C15237696   2.630   3.083   4.466  0.7460 -0.4230 -0.1733
   53MOL   C15337697   2.493   3.017   4.435  0.3324 -0.3223 -0.0376
   53MOL   O15437698   2.526   2.908   4.344  0.0373 -0.3725 -0.3755
   53MOL   C15537699   2.435   2.804   4.330  0.1666  0.3175  0.2201
   53MOL   O15637700   2.321   2.800   4.377 -0.1568  0.0887  0.2210
   53MOL   C15737701   2.491   2.684   4.247  0.4545  0.2119  0.0141
   53MOL   C15837702   2.393   2.563   4.244  0.5232  0.1646 -0.2268
   53MOL   C15937703   2.629   2.629   4.312  0.4210 -0.0755  1.2323
   53MOL   H16037704   2.979   2.701   5.049  0.7099 -1.2115 -0.9934
   53MOL   H16137705   2.845   2.692   4.949  0.4548  0.5976 -1.7961
   53MOL   H16237706   2.839   2.803   5.091  1.5076 -1.0602  0.9090
   53MOL   H16337707   3.040   2.922   4.970 -0.3674  1.2287 -2.0207
   53MOL   H16437708   3.042   2.801   4.854 -0.1904  4.0488 -4.5695
   53MOL   H16537709   2.802   2.985   4.858 -0.8469 -0.1171 -0.3561
   53MOL   H16637710   2.822   2.842   4.776 -0.2217 -0.0399 -0.2732
   53MOL   H16737711   3.027   3.064   4.718 -0.8998 -0.3561  2.1017
   53MOL   H16837712   2.978   2.916   4.626  1.3785 -0.0415 -0.4780
   53MOL   H16937713   2.890   3.128   4.530  0.0759 -1.0015 -0.3019
   53MOL   H17037714   2.784   3.152   4.669  0.2560  0.9461 -0.2014
   53MOL   H17137715   2.664   2.955   4.631  2.0108 -2.0685  0.4058
   53MOL   H17237716   2.775   2.919   4.488 -3.0794 -2.0453 -0.8295
   53MOL   H17337717   2.618   3.178   4.517  0.7594  0.7186 -2.2477
   53MOL   H17437718   2.686   3.103   4.374  2.7639  1.8196  1.4762
   53MOL   H17537719   2.446   2.968   4.520 -2.7988  0.5165 -1.2125
   53MOL   H17637720   2.418   3.082   4.390 -0.8573 -0.6035  1.5019
   53MOL   H17737721   2.294   2.602   4.219  0.4326 -0.4294 -0.8047
   53MOL   H17837722   2.386   2.509   4.338  0.4667 -0.6846 -0.7206
   53MOL   H17937723   2.416   2.491   4.166 -1.8298  1.0134 -1.7720
   53MOL   H18037724   2.705   2.705   4.294 -0.7359  0.9503  0.6649
   53MOL   H18137725   2.659   2.546   4.247 -0.3187 -0.4285  1.3348
   53MOL   C18237726   2.998   2.417   5.369 -0.0577  0.2403 -0.0122
   53MOL   C18337727   2.994   2.366   5.224 -0.1724 -0.1466  0.0099
   53MOL   C18437728   2.852   2.325   5.181  0.4376 -0.3632 -0.5447
   53MOL   C18537729   2.844   2.281   5.031  0.2435 -0.5387  0.0726
   53MOL   C18637730   2.700   2.282   4.980  0.4149  0.2605 -0.7235
   53MOL   C18737731   2.678   2.245   4.833  0.3443  0.7066  0.1964
   53MOL   C18837732   2.531   2.251   4.788 -0.6319  0.7356  0.2973
   53MOL   C18937733   2.520   2.264   4.635  0.5004  0.1804  0.6366
   53MOL   O19037734   2.576   2.391   4.611  0.3980  0.0981 -0.4617
   53MOL   C19137735   2.591   2.425   4.481  0.2892  0.7630  0.2051
   53MOL   O19237736   2.583   2.347   4.392  0.6689 -0.0266  0.7646
   53MOL   C19337737   2.637   2.574   4.461  0.0192  0.4104 -0.5081
   53MOL   C19437738   2.548   2.647   4.558  1.0635 -0.2666 -0.0499
   53MOL   C19537739   2.782   2.594   4.519 -0.6207  0.3117 -0.7243
   53MOL   H19637740   3.097   2.455   5.395 -0.0243 -0.5343  1.0067
   53MOL   H19737741   2.929   2.501   5.380 -0.6953 -0.2980  0.1291
   53MOL   H19837742   2.972   2.333   5.433 -1.0725  0.4630 -0.1236
   53MOL   H19937743   3.054   2.276   5.211 -2.1086 -1.2727 -1.5732
   53MOL   H20037744   3.019   2.433   5.141 -2.5208 -3.1018 -3.2683
   53MOL   H20137745   2.820   2.241   5.242  0.0069  1.1009  1.2708
   53MOL   H20237746   2.788   2.411   5.198  0.8023 -0.2426  0.2265
   53MOL   H20337747   2.907   2.347   4.971  1.8253 -0.2222  2.0416
   53MOL   H20437748   2.891   2.185   5.009  1.2342  0.4154 -2.1342
   53MOL   H20537749   2.660   2.383   4.985 -1.2808 -0.3219 -1.8156
   53MOL   H20637750   2.635   2.219   5.042 -0.4449 -0.3614 -2.2218
   53MOL   H20737751   2.729   2.151   4.810  1.1212  0.3357  3.2130
   53MOL   H20837752   2.732   2.318   4.774 -2.4726  0.9721 -2.1936
   53MOL   H20937753   2.478   2.162   4.821 -0.2151 -0.2844 -1.6774
   53MOL   H21037754   2.485   2.334   4.841  1.1335  0.7923  1.7897
   53MOL   H21137755   2.421   2.258   4.589 -0.1709  1.9691  1.7705
   53MOL   H21237756   2.579   2.183   4.594 -1.2501 -0.7149 -0.1834
   53MOL   H21337757   2.440   2.627   4.556  1.2161 -1.4155  1.6780
   53MOL   H21437758   2.566   2.621   4.662 -0.7974 -0.8279  0.1657
   53MOL   H21537759   2.553   2.756   4.554  1.2071 -0.1219  2.7811
   53MOL   H21637760   2.784   2.702   4.533  0.3179  0.0844  0.9056
   53MOL   H21737761   2.776   2.558   4.621  0.2770 -1.4117 -1.2699
   53MOL   C21837762   3.394   3.669   4.198  0.4869  0.6930  0.1572
   53MOL   C21937763   3.339   3.530   4.157 -0.2731  0.6024 -0.0284
   53MOL   C22037764   3.320   3.418   4.266 -0.5114  0.6005 -0.0620
   53MOL   C22137765   3.270   3.284   4.206 -0.5069 -0.4664  0.4100
   53MOL   C22237766   3.196   3.192   4.305 -1.1015  0.4924  0.5787
   53MOL   C22337767   3.139   3.063   4.233  0.2645  0.1922  0.5360
   53MOL   C22437768   3.051   2.975   4.323  0.4144  0.1441  0.3111
   53MOL   C22537769   3.013   2.841   4.260 -0.3265  0.3135 -0.2062
   53MOL   O22637770   2.970   2.750   4.364 -0.3828  0.4649  1.1483
   53MOL   C22737771   2.967   2.623   4.339 -0.2801  0.2531 -0.4919
   53MOL   O22837772   3.004   2.576   4.231  0.2396  0.1916 -0.3831
   53MOL   C22937773   2.918   2.539   4.459 -0.1565 -0.5806 -1.0727
   53MOL   C23037774   2.891   2.389   4.420  0.9099 -0.0250 -0.6148
   53MOL   C23137775   3.025   2.530   4.571  0.7970 -0.0728 -0.1980
   53MOL   H23237776   3.409   3.727   4.107 -0.8879 -0.4014 -0.8006
   53MOL   H23337777   3.493   3.647   4.239  1.8496  3.2467 -1.6877
   53MOL   H23437778   3.337   3.733   4.265 -0.2567  0.7770 -0.5414
   53MOL   H23537779   3.410   3.489   4.085  0.2772 -0.7851  1.2827
   53MOL   H23637780   3.245   3.544   4.104  0.0541 -0.5901 -0.9633
   53MOL   H23737781   3.418   3.409   4.313 -1.0910 -0.9671  0.8859
   53MOL   H23837782   3.245   3.460   4.333 -1.3099  1.1024 -1.2408
   53MOL   H23937783   3.209   3.289   4.116  2.6631  0.1892 -1.8172
   53MOL   H24037784   3.361   3.237   4.166 -0.1241  1.0631 -0.5415
   53MOL   H24137785   3.262   3.159   4.385  0.8360 -0.5095 -1.3597
   53MOL   H24237786   3.112   3.244   4.350 -2.0821 -0.9097  0.4141
   53MOL   H24337787   3.071   3.094   4.154  0.8295  1.7951  0.6494
   53MOL   H24437788   3.217   3.010   4.179 -0.1142  1.4504 -1.2871
   53MOL   H24537789   2.959   3.026   4.352 -0.2421  0.4777 -2.2250
   53MOL   H24637790   3.095   2.942   4.418 -0.1295 -0.0059  0.5136
   53MOL   H24737791   3.107   2.810   4.213  0.4017 -0.2425  1.5214
   53MOL   H24837792   2.935   2.848   4.185 -1.9406  1.5112  1.5332
   53MOL   H24937793   2.982   2.338   4.387  0.6022 -0.3532 -0.9561
   53MOL   H25037794   2.826   2.384   4.333  1.7324  0.4997 -1.2652
   53MOL   H25137795   2.858   2.332   4.508  0.5451 -2.9653 -2.5833
   53MOL   H25237796   3.012   2.613   4.640  0.4436 -0.4765  0.2288
   53MOL   H25337797   2.993   2.448   4.636  1.9907 -0.5861 -0.2593
   53MOL   C25437798   3.808   3.330   4.084 -0.0738 -0.8401  0.2543
   53MOL   C25537799   3.690   3.345   4.186 -0.3611 -0.0030 -0.5494
   53MOL   C25637800   3.671   3.227   4.281 -0.1935 -0.1467 -0.0853
   53MOL   C25737801   3.650   3.094   4.201 -0.4850  0.2588  0.2994
   53MOL   C25837802   3.584   2.984   4.286 -1.4394  0.0654  0.5079
   53MOL   C25937803   3.566   2.853   4.202 -0.2563  0.3532 -0.2588
   53MOL   C26037804   3.492   2.738   4.278  0.3312  0.4414 -0.2191
   53MOL   C26137805   3.353   2.778   4.347 -0.1413  0.2342 -0.2519
   53MOL   O26237806   3.296   2.654   4.394 -0.3485  0.4881 -0.7850
   53MOL   C26337807   3.234   2.655   4.514 -0.3522 -0.4511 -0.0750
   53MOL   O26437808   3.229   2.753   4.586  0.0000 -0.5318 -1.0094
   53MOL   C26537809   3.178   2.526   4.564  0.4523  0.5814 -0.2392
   53MOL   C26637810   3.217   2.410   4.467  0.4518 -0.4505 -0.8307
   53MOL   C26737811   3.239   2.496   4.708 -0.2077  0.8338 -0.4709
   53MOL   H26837812   3.808   3.405   4.005 -2.7021  0.5999  1.5778
   53MOL   H26937813   3.903   3.358   4.131  0.0234 -0.7257 -0.0095
   53MOL   H27037814   3.813   3.238   4.027  1.0455  0.9109 -2.6005
   53MOL   H27137815   3.708   3.431   4.252 -2.0428 -0.8414  1.0626
   53MOL   H27237816   3.600   3.371   4.130 -1.6283  1.7298  2.1350
   53MOL   H27337817   3.591   3.242   4.353  0.1067  0.4365  0.1295
   53MOL   H27437818   3.753   3.217   4.352 -1.4430  0.0463  1.3853
   53MOL   H27537819   3.737   3.042   4.162 -1.5509 -1.0913 -0.3402
   53MOL   H27637820   3.589   3.116   4.113  2.0258  0.4958 -1.4256
   53MOL   H27737821   3.640   2.958   4.376 -1.0897 -1.9800 -0.2700
   53MOL   H27837822   3.486   3.020   4.315 -1.8042 -1.4039  1.1103
   53MOL   H27937823   3.662   2.813   4.171 -0.6407 -0.7123 -0.0981
   53MOL   H28037824   3.512   2.873   4.109 -1.1093  0.2407  0.2020
   53MOL   H28137825   3.475   2.660   4.205 -0.5081 -1.0913  1.5584
   53MOL   H28237826   3.572   2.708   4.346  1.9272  2.2428 -1.2593
   53MOL   H28337827   3.372   2.854   4.423 -1.3831  0.6936 -0.3974
   53MOL   H28437828   3.283   2.815   4.273  0.6804 -0.2076 -1.2816
   53MOL   H28537829   3.191   2.313   4.511 -0.4102  1.4699  3.0565
   53MOL   H28637830   3.164   2.426   4.373  1.5003  1.8127 -1.0650
   53MOL   H28737831   3.322   2.410   4.438  0.7635 -0.5745  0.2584
   53MOL   H28837832   3.187   2.407   4.744  2.7463  1.5229  6.3136
   53MOL   H28937833   3.200   2.564   4.783  0.2505 -1.6093  2.0500
   53MOL   C29037834   2.986   1.857   5.351 -0.1137 -0.3237 -0.6505
   53MOL   C29137835   3.059   1.942   5.253 -0.1850  0.4540 -0.5040
   53MOL   C29237836   3.029   1.912   5.105  0.2114  0.5572 -0.7607
   53MOL   C29337837   3.118   1.996   5.014 -0.0402 -0.0652 -0.5298
   53MOL   C29437838   3.066   1.991   4.872  0.5792  0.8661 -0.3244
   53MOL   C29537839   3.153   2.064   4.770  0.0382  0.2100 -0.1996
   53MOL   C29637840   3.298   2.017   4.762  0.2634 -0.0521 -0.4776
   53MOL   C29737841   3.386   2.107   4.669 -0.2200  0.5085  0.3839
   53MOL   O29837842   3.364   2.239   4.712  0.0449 -0.2990  0.0780
   53MOL   C29937843   3.445   2.342   4.677 -0.5202 -0.0209 -0.1765
   53MOL   O30037844   3.543   2.330   4.612 -0.7726  0.4556  0.1132
   53MOL   C30137845   3.394   2.478   4.747  0.4612  0.0097  0.4398
   53MOL   C30237846   3.480   2.595   4.696 -0.9140 -0.1928 -1.1157
   53MOL   C30337847   3.397   2.462   4.902 -0.3687  0.1967 -0.1305
   53MOL   H30437848   3.032   1.843   5.449 -0.2075 -0.0735 -0.5693
   53MOL   H30537849   2.947   1.760   5.321 -0.8713 -0.4175  0.6194
   53MOL   H30637850   2.896   1.915   5.370  0.8427  1.1947 -0.5905
   53MOL   H30737851   3.166   1.919   5.261 -0.5286 -0.1861  3.3294
   53MOL   H30837852   3.039   2.048   5.269 -2.1357 -0.0010  0.1669
   53MOL   H30937853   2.930   1.948   5.077 -0.7816 -1.2202  0.4335
   53MOL   H31037854   3.033   1.805   5.085  3.8453  0.6193 -0.6117
   53MOL   H31137855   3.118   2.101   5.042 -1.0091 -0.1762 -0.0910
   53MOL   H31237856   3.222   1.965   5.031  0.4987  1.1437 -1.5484
   53MOL   H31337857   3.051   1.887   4.844  1.5808  0.3948  0.8826
   53MOL   H31437858   2.966   2.036   4.876 -0.3973 -1.2891 -0.1589
   53MOL   H31537859   3.147   2.170   4.794 -1.4537 -0.0160  0.4441
   53MOL   H31637860   3.117   2.047   4.669 -0.4120  1.7021 -0.2944
   53MOL   H31737861   3.297   1.912   4.734  0.4601 -0.0488 -0.5012
   53MOL   H31837862   3.345   2.014   4.860 -0.2341 -1.1802 -0.2742
   53MOL   H31937863   3.337   2.092   4.573  0.9274 -3.0443  0.2869
   53MOL   H32037864   3.482   2.057   4.684 -0.2553  0.1582 -0.5587
   53MOL   H32137865   3.494   2.576   4.590 -0.7711  0.0009 -1.1313
   53MOL   H32237866   3.583   2.595   4.731 -1.5790 -1.1533  0.9435
   53MOL   H32337867   3.438   2.696   4.702  1.4914  0.7926 -0.1290
   53MOL   H32437868   3.333   2.539   4.944 -0.7548 -0.7058  0.9553
   53MOL   H32537869   3.345   2.366   4.910  0.2043 -0.2638 -1.5513
   53MOL   C32637870   3.553   1.395   4.816  0.2366  0.5053  1.1913
   53MOL   C32737871   3.570   1.478   4.949 -1.0528 -0.3563  0.1961
   53MOL   C32837872   3.635   1.620   4.921 -0.2427 -0.0731 -0.1761
   53MOL   C32937873   3.620   1.722   5.039 -0.3252  0.2452  0.0892
   53MOL   C33037874   3.707   1.849   5.026  0.4374 -0.4034 -0.3768
   53MOL   C33137875   3.665   1.953   4.925 -0.1277  1.1529 -0.9599
   53MOL   C33237876   3.769   2.069   4.924  0.0713 -0.7425 -0.3716
   53MOL   C33337877   3.724   2.188   4.838 -0.4580  0.0336  0.3619
   53MOL   O33437878   3.628   2.266   4.908 -0.1496  0.2168 -0.2399
   53MOL   C33537879   3.648   2.394   4.938 -0.3914 -0.2917 -0.0245
   53MOL   O33637880   3.751   2.456   4.925 -0.3867  0.0314  0.3525
   53MOL   C33737881   3.524   2.460   4.996  0.5290  0.6916 -0.3392
   53MOL   C33837882   3.550   2.604   5.034 -1.4361  0.3088  0.4424
   53MOL   C33937883   3.482   2.373   5.125  0.2562 -0.2104  1.0387
   53MOL   H34037884   3.483   1.427   4.739  0.2656 -0.3718  0.7983
   53MOL   H34137885   3.522   1.296   4.847 -0.1653  0.0719 -0.5082
   53MOL   H34237886   3.650   1.390   4.765 -1.4540 -0.0355 -2.1133
   53MOL   H34337887   3.638   1.429   5.018  0.3844 -0.8739 -1.5464
   53MOL   H34437888   3.472   1.480   4.997 -1.6260  1.3499 -1.0289
   53MOL   H34537889   3.585   1.660   4.833 -0.7610  0.7365  0.4807
   53MOL   H34637890   3.737   1.588   4.902  0.8190  2.1412  1.6479
   53MOL   H34737891   3.635   1.682   5.139 -0.3957  1.1451  0.4581
   53MOL   H34837892   3.514   1.744   5.044 -0.5100 -0.9801  2.0803
   53MOL   H34937893   3.713   1.897   5.123 -0.0136  2.9156 -1.9036
   53MOL   H35037894   3.809   1.820   4.998  0.6467 -0.0574  0.0293
   53MOL   H35137895   3.660   1.919   4.822  0.6136 -0.8227 -0.3618
   53MOL   H35237896   3.562   1.982   4.944  0.1786  1.0041  1.1460
   53MOL   H35337897   3.869   2.040   4.890 -0.1558 -1.8750 -0.0986
   53MOL   H35437898   3.779   2.108   5.025 -2.8281  0.4038 -0.4834
   53MOL   H35537899   3.808   2.253   4.814 -1.1339 -0.0244 -2.3251
   53MOL   H35637900   3.684   2.156   4.742  1.7078  0.0236 -0.5791
   53MOL   H35737901   3.474   2.649   5.098 -0.3886 -1.1621  2.7555
   53MOL   H35837902   3.648   2.622   5.077 -0.6106 -0.8678 -0.9297
   53MOL   H35937903   3.564   2.664   4.944  1.9255 -0.0590  0.6534
   53MOL   H36037904   3.386   2.418   5.150  1.0834  1.2211  1.7030
   53MOL   H36137905   3.460   2.270   5.096  1.8104 -0.6239  1.3188
   53MOL   C36237906   3.192   2.724   6.167  0.3919 -0.3097 -0.5815
   53MOL   C36337907   3.188   2.767   6.017 -0.4546  0.2680  0.7126
   53MOL   C36437908   3.328   2.814   5.973 -0.0350 -0.0362  0.2828
   53MOL   C36537909   3.320   2.875   5.832  0.4664  0.4191 -0.6235
   53MOL   C36637910   3.330   2.778   5.717  0.1543 -0.1583 -0.0400
   53MOL   C36737911   3.334   2.840   5.577  0.1071 -0.4374 -0.7292
   53MOL   C36837912   3.340   2.733   5.468  0.1385  0.0265  0.2530
   53MOL   C36937913   3.482   2.686   5.425  0.0389 -0.3999  0.2956
   53MOL   O37037914   3.470   2.571   5.345 -0.5793 -0.2856  0.3477
   53MOL   C37137915   3.582   2.500   5.323 -0.0030 -0.5345  0.0118
   53MOL   O37237916   3.691   2.544   5.341 -0.0701 -0.3592  0.2667
   53MOL   C37337917   3.555   2.360   5.263  1.0510 -0.0984 -0.7964
   53MOL   C37437918   3.694   2.298   5.253  0.6685  0.5541 -0.2947
   53MOL   C37537919   3.454   2.277   5.354  0.3024  0.5362  0.7752
   53MOL   H37637920   3.092   2.720   6.210  0.5506 -2.4836 -0.3922
   53MOL   H37737921   3.228   2.622   6.175 -2.2542 -1.2182  0.3309
   53MOL   H37837922   3.260   2.782   6.229 -1.3817 -0.7200  1.8280
   53MOL   H37937923   3.117   2.846   5.992 -0.8992 -0.4255 -0.2584
   53MOL   H38037924   3.144   2.692   5.950 -1.1928  1.5052 -0.2071
   53MOL   H38137925   3.399   2.732   5.981 -0.2796 -0.2572  0.2123
   53MOL   H38237926   3.372   2.886   6.042 -0.6828  1.4956 -0.8862
   53MOL   H38337927   3.402   2.946   5.819  0.0667  0.6757 -1.7829
   53MOL   H38437928   3.233   2.937   5.813  1.0092  1.4904  0.2994
   53MOL   H38537929   3.414   2.711   5.738  0.7555  0.0343 -1.7412
   53MOL   H38637930   3.244   2.711   5.724 -0.2815  0.1988 -1.6459
   53MOL   H38737931   3.427   2.896   5.574 -1.1923  1.8038 -0.0764
   53MOL   H38837932   3.251   2.911   5.575  1.0442  0.6422 -3.4864
   53MOL   H38937933   3.300   2.776   5.376  2.0524  1.5937  0.1075
   53MOL   H39037934   3.286   2.643   5.497  0.0174  0.3688  1.1090
   53MOL   H39137935   3.525   2.769   5.369  1.0744  0.0434  1.7294
   53MOL   H39237936   3.545   2.664   5.511  1.8760 -1.8882 -1.3732
   53MOL   H39337937   3.680   2.198   5.211  3.2059  0.2239 -0.4557
   53MOL   H39437938   3.766   2.347   5.187 -0.2034  0.8962 -0.9992
   53MOL   H39537939   3.751   2.286   5.345 -0.3496  2.5452  0.6017
   53MOL   H39637940   3.368   2.343   5.364 -0.6854 -0.8328  1.6270
   53MOL   H39737941   3.419   2.191   5.296 -0.6182  0.6278  1.1859
   53MOL   C39837942   3.027   1.347   5.115 -0.4546  0.3401  0.3552
   53MOL   C39937943   3.072   1.484   5.189 -0.0237 -0.6056 -0.1431
   53MOL   C40037944   3.225   1.484   5.211 -0.4776 -0.3455 -0.0587
   53MOL   C40137945   3.266   1.612   5.286  0.7350 -0.4663  0.8657
   53MOL   C40237946   3.421   1.604   5.318 -0.0933 -0.2625 -0.6580
   53MOL   C40337947   3.474   1.747   5.357  0.5473 -0.2854 -0.2899
   53MOL   C40437948   3.601   1.744   5.446 -0.5762  0.8551  0.2714
   53MOL   C40537949   3.652   1.884   5.486 -0.0157 -0.6051  0.4428
   53MOL   O40637950   3.571   1.991   5.451  0.5754  0.0472  0.0458
   53MOL   C40737951   3.601   2.116   5.502  0.0050  0.0715 -0.3995
   53MOL   O40837952   3.699   2.137   5.571  0.4991  0.0953  0.3870
   53MOL   C40937953   3.488   2.226   5.498 -0.4367  0.4092  0.6220
   53MOL   C41037954   3.541   2.358   5.574 -0.2369 -0.2971  0.3446
   53MOL   C41137955   3.350   2.174   5.555 -0.2575 -0.2514  0.0311
   53MOL   H41237956   2.922   1.353   5.087 -0.3062  1.0415 -0.0964
   53MOL   H41337957   3.047   1.262   5.180  0.2106 -0.7946 -1.2974
   53MOL   H41437958   3.099   1.338   5.033 -1.4896  1.0083 -0.6332
   53MOL   H41537959   3.014   1.496   5.281  0.7269 -2.8859  0.6514
   53MOL   H41637960   3.052   1.561   5.114  1.2095 -1.5881 -1.5140
   53MOL   H41737961   3.256   1.397   5.268  1.3279 -0.3237 -0.9868
   53MOL   H41837962   3.280   1.482   5.118 -0.0251  1.2327  0.1476
   53MOL   H41937963   3.210   1.619   5.379 -0.3582 -0.5145  0.2166
   53MOL   H42037964   3.252   1.693   5.215  1.7808  0.4287  1.6691
   53MOL   H42137965   3.421   1.549   5.412 -2.0310 -0.8448 -0.9953
   53MOL   H42237966   3.477   1.546   5.244  0.9818  1.1796 -1.0016
   53MOL   H42337967   3.394   1.803   5.405  0.1774  1.1167 -2.4892
   53MOL   H42437968   3.495   1.802   5.266  2.0247 -1.3953 -0.6345
   53MOL   H42537969   3.563   1.694   5.535  0.2873  0.8311  0.6322
   53MOL   H42637970   3.679   1.689   5.394 -1.7897 -1.0287  0.4147
   53MOL   H42737971   3.651   1.888   5.595 -1.8258  3.3197  0.3520
   53MOL   H42837972   3.749   1.898   5.439  0.1204  0.6400  1.0663
   53MOL   H42937973   3.461   2.432   5.570 -1.0705 -1.2325 -0.5540
   53MOL   H43037974   3.635   2.405   5.544 -0.1987 -0.9696 -0.6254
   53MOL   H43137975   3.563   2.334   5.678  0.5426  0.2335  0.2989
   53MOL   H43237976   3.340   2.077   5.506 -2.1794  0.1535 -0.4065
   53MOL   H43337977   3.271   2.232   5.508 -0.0501  0.1787  0.2143
   53MOL   C43437978   3.810   2.613   6.632 -0.3919 -0.4341  0.6878
   53MOL   C43537979   3.736   2.626   6.502  0.1259  0.1559  0.4534
   53MOL   C43637980   3.684   2.491   6.449  1.0819  0.6939  0.1536
   53MOL   C43737981   3.576   2.497   6.339  0.8184 -0.0043  0.4677
   53MOL   C43837982   3.546   2.362   6.280 -0.5006 -0.1672 -0.2413
   53MOL   C43937983   3.442   2.377   6.166 -0.2916  0.5198 -0.3242
   53MOL   C44037984   3.479   2.459   6.042 -0.1536 -1.3415 -0.5437
   53MOL   C44137985   3.379   2.453   5.933  0.6586 -0.2168 -0.0540
   53MOL   O44237986   3.368   2.327   5.879 -0.7161  0.8777 -0.0196
   53MOL   C44337987   3.299   2.300   5.764 -0.2297 -0.7835  0.3984
   53MOL   O44437988   3.235   2.388   5.706  0.1024 -0.8075  0.3625
   53MOL   C44537989   3.309   2.159   5.703  0.6583 -0.4145  0.2499
   53MOL   C44637990   3.402   2.061   5.782 -0.5163 -0.0965  0.0895
   53MOL   C44737991   3.163   2.102   5.689 -0.0661  0.4215  0.1376
   53MOL   H44837992   3.738   2.616   6.713 -1.0286 -3.7938  0.3234
   53MOL   H44937993   3.872   2.700   6.654 -0.3195  0.1581 -1.7507
   53MOL   H45037994   3.872   2.526   6.652  0.4230 -0.0028  0.0843
   53MOL   H45137995   3.793   2.670   6.421 -1.7117  1.3505 -0.2156
   53MOL   H45237996   3.648   2.689   6.514 -1.7136 -2.4572  1.2226
   53MOL   H45337997   3.636   2.439   6.532 -0.5331  1.1758 -0.4500
   53MOL   H45437998   3.771   2.429   6.426  0.3541 -0.6461  0.9107
   53MOL   H45537999   3.614   2.561   6.259 -1.3220  0.8262  0.0744
   53MOL   H45638000   3.482   2.538   6.378  0.9774  0.8703 -0.0551
   53MOL   H45738001   3.641   2.334   6.235 -0.8554 -1.0368 -0.4596
   53MOL   H45838002   3.524   2.282   6.351 -0.4709  0.1256  0.1015
   53MOL   H45938003   3.356   2.416   6.221  1.5041  1.7355  1.7479
   53MOL   H46038004   3.428   2.274   6.135 -2.5482  0.4484  0.8288
   53MOL   H46138005   3.497   2.563   6.067 -0.3804 -1.3053 -0.5296
   53MOL   H46238006   3.580   2.425   6.019  0.7105 -0.5758  2.0068
   53MOL   H46338007   3.395   2.521   5.849  0.0472 -0.3258 -0.2624
   53MOL   H46438008   3.284   2.489   5.973  0.9405  0.4642  0.0141
   53MOL   H46538009   3.504   2.100   5.785  0.1707 -1.8743  0.8566
   53MOL   H46638010   3.365   2.072   5.884  2.6521  0.4809  1.2321
   53MOL   H46738011   3.401   1.956   5.754  2.7968  0.0663 -0.8942
   53MOL   H46838012   3.097   2.167   5.632  0.2936  0.4394 -0.2577
   53MOL   H46938013   3.161   2.014   5.624 -0.4916  1.7066 -1.6251
   53MOL   C47038014   3.636   1.129   5.803  0.0552 -0.5436 -0.3982
   53MOL   C47138015   3.517   1.179   5.728  0.2131  0.2714 -0.8230
   53MOL   C47238016   3.381   1.177   5.811 -0.0249 -0.3480 -0.0156
   53MOL   C47338017   3.260   1.201   5.720  0.1880 -0.3762 -0.1217
   53MOL   C47438018   3.248   1.341   5.664  0.2234 -0.2197 -0.2504
   53MOL   C47538019   3.251   1.457   5.762  0.1104 -0.0878 -0.2232
   53MOL   C47638020   3.208   1.596   5.710  0.4049 -0.5572 -0.3828
   53MOL   C47738021   3.212   1.698   5.829 -0.3467  0.1327 -0.2472
   53MOL   O47838022   3.155   1.828   5.787  0.0302  0.2281 -0.4046
   53MOL   C47938023   3.133   1.919   5.879  0.3262  0.0587 -0.2948
   53MOL   O48038024   3.166   1.910   5.997 -0.7306 -0.6254 -0.6516
   53MOL   C48138025   3.073   2.050   5.813  1.1137 -0.3954  0.4355
   53MOL   C48238026   3.049   2.156   5.927  0.0966 -0.2071  0.3694
   53MOL   C48338027   2.934   1.994   5.760 -0.5134 -0.5860 -0.4359
   53MOL   H48438028   3.632   1.201   5.885  0.5937  2.3077 -2.7752
   53MOL   H48538029   3.727   1.140   5.744 -0.9931  1.8674 -1.6275
   53MOL   H48638030   3.624   1.030   5.847  1.6392 -0.5667  0.0302
   53MOL   H48738031   3.534   1.284   5.702 -0.1519  0.7637  0.9018
   53MOL   H48838032   3.504   1.116   5.640 -1.3052 -1.6943  0.7964
   53MOL   H48938033   3.354   1.086   5.863  1.3324 -0.7592 -0.0203
   53MOL   H49038034   3.387   1.253   5.889  2.2295  0.8928 -1.3323
   53MOL   H49138035   3.258   1.130   5.637 -0.8005 -1.3651  0.7341
   53MOL   H49238036   3.173   1.176   5.781 -1.5646 -0.7889 -2.6847
   53MOL   H49338037   3.311   1.366   5.579  3.2240 -2.9820  1.0678
   53MOL   H49438038   3.153   1.355   5.613 -0.1523  3.3026  1.2844
   53MOL   H49538039   3.182   1.421   5.839  1.8721  0.3585  1.6171
   53MOL   H49638040   3.348   1.462   5.812 -0.5297  0.9262  0.9771
   53MOL   H49738041   3.282   1.625   5.635  1.3871  0.6928  1.0385
   53MOL   H49838042   3.111   1.591   5.661  0.0604 -1.8531  0.3895
   53MOL   H49938043   3.314   1.705   5.865  0.2796 -0.1320 -1.9076
   53MOL   H50038044   3.152   1.663   5.913  2.5636 -1.7080  1.1711
   53MOL   H50138045   3.144   2.203   5.953 -1.1693  2.4193  0.3852
   53MOL   H50238046   3.006   2.115   6.018  0.3473 -2.6119 -0.5622
   53MOL   H50338047   2.988   2.236   5.886 -2.4831 -1.4852  1.6226
   53MOL   H50438048   2.957   1.932   5.673  0.6935 -0.3897 -0.2727
   53MOL   H50538049   2.901   1.920   5.833 -0.0493  0.0150  0.3839
   53MOL   C50638050   2.713   2.367   6.897 -0.0952  0.1015 -0.0561
   53MOL   C50738051   2.632   2.388   6.771 -0.4749  0.0953 -0.2389
   53MOL   C50838052   2.710   2.331   6.642 -0.4234 -0.1696  0.2713
   53MOL   C50938053   2.614   2.295   6.525  0.3035  0.1273 -0.3766
   53MOL   C51038054   2.703   2.255   6.407 -0.0401 -0.7201 -0.4195
   53MOL   C51138055   2.618   2.208   6.288 -0.9513 -0.5687 -0.5876
   53MOL   C51238056   2.709   2.149   6.176 -0.6334 -0.2796 -0.4343
   53MOL   C51338057   2.629   2.102   6.058 -0.0482  0.4156 -0.0899
   53MOL   O51438058   2.711   2.062   5.949  0.1142  0.1459 -0.3796
   53MOL   C51538059   2.748   2.151   5.856 -0.6958  0.2963  0.1071
   53MOL   O51638060   2.731   2.267   5.860  0.5439 -0.0607  0.7079
   53MOL   C51738061   2.804   2.082   5.729 -0.2273  0.3652 -0.1451
   53MOL   C51838062   2.830   2.194   5.623 -0.0887 -0.8207  0.1263
   53MOL   C51938063   2.697   1.975   5.671 -0.3810  0.1048  0.5440
   53MOL   H52038064   2.734   2.263   6.921  0.0009  0.0623 -0.3110
   53MOL   H52138065   2.650   2.388   6.983 -1.1285  0.4480 -0.8971
   53MOL   H52238066   2.800   2.433   6.900 -1.2850  1.6717  1.2602
   53MOL   H52338067   2.600   2.490   6.751 -1.5023  0.3578  2.5005
   53MOL   H52438068   2.538   2.334   6.781 -0.2819 -0.3919 -1.0741
   53MOL   H52538069   2.794   2.395   6.615 -1.1747  0.6299 -0.1893
   53MOL   H52638070   2.743   2.231   6.670 -0.9814 -0.7395 -1.0700
   53MOL   H52738071   2.544   2.215   6.550  1.1880 -0.5932 -0.1669
   53MOL   H52838072   2.545   2.374   6.497  1.2070  0.7009 -1.0543
   53MOL   H52938073   2.755   2.346   6.376 -0.3851 -0.8879 -1.5231
   53MOL   H53038074   2.776   2.179   6.433  0.3901 -0.6616 -1.3970
   53MOL   H53138075   2.560   2.294   6.254  1.5979  1.4000 -0.1925
   53MOL   H53238076   2.539   2.136   6.305 -0.7445 -0.6013  0.2655
   53MOL   H53338077   2.774   2.066   6.204 -0.3147 -0.0913 -0.6102
   53MOL   H53438078   2.777   2.224   6.137 -0.6649 -0.8475 -1.6061
   53MOL   H53538079   2.551   2.173   6.031 -0.0574  0.2105 -0.6067
   53MOL   H53638080   2.576   2.015   6.096 -0.4072  1.8278  2.7639
   53MOL   H53738081   2.896   2.263   5.674  0.0392 -0.9784  0.1750
   53MOL   H53838082   2.739   2.247   5.594 -0.2793 -1.5639 -0.6745
   53MOL   H53938083   2.875   2.153   5.532  0.3748  0.0406 -0.0302
   53MOL   H54038084   2.754   1.902   5.614  0.5555 -1.1893  3.0987
   53MOL   H54138085   2.662   1.925   5.761 -0.1472  3.1869  2.4028
   53MOL   C54238086   1.863   2.306   5.453 -0.2584  0.2363  0.3597
   53MOL   C54338087   1.929   2.397   5.345  0.4952 -0.1752  0.3857
   53MOL   C54438088   2.031   2.504   5.402  0.2374 -0.2912 -0.9437
   53MOL   C54538089   2.123   2.568   5.296 -0.0779  0.0546 -0.0425
   53MOL   C54638090   2.215   2.467   5.227 -0.5507 -0.1251 -0.7902
   53MOL   C54738091   2.340   2.422   5.298 -0.0832  0.6369  0.0962
   53MOL   C54838092   2.392   2.282   5.242  0.4779 -0.4183 -1.0450
   53MOL   C54938093   2.524   2.226   5.297  0.1395 -0.3839  0.0110
   53MOL   O55038094   2.508   2.163   5.419  0.1107  0.5248 -0.2346
   53MOL   C55138095   2.596   2.063   5.456 -0.3454 -0.5648  0.2108
   53MOL   O55238096   2.692   2.028   5.392  0.7892 -0.2906 -0.0009
   53MOL   C55338097   2.563   2.009   5.600 -0.4459  0.7211 -1.0858
   53MOL   C55438098   2.481   2.110   5.683  0.8681 -0.2716 -0.4799
   53MOL   C55538099   2.463   1.888   5.592  0.5473 -0.9225  0.5946
   53MOL   H55638100   1.815   2.364   5.532 -2.9249 -1.1629 -0.1732
   53MOL   H55738101   1.950   2.258   5.495  1.2628  1.6096 -1.1109
   53MOL   H55838102   1.797   2.229   5.414  1.0295 -1.6812  1.9256
   53MOL   H55938103   1.981   2.333   5.273  0.0004  0.0456 -0.1700
   53MOL   H56038104   1.852   2.441   5.282 -0.6266 -1.5099  0.8081
   53MOL   H56138105   2.094   2.453   5.475 -1.6766 -1.3224  0.0456
   53MOL   H56238106   1.982   2.583   5.458 -0.5800 -1.2333 -0.3152
   53MOL   H56338107   2.064   2.617   5.218  1.1735 -0.1276 -1.1120
   53MOL   H56438108   2.192   2.648   5.323  0.3649 -0.6939  1.0628
   53MOL   H56538109   2.245   2.513   5.133 -1.7154  0.7958 -0.7142
   53MOL   H56638110   2.155   2.381   5.199  0.1450 -1.2009  0.9755
   53MOL   H56738111   2.422   2.493   5.299  2.4740 -2.2086 -1.7041
   53MOL   H56838112   2.301   2.415   5.400 -1.8124 -2.0825 -0.7040
   53MOL   H56938113   2.316   2.205   5.260 -0.5744  0.9496  0.5015
   53MOL   H57038114   2.402   2.288   5.133  0.2601  1.5459 -0.9657
   53MOL   H57138115   2.606   2.298   5.302  0.1446 -0.4228  0.5229
   53MOL   H57238116   2.556   2.145   5.231 -0.2398 -1.1151  0.7099
   53MOL   H57338117   2.487   2.070   5.784  0.3595 -1.8966 -1.0777
   53MOL   H57438118   2.373   2.120   5.675  0.9003 -0.4710 -1.1775
   53MOL   H57538119   2.526   2.207   5.665 -2.5207  1.0409 -2.3903
   53MOL   H57638120   2.374   1.921   5.537  0.2489 -2.1709  0.3034
   53MOL   H57738121   2.434   1.876   5.696  1.3518 -1.1070  0.7972
   53MOL   C57838122   2.540   0.983   6.069 -0.4885  0.0591  0.7361
   53MOL   C57938123   2.564   0.982   5.915 -0.2158  0.3654  0.1280
   53MOL   C58038124   2.700   1.042   5.866 -0.3863 -0.4133 -0.3534
   53MOL   C58138125   2.703   1.190   5.882 -0.2091  0.4114  0.0901
   53MOL   C58238126   2.837   1.255   5.843 -0.2599 -0.3463  0.0405
   53MOL   C58338127   2.832   1.411   5.868  0.3447  0.5033 -0.7437
   53MOL   C58438128   2.757   1.483   5.757 -0.2649  0.3308 -0.7715
   53MOL   C58538129   2.757   1.637   5.768 -0.1698 -0.0387  0.1308
   53MOL   O58638130   2.646   1.684   5.698  0.3728 -0.4102 -0.4136
   53MOL   C58738131   2.636   1.689   5.564  0.1358  0.1585 -0.0127
   53MOL   O58838132   2.733   1.661   5.487 -0.2850 -0.2115 -0.3055
   53MOL   C58938133   2.496   1.748   5.519 -0.2647 -0.7973  0.2037
   53MOL   C59038134   2.482   1.761   5.367  0.3987  0.6096  0.3885
   53MOL   C59138135   2.382   1.657   5.579 -0.0451 -0.5610 -0.0810
   53MOL   H59238136   2.442   0.938   6.081  0.9207 -4.0324 -2.1416
   53MOL   H59338137   2.549   1.084   6.108  0.6030  0.7773 -1.3400
   53MOL   H59438138   2.616   0.928   6.125 -0.9405 -1.2230  0.1009
   53MOL   H59538139   2.490   1.043   5.862 -0.0722 -0.8376 -1.4981
   53MOL   H59638140   2.562   0.882   5.871 -0.7481  0.6106 -0.4298
   53MOL   H59738141   2.709   1.021   5.760  1.3197  0.9408 -0.4993
   53MOL   H59838142   2.783   0.991   5.916  0.1416  0.5242 -0.2561
   53MOL   H59938143   2.670   1.215   5.983 -0.5600  2.2910 -0.4745
   53MOL   H60038144   2.620   1.238   5.830  0.2944  1.0247 -0.1543
   53MOL   H60138145   2.854   1.238   5.737  0.7097 -1.9058  0.4252
   53MOL   H60238146   2.913   1.208   5.906 -0.9709  0.3525  1.4425
   53MOL   H60338147   2.930   1.454   5.891  1.0077 -0.4255 -1.7670
   53MOL   H60438148   2.774   1.421   5.960 -1.5115  2.7674 -2.0978
   53MOL   H60538149   2.654   1.447   5.759  0.6188 -2.2508  0.2279
   53MOL   H60638150   2.810   1.455   5.666  1.9859  1.2906  0.1995
   53MOL   H60738151   2.734   1.670   5.869 -0.0375  0.3213  0.0463
   53MOL   H60838152   2.856   1.680   5.754 -1.6840  2.9289 -2.0867
   53MOL   H60938153   2.516   1.668   5.321  0.8277  2.4550 -3.2444
   53MOL   H61038154   2.388   1.809   5.336 -0.1759  0.6582  2.1573
   53MOL   H61138155   2.542   1.836   5.315  1.9692 -1.2047 -0.4606
   53MOL   H61238156   2.285   1.706   5.572  0.6641  0.5736 -2.8114
   53MOL   H61338157   2.406   1.650   5.685 -0.0960 -0.1548 -0.0439
   53MOL   C61438158   2.379   0.784   4.821 -0.0008 -0.2213 -0.6493
   53MOL   C61538159   2.385   0.912   4.911  0.5423  0.4069  0.1365
   53MOL   C61638160   2.487   0.909   5.020 -0.2319  0.6353  0.0851
   53MOL   C61738161   2.490   1.033   5.109  0.1140 -0.5011  0.4585
   53MOL   C61838162   2.568   1.013   5.242 -0.2460 -1.0728  0.5894
   53MOL   C61938163   2.563   1.136   5.332 -0.3276  0.5835  0.6658
   53MOL   C62038164   2.624   1.262   5.273  0.3484  0.4471  0.5011
   53MOL   C62138165   2.655   1.368   5.377 -0.0916  0.3711  0.4334
   53MOL   O62238166   2.537   1.446   5.404  0.3739  0.2190 -0.5707
   53MOL   C62338167   2.466   1.417   5.513 -0.2205 -0.5095 -0.1087
   53MOL   O62438168   2.502   1.328   5.592 -0.6293 -0.0370  0.3172
   53MOL   C62538169   2.341   1.509   5.530  0.5257 -0.2770 -0.8129
   53MOL   C62638170   2.252   1.439   5.640 -0.2990  0.8158  0.0147
   53MOL   C62738171   2.256   1.522   5.395  0.2313  0.3149 -0.2163
   53MOL   H62838172   2.320   0.701   4.859  2.3086 -1.1324  1.0578
   53MOL   H62938173   2.480   0.749   4.804  0.4604 -0.5475  2.4402
   53MOL   H63038174   2.328   0.803   4.726 -0.9026 -2.8776 -0.7281
   53MOL   H63138175   2.423   0.986   4.840 -1.2185  1.9303  0.7459
   53MOL   H63238176   2.284   0.915   4.952  1.2315  1.6824  1.7905
   53MOL   H63338177   2.587   0.888   4.982 -0.2573 -0.4100  0.5938
   53MOL   H63438178   2.459   0.821   5.077  1.2737 -1.4514 -2.3126
   53MOL   H63538179   2.385   1.060   5.123  0.3388  0.5930  0.1234
   53MOL   H63638180   2.533   1.117   5.054 -2.0343  0.6261  0.4601
   53MOL   H63738181   2.529   0.924   5.293  1.4881 -1.7979  0.6858
   53MOL   H63838182   2.673   0.996   5.218 -0.3759 -2.1330  0.7087
   53MOL   H63938183   2.459   1.156   5.358 -0.6517 -1.2002  0.8053
   53MOL   H64038184   2.613   1.109   5.425 -0.1077  2.8403  1.2164
   53MOL   H64138185   2.554   1.311   5.205  1.9658  0.9785 -0.8057
   53MOL   H64238186   2.716   1.240   5.219  0.7606 -0.5354  1.5830
   53MOL   H64338187   2.713   1.325   5.459 -0.0901  0.0839  0.2831
   53MOL   H64438188   2.717   1.442   5.325 -1.8176  1.1091 -0.6034
   53MOL   H64538189   2.316   1.431   5.728 -0.0291  0.5311 -0.2061
   53MOL   H64638190   2.226   1.334   5.623  0.1782  0.7526 -0.3374
   53MOL   H64738191   2.171   1.506   5.669  1.8027  2.8954  1.3029
   53MOL   H64838192   2.324   1.544   5.313 -0.4112 -2.2595 -1.4674
   53MOL   H64938193   2.203   1.618   5.401  1.8815  1.1160  2.3316
   53MOL   C65038194   1.091   1.540   5.262 -0.3403  0.3850  0.3014
   53MOL   C65138195   1.233   1.588   5.302  0.4186  0.0158 -0.3343
   53MOL   C65238196   1.299   1.522   5.421 -0.3226 -0.1084 -0.0719
   53MOL   C65338197   1.435   1.579   5.458 -0.4622 -0.3811  0.0546
   53MOL   C65438198   1.493   1.527   5.584 -0.3399  0.3503  0.8428
   53MOL   C65538199   1.637   1.570   5.609  0.0715  0.6630 -0.0619
   53MOL   C65638200   1.746   1.529   5.503  0.2576  0.6220  0.5151
   53MOL   C65738201   1.880   1.515   5.573 -0.4939 -0.2674 -0.3789
   53MOL   O65838202   1.985   1.504   5.486 -0.5150 -0.4558  0.4272
   53MOL   C65938203   2.036   1.389   5.443  0.2133  0.4281 -0.0684
   53MOL   O66038204   1.988   1.274   5.464 -0.2331  0.3906 -0.8489
   53MOL   C66138205   2.152   1.412   5.344  0.0729  0.4642 -0.5411
   53MOL   C66238206   2.223   1.278   5.321 -0.2818  0.2689  0.0465
   53MOL   C66338207   2.080   1.458   5.211 -0.3193 -0.6323  0.6887
   53MOL   H66438208   1.082   1.433   5.241  0.0989 -0.2226  2.9258
   53MOL   H66538209   1.055   1.585   5.170  2.4477  2.3219  0.1172
   53MOL   H66638210   1.022   1.551   5.346  0.3038  0.1451  0.8711
   53MOL   H66738211   1.223   1.696   5.311 -2.7486 -0.3591  1.3894
   53MOL   H66838212   1.301   1.581   5.217  0.6790  0.3406 -0.1542
   53MOL   H66938213   1.314   1.417   5.394  1.2095  0.0084  0.2884
   53MOL   H67038214   1.230   1.513   5.505 -1.7930 -2.6641 -1.4995
   53MOL   H67138215   1.425   1.687   5.474 -2.0778 -0.3603 -0.9359
   53MOL   H67238216   1.515   1.577   5.384 -1.6607  0.7815 -1.3146
   53MOL   H67338217   1.489   1.418   5.589 -2.3503  0.3557 -0.3956
   53MOL   H67438218   1.432   1.552   5.671  1.4077  3.2775  1.3184
   53MOL   H67538219   1.640   1.678   5.621 -0.2221  0.6046  0.5641
   53MOL   H67638220   1.669   1.522   5.702 -0.5531 -1.8055 -1.0794
   53MOL   H67738221   1.769   1.605   5.428  0.7248  0.3234  0.3608
   53MOL   H67838222   1.722   1.436   5.452 -0.5625  0.6314  0.8760
   53MOL   H67938223   1.877   1.442   5.653 -0.3983 -0.3674 -0.4668
   53MOL   H68038224   1.885   1.612   5.622 -4.2573  0.7689 -1.8524
   53MOL   H68138225   2.303   1.285   5.247 -0.7280 -0.9664 -0.5643
   53MOL   H68238226   2.162   1.198   5.280 -1.3534  1.4620 -0.7059
   53MOL   H68338227   2.278   1.246   5.410 -0.8691 -0.4055  0.1684
   53MOL   H68438228   1.977   1.423   5.203 -0.0132 -1.8725  1.9170
   53MOL   H68538229   2.068   1.566   5.217 -1.5845 -0.6429 -1.2146
   53MOL   C68638230   1.686   0.373   5.008 -0.0549 -0.1193 -0.5408
   53MOL   C68738231   1.565   0.458   5.018  0.6188  0.2509  0.5824
   53MOL   C68838232   1.594   0.592   5.068 -0.1369  0.6516  0.7173
   53MOL   C68938233   1.708   0.668   4.993  0.4537 -0.0828  0.2513
   53MOL   C69038234   1.741   0.806   5.062  0.3896 -0.2788  0.3024
   53MOL   C69138235   1.825   0.909   4.985  0.4942  0.1292 -0.5437
   53MOL   C69238236   1.865   1.042   5.055  0.5351 -0.1010  0.1052
   53MOL   C69338237   2.003   1.100   5.007  0.3097  0.3774 -0.1557
   53MOL   O69438238   2.018   1.235   5.042  0.1930  0.0044  0.2745
   53MOL   C69538239   2.138   1.296   5.013  0.0741 -0.5430 -0.7190
   53MOL   O69638240   2.227   1.250   4.938 -0.1459 -0.1225  0.0179
   53MOL   C69738241   2.145   1.441   5.071  0.0374 -0.1858  0.3961
   53MOL   C69838242   2.288   1.503   5.061 -0.1998  0.8698 -0.0027
   53MOL   C69938243   2.065   1.519   4.968  0.3156 -0.2740 -0.3646
   53MOL   H70038244   1.753   0.405   4.928 -0.8840  3.9054  0.2822
   53MOL   H70138245   1.660   0.269   4.987  1.7607 -0.7223  0.1076
   53MOL   H70238246   1.743   0.355   5.099  2.1049  0.5557 -1.7228
   53MOL   H70338247   1.499   0.418   5.095 -1.3975 -0.3606 -1.4141
   53MOL   H70438248   1.510   0.466   4.924 -0.4876 -0.7793  1.1351
   53MOL   H70538249   1.606   0.593   5.177  0.1258  2.3364  0.7006
   53MOL   H70638250   1.510   0.658   5.045 -0.4967 -0.5633 -1.5659
   53MOL   H70738251   1.678   0.685   4.890  0.5441 -1.3299  0.0127
   53MOL   H70838252   1.795   0.601   4.989  0.2106 -0.4303  0.6968
   53MOL   H70938253   1.768   0.786   5.166  0.4664  1.1057  0.5688
   53MOL   H71038254   1.645   0.857   5.066  0.0446 -0.8967 -0.1695
   53MOL   H71138255   1.918   0.860   4.957  0.9394  0.5588  0.1527
   53MOL   H71238256   1.767   0.921   4.894 -0.2551 -1.7654 -0.3509
   53MOL   H71338257   1.784   1.114   5.054  0.5894 -0.0046  1.5123
   53MOL   H71438258   1.879   1.009   5.158 -0.8495  0.4396  0.4699
   53MOL   H71538259   2.017   1.090   4.900 -1.9927 -1.9389 -0.2915
   53MOL   H71638260   2.084   1.045   5.056 -1.5590 -0.3803  2.1856
   53MOL   H71738261   2.325   1.503   4.959  1.0215 -1.5145  0.4170
   53MOL   H71838262   2.301   1.607   5.092 -1.1271  0.7504  0.8347
   53MOL   H71938263   2.357   1.445   5.121 -1.5939 -0.4350  0.3802
   53MOL   H72038264   2.093   1.518   4.862  0.1386  3.4121 -0.4968
   53MOL   H72138265   2.075   1.625   4.990  1.5670 -0.4965  0.1739
   53MOL   H72238266   1.960   1.497   4.985 -0.1854  1.3368 -1.2880
   54MOL     C138267   2.998   3.384   4.660  0.5650  0.2472 -0.3043
   54MOL     C238268   3.093   3.478   4.587 -0.6319 -0.8622  0.4274
   54MOL     C338269   3.192   3.554   4.681 -0.3507  0.9800 -0.4196
   54MOL     C438270   3.288   3.658   4.618  0.3336  0.5739  0.0379
   54MOL     C538271   3.370   3.728   4.724 -0.0975  0.0358  0.4085
   54MOL     C638272   3.307   3.829   4.822  0.2578  0.3138  1.0637
   54MOL     C738273   3.402   3.876   4.932 -0.4885  0.4403 -0.5256
   54MOL     C838274   3.370   4.013   4.996 -0.2689  0.4008  0.5984
   54MOL     O938275   3.487   4.071   5.046 -0.2763  0.2782  0.0961
   54MOL    C1038276   3.478   4.194   5.099 -0.1762 -0.1193  0.5535
   54MOL    O1138277   3.377   4.261   5.117 -0.0589  0.4215  0.0464
   54MOL    C1238278   3.609   4.250   5.152  0.2634 -0.3211 -0.3358
   54MOL    C1338279   3.651   4.165   5.275 -0.1296  1.0824 -0.0822
   54MOL    C1438280   3.720   4.262   5.041 -0.5397 -0.3349  0.4878
   54MOL    H1538281   2.937   3.322   4.594 -1.7725  1.6055  0.5142
   54MOL    H1638282   2.927   3.441   4.721  1.5210 -0.2405  1.2975
   54MOL    H1738283   3.058   3.314   4.719 -0.9561 -1.1310 -0.3492
   54MOL    H1838284   3.032   3.546   4.527  0.5438  1.5419  1.8724
   54MOL    H1938285   3.156   3.424   4.517 -0.6059  0.0742 -0.2863
   54MOL    H2038286   3.131   3.611   4.751 -1.1185  0.5864 -0.7699
   54MOL    H2138287   3.255   3.486   4.738 -0.5626 -0.5544 -1.9681
   54MOL    H2238288   3.350   3.604   4.547 -0.6900 -0.1662 -0.3012
   54MOL    H2338289   3.226   3.726   4.561  0.0620 -0.1083 -0.4840
   54MOL    H2438290   3.459   3.769   4.675  0.9725 -1.1480  1.3317
   54MOL    H2538291   3.409   3.645   4.783 -0.6779  1.1203  2.3498
   54MOL    H2638292   3.214   3.788   4.863 -0.2533 -1.5475 -1.8498
   54MOL    H2738293   3.269   3.908   4.758  1.1754 -0.8963 -1.0208
   54MOL    H2838294   3.503   3.873   4.891 -1.0079  0.4088 -1.8258
   54MOL    H2938295   3.405   3.815   5.022  0.1684 -0.0971 -0.9131
   54MOL    H3038296   3.290   3.996   5.068 -1.0154 -2.6157 -0.8683
   54MOL    H3138297   3.321   4.074   4.921  0.7209  0.6657  0.1547
   54MOL    H3238298   3.680   4.065   5.245 -1.7196 -0.1156  2.1706
   54MOL    H3338299   3.735   4.196   5.337 -1.4804  1.0258  1.8217
   54MOL    H3438300   3.565   4.151   5.342  0.5399 -0.0267  0.5563
   54MOL    H3538301   3.695   4.181   4.973  0.3139 -1.1037  1.0786
   54MOL    H3638302   3.814   4.245   5.092 -0.0459  1.2956  0.1785
   54MOL    H3738303   3.591   4.354   5.182  0.3061  0.3729 -2.6578
   54MOL    C3838304   3.681   3.817   4.056  0.1955 -0.1140  0.1709
   54MOL    C3938305   3.663   3.964   4.096  0.2897 -0.0029 -0.0674
   54MOL    C4038306   3.556   3.978   4.202  0.8421 -0.0459 -0.2752
   54MOL    C4138307   3.557   4.106   4.278  0.2610 -0.5943  0.1674
   54MOL    C4238308   3.495   4.080   4.418  0.2461  0.0974 -0.3118
   54MOL    C4338309   3.511   4.204   4.507  0.2123 -0.7032 -0.0238
   54MOL    C4438310   3.443   4.180   4.637  0.3872 -0.6687  0.2977
   54MOL    C4538311   3.448   4.300   4.730  0.2041  0.5071  0.4673
   54MOL    O4638312   3.577   4.309   4.777 -0.0698  0.1330  0.2043
   54MOL    C4738313   3.609   4.417   4.865 -0.5322  0.1759  0.0720
   54MOL    O4838314   3.529   4.506   4.883  0.1068 -0.5566  0.5857
   54MOL    C4938315   3.735   4.401   4.948  0.4252  0.5037 -0.2666
   54MOL    C5038316   3.853   4.377   4.848  0.6822 -0.3523  0.0468
   54MOL    C5138317   3.756   4.526   5.047  0.2543  0.2250 -0.3982
   54MOL    H5238318   3.770   3.812   3.993 -0.2434 -0.8251 -0.4131
   54MOL    H5338319   3.597   3.782   3.995  1.3930 -0.5118 -1.2816
   54MOL    H5438320   3.699   3.745   4.136  0.7004  0.5533  0.6578
   54MOL    H5538321   3.654   4.037   4.016  2.5371  1.3072  0.8218
   54MOL    H5638322   3.761   3.971   4.143  0.5826 -0.2958 -0.6263
   54MOL    H5738323   3.460   3.962   4.152  0.4935  1.0426  0.0221
   54MOL    H5838324   3.558   3.898   4.275 -1.3662  1.0401  1.0107
   54MOL    H5938325   3.508   4.185   4.222  1.0617  1.1472  1.8683
   54MOL    H6038326   3.659   4.142   4.290 -0.4780  1.5453  0.2679
   54MOL    H6138327   3.387   4.070   4.411  0.1167  0.6953  0.7954
   54MOL    H6238328   3.542   3.993   4.462  0.2151 -0.2127 -0.8830
   54MOL    H6338329   3.618   4.213   4.524  0.2794 -1.3383 -0.0999
   54MOL    H6438330   3.478   4.289   4.449 -2.1296 -1.2839  0.4220
   54MOL    H6538331   3.484   4.090   4.683  0.9910 -0.4567  0.1701
   54MOL    H6638332   3.339   4.154   4.615  0.7298 -0.6054 -1.4936
   54MOL    H6738333   3.378   4.276   4.810  2.0951  1.0231  2.3602
   54MOL    H6838334   3.411   4.392   4.685  0.9342  0.0223 -1.1581
   54MOL    H6938335   3.941   4.360   4.911  0.0557 -1.1353  0.7208
   54MOL    H7038336   3.825   4.287   4.795  2.9585 -0.1726 -1.5321
   54MOL    H7138337   3.859   4.463   4.781 -0.3241 -1.8922 -2.0665
   54MOL    H7238338   3.818   4.485   5.127 -1.0671 -2.2049 -0.5679
   54MOL    H7338339   3.660   4.537   5.096  0.2302  0.0366 -0.4032
   54MOL    C7438340   3.922   3.766   5.344 -0.0438 -0.7708 -0.1548
   54MOL    C7538341   3.962   3.908   5.370  0.3830 -0.1579 -0.4513
   54MOL    C7638342   4.038   3.976   5.253 -0.4869  0.3207 -0.1512
   54MOL    C7738343   4.054   4.131   5.279  0.0482  1.0303 -0.0987
   54MOL    C7838344   4.127   4.207   5.172  0.0070 -0.0119 -0.0064
   54MOL    C7938345   4.109   4.356   5.184 -0.0105  0.4776  0.4550
   54MOL    C8038346   4.183   4.434   5.069 -0.4191 -0.3537  0.3493
   54MOL    C8138347   4.176   4.584   5.084 -0.5165  0.2362 -1.0257
   54MOL    O8238348   4.046   4.629   5.094  0.1847  0.1239  0.2508
   54MOL    C8338349   3.976   4.649   4.988  0.6243 -0.2877  0.4875
   54MOL    O8438350   4.031   4.662   4.878  0.5992  0.9263  0.1636
   54MOL    C8538351   3.827   4.667   5.008  0.1862 -0.1172 -0.0075
   54MOL    C8638352   3.753   4.716   4.886  0.4654  0.0041  1.0279
   54MOL    C8738353   3.809   4.764   5.129 -0.6283  0.5871  0.3027
   54MOL    H8838354   3.837   3.758   5.276 -0.6626 -4.5654  0.9766
   54MOL    H8938355   3.880   3.711   5.428 -3.5731  2.2190  0.1801
   54MOL    H9038356   4.015   3.719   5.312  0.6605 -0.4692  1.3897
   54MOL    H9138357   4.029   3.914   5.456  0.4128 -2.2980 -0.2889
   54MOL    H9238358   3.879   3.971   5.402 -1.0414 -1.3663 -1.6695
   54MOL    H9338359   4.132   3.923   5.234 -1.7660 -1.5390 -1.5606
   54MOL    H9438360   3.975   3.952   5.167 -2.5756  1.2605  1.0697
   54MOL    H9538361   4.109   4.142   5.372  2.1951 -2.8876 -0.8022
   54MOL    H9638362   3.955   4.175   5.292 -0.5147 -0.7083  1.6637
   54MOL    H9738363   4.228   4.170   5.187 -0.6298 -1.4663  0.8240
   54MOL    H9838364   4.090   4.163   5.079  0.4840  0.2550 -0.3238
   54MOL    H9938365   4.002   4.378   5.183  0.0999  1.0161  0.4192
   54MOL   H10038366   4.160   4.391   5.273  0.8315  0.4227 -0.0044
   54MOL   H10138367   4.286   4.397   5.066 -0.2172  0.3816 -4.1240
   54MOL   H10238368   4.137   4.406   4.974 -0.6721  1.9243 -0.2279
   54MOL   H10338369   4.250   4.627   5.017  1.6483 -1.3881  0.2763
   54MOL   H10438370   4.194   4.617   5.187 -1.6653  1.7026 -1.2659
   54MOL   H10538371   3.754   4.641   4.807 -0.9010  0.7605  0.2695
   54MOL   H10638372   3.804   4.804   4.846 -2.8405  1.5955  0.1271
   54MOL   H10738373   3.645   4.734   4.891  0.2691 -0.7251 -0.3310
   54MOL   H10838374   3.702   4.751   5.143 -0.7206 -2.6182 -2.6423
   54MOL   H10938375   3.857   4.723   5.217 -1.0053  1.3003  0.8477
   54MOL   C11038376   2.840   4.770   5.257 -0.0056 -0.2427 -0.3820
   54MOL   C11138377   2.929   4.642   5.238  0.1737  0.5726 -0.2731
   54MOL   C11238378   3.059   4.672   5.155  0.1580 -0.0150 -0.0273
   54MOL   C11338379   3.174   4.569   5.173 -0.1367 -0.5990  0.5053
   54MOL   C11438380   3.308   4.607   5.118  0.2277  0.5914 -0.2939
   54MOL   C11538381   3.364   4.744   5.157 -0.2566 -0.6941 -0.4934
   54MOL   C11638382   3.362   4.850   5.049  0.3088 -0.3123  0.6411
   54MOL   C11738383   3.446   4.974   5.099 -0.7019 -1.0381  0.0484
   54MOL   O11838384   3.580   4.952   5.143  0.3732  0.1361  0.1141
   54MOL   C11938385   3.687   4.974   5.066  0.1711 -0.0185  0.4651
   54MOL   O12038386   3.683   5.036   4.959 -0.2137  0.4439  0.5436
   54MOL   C12138387   3.818   4.919   5.127 -0.1719  0.2998  0.1221
   54MOL   C12238388   3.944   4.969   5.053 -0.0367  0.0825  0.5376
   54MOL   C12338389   3.828   4.957   5.284  0.2071  0.6318 -0.3711
   54MOL   H12438390   2.879   4.849   5.321  1.2389 -1.7621  0.7965
   54MOL   H12538391   2.813   4.814   5.161  0.9354 -2.1324 -1.5474
   54MOL   H12638392   2.744   4.737   5.297  0.4578 -0.1430  0.8436
   54MOL   H12738393   2.864   4.576   5.180  0.3288 -0.5090  0.7539
   54MOL   H12838394   2.964   4.596   5.331 -0.1153  2.4209  0.7765
   54MOL   H12938395   3.094   4.770   5.186  1.3817 -0.1198 -1.0501
   54MOL   H13038396   3.034   4.673   5.049  0.0180  0.9751  0.0104
   54MOL   H13138397   3.188   4.545   5.279 -1.2366 -0.3288  0.7145
   54MOL   H13238398   3.151   4.478   5.117 -1.1241  0.9725 -1.6971
   54MOL   H13338399   3.319   4.605   5.010 -0.4126 -1.5721 -0.3463
   54MOL   H13438400   3.377   4.531   5.155  0.6921  1.3274  0.3766
   54MOL   H13538401   3.315   4.770   5.251 -1.0140 -2.3195 -0.4204
   54MOL   H13638402   3.469   4.730   5.181  0.1547  0.9028 -1.2569
   54MOL   H13738403   3.263   4.893   5.032  1.4423  2.3606  0.6023
   54MOL   H13838404   3.404   4.803   4.960 -2.3306 -0.0341 -0.8164
   54MOL   H13938405   3.440   5.065   5.039 -2.5762 -0.5245  0.9635
   54MOL   H14038406   3.397   5.020   5.185 -2.6174 -1.3573 -0.8354
   54MOL   H14138407   3.958   5.076   5.039  2.0040 -0.4197 -1.6608
   54MOL   H14238408   4.032   4.941   5.112  0.0933 -1.9516 -0.5852
   54MOL   H14338409   3.947   4.926   4.953 -0.8703  2.4373 -0.5240
   54MOL   H14438410   3.903   4.892   5.328 -0.9219 -1.4475 -1.4330
   54MOL   H14538411   3.736   4.918   5.328  1.1282  0.6984  1.6474
   54MOL   C14638412   4.873   4.493   5.172  0.4443 -0.3745 -0.6467
   54MOL   C14738413   4.821   4.628   5.217 -0.1084 -0.1065  0.3926
   54MOL   C14838414   4.670   4.622   5.267  0.2405 -0.4464  0.5458
   54MOL   C14938415   4.620   4.766   5.271  0.5971  0.1662  0.1050
   54MOL   C15038416   4.495   4.796   5.353 -0.2596 -0.1279 -0.5271
   54MOL   C15138417   4.428   4.932   5.323 -0.5232  0.0805 -0.2932
   54MOL   C15238418   4.286   4.954   5.382 -0.4129  0.1492 -0.6398
   54MOL   C15338419   4.210   5.075   5.330  0.2578 -0.4161  0.2166
   54MOL   O15438420   4.076   5.058   5.365  0.0412  0.2546  0.3477
   54MOL   C15538421   3.986   5.146   5.321  0.7873 -0.6664 -0.2516
   54MOL   O15638422   4.010   5.257   5.266  0.2387 -0.0081  0.5440
   54MOL   C15738423   3.838   5.094   5.354 -0.3050  0.5550  0.0380
   54MOL   C15838424   3.741   5.204   5.297 -0.0564 -0.4264 -0.0144
   54MOL   C15938425   3.825   5.063   5.506  0.2195 -0.3865 -0.3356
   54MOL   H16038426   4.849   4.415   5.245 -0.1502 -0.5059 -0.9858
   54MOL   H16138427   4.981   4.482   5.162  1.0419 -0.0095  4.1871
   54MOL   H16238428   4.824   4.470   5.077 -0.4616  0.5660 -0.4101
   54MOL   H16338429   4.893   4.661   5.292  0.0296  1.3325 -0.3536
   54MOL   H16438430   4.823   4.699   5.135 -0.8381 -0.5130  0.0226
   54MOL   H16538431   4.666   4.577   5.366  0.2139 -1.5485  0.0442
   54MOL   H16638432   4.609   4.563   5.199 -2.8420  2.3074  0.7788
   54MOL   H16738433   4.703   4.828   5.305  1.4265 -0.7185 -0.2967
   54MOL   H16838434   4.608   4.795   5.166 -1.9640  1.7251  0.7910
   54MOL   H16938435   4.518   4.789   5.460  1.6933 -1.8047 -1.0023
   54MOL   H17038436   4.432   4.714   5.319 -3.4847  0.3918  3.8727
   54MOL   H17138437   4.420   4.950   5.216 -0.4318  1.0206 -0.1416
   54MOL   H17238438   4.504   5.007   5.344 -1.0326  0.4451  0.2496
   54MOL   H17338439   4.235   4.864   5.345 -1.4676  0.7744 -0.7266
   54MOL   H17438440   4.294   4.960   5.491 -0.5679  0.5617 -0.6512
   54MOL   H17538441   4.255   5.165   5.371 -0.6128 -0.4450  1.2460
   54MOL   H17638442   4.229   5.079   5.223  3.2204 -1.6006  0.6495
   54MOL   H17738443   3.639   5.177   5.324 -0.2242  1.0467  0.8663
   54MOL   H17838444   3.743   5.209   5.188  0.3202 -0.8581 -0.0259
   54MOL   H17938445   3.769   5.303   5.332  1.2334 -0.7103 -0.2106
   54MOL   H18038446   3.900   4.990   5.538  0.5812 -0.0178 -0.3406
   54MOL   H18138447   3.733   5.006   5.523  0.5620 -1.1646 -1.0292
   54MOL   C18238448   2.909   4.512   5.654  0.0455  0.6064  0.7592
   54MOL   C18338449   3.017   4.603   5.713 -0.1524  1.0644  0.5093
   54MOL   C18438450   3.051   4.716   5.615  0.2500 -0.3668 -0.2932
   54MOL   C18538451   3.153   4.817   5.666  0.2346 -0.3666 -0.0910
   54MOL   C18638452   3.209   4.903   5.551 -0.4467 -0.3226 -0.5261
   54MOL   C18738453   3.306   5.006   5.605 -0.1915 -0.0631  0.4487
   54MOL   C18838454   3.353   5.104   5.489  0.5948  1.0522 -0.2064
   54MOL   C18938455   3.446   5.211   5.539 -0.8899 -0.0396  0.2365
   54MOL   O19038456   3.572   5.161   5.573 -0.1427 -0.2315  0.3491
   54MOL   C19138457   3.675   5.242   5.604 -0.5363  0.0174  0.0156
   54MOL   O19238458   3.661   5.363   5.623 -0.5625  0.3306  0.1399
   54MOL   C19338459   3.819   5.179   5.609  0.2421 -0.8113 -0.3834
   54MOL   C19438460   3.928   5.286   5.584 -0.1874  0.7320  0.1354
   54MOL   C19538461   3.836   5.097   5.745 -0.6697 -0.3775  0.6737
   54MOL   H19638462   2.834   4.575   5.608 -1.6879 -0.7940  1.6211
   54MOL   H19738463   2.957   4.454   5.575 -2.4699  0.5467 -0.7839
   54MOL   H19838464   2.884   4.452   5.741  0.7653 -0.5089  0.2144
   54MOL   H19938465   3.108   4.548   5.737 -0.9125 -0.4314  0.0671
   54MOL   H20038466   2.992   4.645   5.810 -0.4462 -0.0715  0.9363
   54MOL   H20138467   3.089   4.668   5.524 -1.1557 -2.8971  0.4023
   54MOL   H20238468   2.957   4.757   5.578  0.4121  0.5274  0.2934
   54MOL   H20338469   3.103   4.887   5.732  2.5956  2.9424 -1.6827
   54MOL   H20438470   3.235   4.764   5.715 -1.3135  0.6758  3.7295
   54MOL   H20538471   3.128   4.966   5.512 -0.9626 -0.4650  0.2953
   54MOL   H20638472   3.245   4.843   5.467  1.3015 -2.0258  1.4024
   54MOL   H20738473   3.385   4.971   5.670 -0.8323  0.3115  1.4334
   54MOL   H20838474   3.254   5.079   5.667 -0.2635  0.5431 -0.3170
   54MOL   H20938475   3.400   5.051   5.406  0.9023  1.1112 -0.0731
   54MOL   H21038476   3.258   5.135   5.445  1.2850  0.4414 -2.2044
   54MOL   H21138477   3.407   5.262   5.628 -2.2591 -2.2413  0.9335
   54MOL   H21238478   3.473   5.274   5.454 -1.8155 -0.9638 -0.7405
   54MOL   H21338479   4.021   5.230   5.582 -0.2267  0.6236  0.9010
   54MOL   H21438480   3.914   5.336   5.488  1.6778 -1.8360 -1.5465
   54MOL   H21538481   3.934   5.362   5.663 -2.5207  0.0363  1.0240
   54MOL   H21638482   3.802   4.994   5.736  1.6234 -1.4259  3.4917
   54MOL   H21738483   3.944   5.086   5.752 -0.4307  1.2702 -0.1381
   54MOL   C21838484   2.807   5.522   6.506  0.5702  0.3894 -0.0808
   54MOL   C21938485   2.874   5.426   6.404 -0.1895  0.4191 -1.0341
   54MOL   C22038486   2.954   5.483   6.290  0.1364  0.1406 -0.7203
   54MOL   C22138487   3.034   5.365   6.230  0.1404  0.4963  0.4608
   54MOL   C22238488   3.162   5.413   6.159 -0.1850  0.3597  0.0097
   54MOL   C22338489   3.224   5.290   6.094 -0.7432 -0.1235  0.2998
   54MOL   C22438490   3.367   5.327   6.044  0.6200  0.3518 -0.1395
   54MOL   C22538491   3.424   5.208   5.978  0.4076 -0.1109 -0.2514
   54MOL   O22638492   3.564   5.227   5.960  0.1678 -0.7577  0.5901
   54MOL   C22738493   3.635   5.119   5.908  0.5189 -0.4104  0.2417
   54MOL   O22838494   3.585   5.008   5.890 -0.1358 -0.0488 -0.7005
   54MOL   C22938495   3.791   5.135   5.894 -0.3497  0.3809 -0.1825
   54MOL   C23038496   3.851   5.276   5.924  0.1971  0.0311  0.5791
   54MOL   C23138497   3.868   5.035   5.989 -0.5786  0.9846  0.5352
   54MOL   H23238498   2.756   5.469   6.586  0.0657  0.6073 -0.2557
   54MOL   H23338499   2.744   5.589   6.447 -0.6338  1.3004  2.1519
   54MOL   H23438500   2.902   5.570   6.531 -0.2088  1.0898  1.5699
   54MOL   H23538501   2.797   5.363   6.359 -0.9448 -0.4830  1.4005
   54MOL   H23638502   2.932   5.353   6.460 -1.6426 -0.7763 -1.0535
   54MOL   H23738503   2.905   5.538   6.210 -0.1238  0.9940  0.0120
   54MOL   H23838504   3.025   5.553   6.333 -1.5209  2.5561 -1.7855
   54MOL   H23938505   3.069   5.303   6.313 -0.2906 -0.6709 -0.2233
   54MOL   H24038506   2.970   5.307   6.165  1.3663 -0.9035  0.4768
   54MOL   H24138507   3.137   5.489   6.084 -1.0174 -0.5444 -0.6466
   54MOL   H24238508   3.225   5.459   6.235  0.1085  1.9902 -1.1944
   54MOL   H24338509   3.229   5.206   6.163  2.5712  0.6854  1.1237
   54MOL   H24438510   3.173   5.264   6.001  1.1328 -3.1479  0.0612
   54MOL   H24538511   3.423   5.366   6.129 -1.0539  3.4332 -0.3535
   54MOL   H24638512   3.352   5.414   5.980  0.3127  1.7064  1.7272
   54MOL   H24738513   3.379   5.188   5.880  1.1712 -2.3056 -0.1988
   54MOL   H24838514   3.401   5.121   6.040  1.6994  0.4864  1.0853
   54MOL   H24938515   3.817   5.326   6.014 -2.7391  1.0072 -0.9751
   54MOL   H25038516   3.830   5.348   5.844  0.3392  1.1603  1.5539
   54MOL   H25138517   3.960   5.276   5.931  0.7565  1.4803 -5.0956
   54MOL   H25238518   3.822   4.938   5.969 -0.8442  1.3349 -0.5758
   54MOL   H25338519   3.968   5.021   5.949 -0.0723  3.7341  0.7460
   54MOL   C25438520   4.399   4.482   6.197  0.2051 -0.7775 -0.0832
   54MOL   C25538521   4.468   4.583   6.102 -0.0312  0.0829 -0.0045
   54MOL   C25638522   4.401   4.716   6.079 -0.1183  0.3930 -0.4481
   54MOL   C25738523   4.415   4.808   6.214 -0.4720  0.6006 -0.5956
   54MOL   C25838524   4.327   4.942   6.205  0.0947 -0.0211 -0.4680
   54MOL   C25938525   4.404   5.072   6.207 -0.0277  0.2413 -0.7959
   54MOL   C26038526   4.311   5.189   6.244 -0.0307  0.5160  0.1631
   54MOL   C26138527   4.213   5.223   6.134  0.1251 -0.0914  0.0839
   54MOL   O26238528   4.115   5.131   6.127 -0.2681  0.0622  0.4789
   54MOL   C26338529   3.985   5.159   6.178 -0.8135  0.0352  0.4540
   54MOL   O26438530   3.950   5.252   6.255 -0.2004 -0.3783 -0.7029
   54MOL   C26538531   3.883   5.043   6.140  0.1902 -0.4466  0.0649
   54MOL   C26638532   3.943   4.912   6.186  0.2443  0.4399  0.2775
   54MOL   C26738533   3.736   5.067   6.200 -0.6164  0.1430 -0.2164
   54MOL   H26838534   4.297   4.465   6.163  0.0687 -0.9316  0.3938
   54MOL   H26938535   4.448   4.385   6.206  1.3795 -0.2243 -0.5431
   54MOL   H27038536   4.381   4.535   6.291  0.2662 -0.5542 -0.1992
   54MOL   H27138537   4.568   4.593   6.144  0.3175  1.1943 -1.0610
   54MOL   H27238538   4.480   4.533   6.006  1.6778 -1.8131  1.1718
   54MOL   H27338539   4.295   4.693   6.066  0.1063 -1.2189  0.3708
   54MOL   H27438540   4.435   4.776   5.995  0.2574 -0.0142 -0.5897
   54MOL   H27538541   4.518   4.834   6.240  0.2577 -2.4210 -0.2731
   54MOL   H27638542   4.374   4.746   6.294 -0.8725  1.7853  0.1285
   54MOL   H27738543   4.273   4.929   6.112 -0.8517  0.8265 -0.0505
   54MOL   H27838544   4.250   4.943   6.282  1.3478  0.3014  0.8042
   54MOL   H27938545   4.461   5.088   6.115 -0.8702 -3.4181 -2.0380
   54MOL   H28038546   4.480   5.068   6.286 -2.0348 -1.4421  1.1071
   54MOL   H28138547   4.264   5.177   6.341  1.3633 -1.7170  0.5841
   54MOL   H28238548   4.384   5.270   6.250  1.8612 -1.2559  1.7594
   54MOL   H28338549   4.178   5.326   6.137  0.7477  0.1447 -0.7244
   54MOL   H28438550   4.272   5.206   6.044 -0.1480 -1.2318  0.1117
   54MOL   H28538551   3.879   4.827   6.165  1.0005 -0.4201  1.4576
   54MOL   H28638552   4.033   4.884   6.130 -1.6889 -0.9940 -2.2498
   54MOL   H28738553   3.976   4.909   6.289  0.6253  0.0248  0.1445
   54MOL   H28838554   3.675   5.004   6.136 -1.3912 -2.1227  2.7180
   54MOL   H28938555   3.714   5.168   6.165 -1.5165  0.0733  0.1487
   54MOL   C29038556   2.731   4.856   6.098 -0.1978  0.3785 -0.5810
   54MOL   C29138557   2.882   4.826   6.106  0.2201 -0.7892  1.3034
   54MOL   C29238558   2.977   4.910   6.016 -0.2872 -0.8378  0.5487
   54MOL   C29338559   3.123   4.891   6.043  0.1651  0.4239  0.2234
   54MOL   C29438560   3.187   4.745   6.023 -0.3359 -0.1053 -0.3717
   54MOL   C29538561   3.343   4.738   6.051  0.0657  0.7162  0.7591
   54MOL   C29638562   3.369   4.723   6.201 -0.5507  0.2544 -0.4020
   54MOL   C29738563   3.516   4.708   6.245 -0.6102 -0.1853  0.8144
   54MOL   O29838564   3.578   4.836   6.241 -0.0368  0.2202  0.1131
   54MOL   C29938565   3.669   4.876   6.338  0.3500  1.4204 -0.3553
   54MOL   O30038566   3.727   4.802   6.417 -0.9312 -0.2359  0.5478
   54MOL   C30138567   3.690   5.027   6.343 -0.1730  0.2693 -0.5500
   54MOL   C30238568   3.795   5.072   6.453  0.7702  0.0652  0.1828
   54MOL   C30338569   3.553   5.114   6.352  0.2834  0.6813  0.4205
   54MOL   H30438570   2.709   4.901   6.001 -1.2501 -0.3223 -0.6688
   54MOL   H30538571   2.702   4.933   6.170 -2.4264 -0.4765 -0.5400
   54MOL   H30638572   2.667   4.771   6.120  0.0322  0.4193  0.2467
   54MOL   H30738573   2.877   4.726   6.064 -1.7825  0.1265 -0.7779
   54MOL   H30838574   2.931   4.826   6.204  1.3144 -0.1079  0.7589
   54MOL   H30938575   2.949   5.014   6.032  0.3681 -0.6053  0.2115
   54MOL   H31038576   2.960   4.896   5.909 -0.3405  2.4667  0.0875
   54MOL   H31138577   3.179   4.961   5.981 -0.4895 -0.7529 -1.7447
   54MOL   H31238578   3.138   4.933   6.142  0.8972  2.2485 -0.6498
   54MOL   H31338579   3.135   4.670   6.082  0.1442  0.6236  0.9871
   54MOL   H31438580   3.182   4.703   5.923  0.5718 -1.6773  0.2318
   54MOL   H31538581   3.401   4.826   6.024 -1.3602  1.2904 -0.5304
   54MOL   H31638582   3.390   4.663   5.987  0.9356  2.6034 -0.8845
   54MOL   H31738583   3.335   4.626   6.237  0.0930 -0.2716 -1.2028
   54MOL   H31838584   3.317   4.798   6.262  1.1049 -0.1016  1.5320
   54MOL   H31938585   3.557   4.633   6.177 -0.6969 -1.3410  2.0101
   54MOL   H32038586   3.521   4.676   6.349  3.3307 -0.7815  0.5022
   54MOL   H32138587   3.749   5.047   6.548 -1.8962 -2.2082 -1.6198
   54MOL   H32238588   3.807   5.180   6.466  0.6053  0.1210 -0.1231
   54MOL   H32338589   3.894   5.030   6.435 -0.2524 -2.5208  0.4901
   54MOL   H32438590   3.573   5.218   6.328  0.0476  0.9305  1.2793
   54MOL   H32538591   3.496   5.077   6.267  1.3936 -4.1495  1.6209
   54MOL   C32638592   3.212   5.809   6.058 -0.1910  0.1618  0.1074
   54MOL   C32738593   3.287   5.852   6.184  0.5504  0.5314  0.0897
   54MOL   C32838594   3.268   5.759   6.310  0.0521  0.6046  0.1201
   54MOL   C32938595   3.337   5.814   6.436  1.0219  0.0018  0.6329
   54MOL   C33038596   3.357   5.722   6.552  0.2741 -0.4018 -0.3411
   54MOL   C33138597   3.472   5.622   6.527  0.2722  0.3237  0.5090
   54MOL   C33238598   3.503   5.548   6.655  0.3562  0.1847  0.1592
   54MOL   C33338599   3.598   5.432   6.636  0.7869 -0.2603 -0.9589
   54MOL   O33438600   3.530   5.337   6.560 -0.4723 -0.2213 -0.3699
   54MOL   C33538601   3.533   5.205   6.595  0.1987  0.1353 -0.4777
   54MOL   O33638602   3.587   5.158   6.692 -0.0068 -0.5998 -0.1225
   54MOL   C33738603   3.460   5.114   6.484 -0.3953  0.3193  0.1495
   54MOL   C33838604   3.326   5.186   6.440  0.3845 -0.4771 -0.4600
   54MOL   C33938605   3.435   4.964   6.520  0.9516 -0.5876 -0.6182
   54MOL   H34038606   3.203   5.884   5.980 -0.9088 -0.9749 -0.9223
   54MOL   H34138607   3.110   5.786   6.088 -0.1720  0.4451  0.3969
   54MOL   H34238608   3.255   5.719   6.013  3.0185  2.5123 -1.7042
   54MOL   H34338609   3.250   5.950   6.212 -0.9391  0.5206 -1.7233
   54MOL   H34438610   3.394   5.859   6.166  0.3846 -1.1527 -1.6706
   54MOL   H34538611   3.289   5.655   6.288  0.4702  0.9449 -1.1136
   54MOL   H34638612   3.162   5.760   6.337  0.4233 -0.7962  1.6840
   54MOL   H34738613   3.279   5.892   6.486 -2.1353 -1.7760 -0.1263
   54MOL   H34838614   3.432   5.860   6.408 -0.7922  3.5633  0.0735
   54MOL   H34938615   3.372   5.773   6.647 -0.6966 -0.0545 -0.3599
   54MOL   H35038616   3.262   5.668   6.564  1.6861 -2.7525  0.5990
   54MOL   H35138617   3.436   5.562   6.443 -1.3493  0.3620  1.1598
   54MOL   H35238618   3.558   5.676   6.486 -0.0067  0.8511  0.6123
   54MOL   H35338619   3.410   5.505   6.691  1.3385 -1.6931  0.5500
   54MOL   H35438620   3.535   5.624   6.726 -2.7359  0.7670  0.9901
   54MOL   H35538621   3.693   5.450   6.585  0.9639  0.6868 -0.3028
   54MOL   H35638622   3.627   5.398   6.736 -0.1932 -1.2501 -1.0048
   54MOL   H35738623   3.259   5.229   6.515  1.8320  0.4746  0.3243
   54MOL   H35838624   3.342   5.271   6.373  1.9377 -0.4214 -0.0417
   54MOL   H35938625   3.270   5.116   6.378  2.1316 -0.4999 -2.0657
   54MOL   H36038626   3.417   4.912   6.426  0.7082 -0.9204 -0.3885
   54MOL   H36138627   3.532   4.932   6.558  0.9455  1.0263  0.7793
   54MOL   C36238628   2.385   5.396   6.491  0.1708  0.0036 -0.2211
   54MOL   C36338629   2.404   5.255   6.558 -0.4105  1.2634 -0.2520
   54MOL   C36438630   2.546   5.232   6.611 -0.3511 -0.0387  0.1249
   54MOL   C36538631   2.550   5.103   6.689  0.0986  0.2915  0.7892
   54MOL   C36638632   2.671   5.088   6.778 -0.6125  0.4353 -0.5495
   54MOL   C36738633   2.805   5.098   6.693  0.0286 -0.7264 -0.1670
   54MOL   C36838634   2.841   4.982   6.607 -0.0809  0.2468  0.0691
   54MOL   C36938635   2.959   5.017   6.521 -0.7298 -1.5412  0.0187
   54MOL   O37038636   3.088   5.005   6.589 -0.3162 -0.2071 -0.2391
   54MOL   C37138637   3.177   4.915   6.534  0.3686 -0.5898 -0.2426
   54MOL   O37238638   3.150   4.836   6.446 -0.1387 -0.7359 -0.0764
   54MOL   C37338639   3.316   4.912   6.610 -0.1578 -0.5069 -0.5789
   54MOL   C37438640   3.310   5.010   6.732 -0.9423  0.0197 -0.0596
   54MOL   C37538641   3.356   4.766   6.635 -0.3101  0.1528 -0.5057
   54MOL   H37638642   2.355   5.456   6.577 -2.4275  0.0837 -1.1270
   54MOL   H37738643   2.476   5.425   6.440 -0.7998  1.9025 -0.9196
   54MOL   H37838644   2.301   5.416   6.425  0.1473 -1.7600 -0.7753
   54MOL   H37938645   2.380   5.175   6.489 -0.1005  1.2918 -0.3967
   54MOL   H38038646   2.323   5.246   6.630 -0.0186 -1.4564 -0.1017
   54MOL   H38138647   2.568   5.321   6.669 -1.0285  0.7441 -0.8000
   54MOL   H38238648   2.617   5.230   6.529 -0.2892 -2.3717  0.1983
   54MOL   H38338649   2.550   5.018   6.621  0.5043  1.8784 -1.2470
   54MOL   H38438650   2.456   5.094   6.742 -0.5232  0.4535 -0.2734
   54MOL   H38538651   2.668   5.165   6.856  0.3564 -0.8690  0.8052
   54MOL   H38638652   2.683   4.993   6.829  2.1069  0.6417 -0.7200
   54MOL   H38738653   2.891   5.112   6.758 -1.5023  0.1855  1.7190
   54MOL   H38838654   2.813   5.187   6.630 -0.3162  0.0302  0.8405
   54MOL   H38938655   2.759   4.975   6.535 -0.5723 -1.4762  0.7706
   54MOL   H39038656   2.848   4.887   6.660  0.2913 -0.0339 -0.4794
   54MOL   H39138657   2.948   4.948   6.437 -1.6476 -1.0922 -0.2278
   54MOL   H39238658   2.956   5.121   6.488 -1.2758 -0.7329  2.5122
   54MOL   H39338659   3.381   4.985   6.811 -1.1443  0.0537  0.1323
   54MOL   H39438660   3.314   5.119   6.719 -2.0200  0.1026  0.2804
   54MOL   H39538661   3.225   4.995   6.797 -2.5290  1.1585 -1.8027
   54MOL   H39638662   3.349   4.713   6.540  1.6911 -1.5903  0.2637
   54MOL   H39738663   3.463   4.759   6.657 -0.3628  2.4138  0.6459
   54MOL   C39838664   3.959   4.557   6.404  0.0714 -0.2376 -0.3601
   54MOL   C39938665   4.026   4.524   6.540 -0.3343 -0.2603 -0.2260
   54MOL   C40038666   4.036   4.643   6.635 -0.0230  0.9458 -0.4858
   54MOL   C40138667   3.902   4.686   6.687 -0.3653 -0.1167 -0.3935
   54MOL   C40238668   3.896   4.803   6.787  0.3729 -0.2547  0.5411
   54MOL   C40338669   3.757   4.832   6.843 -0.1356  0.8053  0.5053
   54MOL   C40438670   3.721   4.748   6.964 -0.3081  0.3319  0.7728
   54MOL   C40538671   3.567   4.761   6.996  0.1624 -0.2565 -0.1668
   54MOL   O40638672   3.494   4.710   6.889  0.3325  0.3211 -0.1238
   54MOL   C40738673   3.359   4.729   6.886 -0.0184  0.0666  0.6222
   54MOL   O40838674   3.293   4.782   6.978 -0.1933 -0.0809 -0.0215
   54MOL   C40938675   3.289   4.683   6.752  0.2280  0.5676 -0.8800
   54MOL   C41038676   3.135   4.697   6.751  0.0657  0.0433  0.6714
   54MOL   C41138677   3.326   4.531   6.720  0.2158  0.3180 -0.7424
   54MOL   H41238678   3.947   4.468   6.342 -0.4841 -0.6287  0.3060
   54MOL   H41338679   4.017   4.631   6.349  1.9546  1.6680  3.9010
   54MOL   H41438680   3.861   4.601   6.422  0.2704 -0.1057  0.4362
   54MOL   H41538681   4.123   4.479   6.522 -0.6332 -1.0595  0.1532
   54MOL   H41638682   3.968   4.450   6.595  1.0688  0.0328  1.6827
   54MOL   H41738683   4.102   4.621   6.719  0.4279  0.8492 -0.8617
   54MOL   H41838684   4.081   4.725   6.579  2.6706  0.1332  0.4330
   54MOL   H41938685   3.855   4.604   6.741 -0.0931  1.0338  1.6303
   54MOL   H42038686   3.826   4.715   6.614 -0.9406  0.8059  0.5478
   54MOL   H42138687   3.963   4.788   6.871  0.4833 -1.6578  0.2085
   54MOL   H42238688   3.920   4.892   6.729  0.0354 -1.1795 -1.0783
   54MOL   H42338689   3.694   4.817   6.756  1.3075  1.5489 -0.6981
   54MOL   H42438690   3.743   4.938   6.863 -1.2137  0.8584 -0.5007
   54MOL   H42538691   3.735   4.643   6.937 -0.5196 -0.0237  2.0267
   54MOL   H42638692   3.782   4.783   7.046  0.6007  0.8580 -0.1231
   54MOL   H42738693   3.540   4.715   7.091  0.0325 -1.3847 -0.7362
   54MOL   H42838694   3.535   4.864   7.010 -0.6502 -0.5797  0.3863
   54MOL   H42938695   3.100   4.643   6.663  0.3985 -0.1047  0.6311
   54MOL   H43038696   3.097   4.799   6.759  0.3224  0.1084  1.1087
   54MOL   H43138697   3.097   4.651   6.842  1.6149  0.9654  1.8088
   54MOL   H43238698   3.431   4.521   6.692  0.2589 -1.6536  0.0966
   54MOL   H43338699   3.276   4.508   6.626  1.7616  0.8022 -1.7012
   54MOL   C43438700   2.413   4.440   6.329 -0.2179 -0.3217 -0.3620
   54MOL   C43538701   2.451   4.548   6.435 -0.3167  0.0259  0.0778
   54MOL   C43638702   2.605   4.583   6.432 -0.1527 -0.2472 -0.4526
   54MOL   C43738703   2.645   4.689   6.540 -0.2055  0.0170 -0.1751
   54MOL   C43838704   2.638   4.641   6.688  0.4825 -0.4010  0.4301
   54MOL   C43938705   2.710   4.504   6.725 -0.0128 -0.0628 -0.1500
   54MOL   C44038706   2.865   4.511   6.710  0.2638  0.7296 -0.2638
   54MOL   C44138707   2.921   4.374   6.745 -0.2429 -0.1397  0.4817
   54MOL   O44238708   3.059   4.390   6.727  0.3887 -0.6220  0.9825
   54MOL   C44338709   3.142   4.400   6.834 -0.4625 -0.1834 -0.4002
   54MOL   O44438710   3.099   4.415   6.943 -0.4777 -0.1017 -0.2824
   54MOL   C44538711   3.290   4.406   6.804 -0.1400 -0.4486 -0.7476
   54MOL   C44638712   3.368   4.404   6.936 -0.3218 -0.5957 -0.0253
   54MOL   C44738713   3.323   4.280   6.710 -0.0759 -0.6656  0.1943
   54MOL   H44838714   2.434   4.492   6.236 -2.6301  1.6720  0.1658
   54MOL   H44938715   2.308   4.415   6.341 -0.3973  0.3943 -0.4105
   54MOL   H45038716   2.470   4.350   6.350  0.2077  0.1448  0.5362
   54MOL   H45138717   2.427   4.510   6.534  3.4747  0.7787  1.3700
   54MOL   H45238718   2.390   4.639   6.432  0.5634  0.6349  0.2568
   54MOL   H45338719   2.640   4.608   6.331 -0.3913  0.5787 -0.3352
   54MOL   H45438720   2.664   4.497   6.464  0.1285  0.6793  1.5715
   54MOL   H45538721   2.598   4.787   6.531 -0.6878 -0.1346  0.6449
   54MOL   H45638722   2.744   4.725   6.511 -1.1737  4.0550  1.1685
   54MOL   H45738723   2.686   4.710   6.758 -1.1928 -0.0582  1.2629
   54MOL   H45838724   2.537   4.632   6.727  0.1321 -0.1052 -0.4017
   54MOL   H45938725   2.665   4.420   6.671  1.1961 -0.8277  0.0202
   54MOL   H46038726   2.677   4.476   6.824 -1.8824 -0.5342 -0.8863
   54MOL   H46138727   2.885   4.549   6.610 -0.3797 -2.0692 -1.5120
   54MOL   H46238728   2.895   4.590   6.778  1.0633 -1.1242  1.5718
   54MOL   H46338729   2.896   4.283   6.689  0.8957  0.3828 -0.9220
   54MOL   H46438730   2.899   4.352   6.849  0.4057  0.3165  0.7215
   54MOL   H46538731   3.350   4.308   6.984  1.0608 -1.2392 -0.7871
   54MOL   H46638732   3.474   4.413   6.913 -0.2034  1.9850  1.2746
   54MOL   H46738733   3.356   4.484   7.009  3.7257  0.2689 -0.2150
   54MOL   H46838734   3.264   4.292   6.619 -1.8639  1.0200  1.5111
   54MOL   H46938735   3.424   4.297   6.673 -0.2488  2.0555  0.8695
   54MOL   C47038736   4.230   3.911   6.376 -0.1410 -0.4620 -0.2478
   54MOL   C47138737   4.121   4.019   6.401 -0.6837 -0.4370  0.6098
   54MOL   C47238738   4.076   4.025   6.550  0.2595  0.0779  0.3589
   54MOL   C47338739   3.980   4.136   6.579 -0.0803  0.0443 -0.0521
   54MOL   C47438740   3.934   4.121   6.726 -0.2324 -0.2560 -0.0808
   54MOL   C47538741   3.834   4.226   6.780  0.1892 -0.1260 -0.2074
   54MOL   C47638742   3.769   4.192   6.921 -0.1221  1.1710  0.5441
   54MOL   C47738743   3.659   4.083   6.905 -0.2286  0.5011  0.1600
   54MOL   O47838744   3.554   4.126   6.825  0.4682 -0.0029 -0.8353
   54MOL   C47938745   3.417   4.077   6.852 -0.3686 -0.1965  0.3385
   54MOL   O48038746   3.385   4.013   6.953 -0.4131  0.7538 -0.4986
   54MOL   C48138747   3.308   4.127   6.749  0.0763 -0.7136 -0.5525
   54MOL   C48238748   3.168   4.098   6.807 -0.0817  0.3872  0.1649
   54MOL   C48338749   3.319   4.036   6.618 -0.4726 -0.1816  0.1095
   54MOL   H48438750   4.231   3.896   6.268 -0.0555  0.5011 -0.3875
   54MOL   H48538751   4.219   3.816   6.429 -2.4351 -1.2075 -1.9802
   54MOL   H48638752   4.330   3.949   6.396 -0.1243 -0.0036 -1.1714
   54MOL   H48738753   4.165   4.115   6.372  1.2742 -1.5633 -0.2142
   54MOL   H48838754   4.038   4.002   6.333  0.7930  0.8722 -1.5681
   54MOL   H48938755   4.030   3.930   6.575  0.1090 -0.4112 -1.6619
   54MOL   H49038756   4.160   4.033   6.619  0.6653 -0.4480 -0.0733
   54MOL   H49138757   4.037   4.227   6.565 -0.3101  0.1789 -0.1294
   54MOL   H49238758   3.898   4.140   6.507 -1.3569 -1.3718  1.2826
   54MOL   H49338759   3.893   4.020   6.730  0.8750 -0.7030  0.1710
   54MOL   H49438760   4.014   4.122   6.800 -0.1820  2.5876 -0.1172
   54MOL   H49538761   3.890   4.319   6.776  0.4978 -0.3629 -1.5816
   54MOL   H49638762   3.750   4.242   6.712  1.1522  2.9853 -0.7347
   54MOL   H49738763   3.853   4.153   6.978  0.1460 -0.8783 -1.1780
   54MOL   H49838764   3.722   4.278   6.970 -0.0295  2.4842 -1.5863
   54MOL   H49938765   3.641   4.049   7.007 -0.0634  1.7465  0.6175
   54MOL   H50038766   3.700   4.002   6.845 -2.7679  0.3277 -1.3920
   54MOL   H50138767   3.089   4.138   6.743 -1.0956  0.5025  1.4651
   54MOL   H50238768   3.151   4.147   6.903 -0.8898  1.8532 -0.6949
   54MOL   H50338769   3.158   3.990   6.810  0.6842  0.0490 -5.0950
   54MOL   H50438770   3.261   3.945   6.632  0.7536 -1.4454 -2.7556
   54MOL   H50538771   3.245   4.087   6.557 -1.0135 -0.7499  0.2884
   54MOL   C50638772   3.811   4.142   5.614  0.2509  0.9096  0.3934
   54MOL   C50738773   3.826   4.169   5.763 -1.4439  0.5048  0.5219
   54MOL   C50838774   3.693   4.199   5.825 -0.3613  0.7383  0.2303
   54MOL   C50938775   3.683   4.231   5.970  0.0141  0.2024 -0.6876
   54MOL   C51038776   3.548   4.296   6.004  0.3454  0.4736  0.2937
   54MOL   C51138777   3.494   4.284   6.147 -0.1440  0.6499 -0.7697
   54MOL   C51238778   3.605   4.313   6.248  0.4559 -0.2558 -0.5576
   54MOL   C51338779   3.537   4.338   6.385  0.3703  1.2550  0.3022
   54MOL   O51438780   3.470   4.218   6.422 -0.5076 -0.0616 -0.1361
   54MOL   C51538781   3.536   4.116   6.486  0.0303  0.5959  0.0541
   54MOL   O51638782   3.660   4.109   6.505 -0.3033 -0.5511  0.8033
   54MOL   C51738783   3.444   3.989   6.530  0.4472  0.4641 -0.2967
   54MOL   C51838784   3.529   3.882   6.608  0.2165 -0.0903  1.2183
   54MOL   C51938785   3.381   3.928   6.399 -0.0977  0.2050 -0.0303
   54MOL   H52038786   3.772   4.041   5.605  0.2179  1.1214 -2.0997
   54MOL   H52138787   3.908   4.156   5.566  0.3197  1.3864  0.6673
   54MOL   H52238788   3.745   4.216   5.568  0.0346 -0.0430 -0.8299
   54MOL   H52338789   3.885   4.260   5.770 -1.4261  0.7282 -2.1515
   54MOL   H52438790   3.868   4.084   5.819 -0.5002 -1.3387 -2.8593
   54MOL   H52538791   3.653   4.285   5.772 -3.8295  0.4208  2.2302
   54MOL   H52638792   3.622   4.121   5.797  2.4841 -2.7677  2.3683
   54MOL   H52738793   3.687   4.136   6.023 -0.3870 -0.6676 -2.1565
   54MOL   H52838794   3.764   4.301   5.989 -0.8377  1.2367 -0.7654
   54MOL   H52938795   3.540   4.399   5.972 -0.2241  0.5949  0.8152
   54MOL   H53038796   3.472   4.258   5.936 -0.1898 -2.3569  2.3330
   54MOL   H53138797   3.440   4.191   6.165  0.8354  0.5458  1.8318
   54MOL   H53238798   3.417   4.358   6.168 -0.4538  0.5659 -1.5783
   54MOL   H53338799   3.659   4.402   6.214 -0.8553  0.5826 -0.4856
   54MOL   H53438800   3.682   4.237   6.258  0.7293  0.0736 -0.1385
   54MOL   H53538801   3.480   4.430   6.391 -0.1464  0.9221  0.5525
   54MOL   H53638802   3.611   4.339   6.466  1.3240  2.7692 -0.5781
   54MOL   H53738803   3.590   3.829   6.535  0.0067 -1.7942  2.2596
   54MOL   H53838804   3.466   3.821   6.673 -1.0886  1.0585  1.0410
   54MOL   H53938805   3.608   3.932   6.664  1.3646  0.4840 -0.8622
   54MOL   H54038806   3.281   3.891   6.422 -0.9964  0.4706 -3.1801
   54MOL   H54138807   3.350   4.021   6.350  0.8465 -0.6221 -2.2779
   54MOL   C54238808   3.136   3.792   7.224  0.3725  0.7084 -0.1719
   54MOL   C54338809   3.243   3.724   7.133  0.1488  0.0915 -0.5789
   54MOL   C54438810   3.190   3.646   7.016  0.2216 -0.2769  0.5932
   54MOL   C54538811   3.308   3.604   6.917 -0.4770 -0.0808  0.0601
   54MOL   C54638812   3.250   3.506   6.811 -1.1799  0.0981  0.4497
   54MOL   C54738813   3.341   3.502   6.685  0.4711  0.4346 -0.2497
   54MOL   C54838814   3.275   3.472   6.551  0.4318  0.1754  0.1247
   54MOL   C54938815   3.370   3.500   6.437  0.1225  0.0659  0.2803
   54MOL   O55038816   3.365   3.638   6.395 -0.2462 -0.3490  0.4187
   54MOL   C55138817   3.464   3.692   6.320 -0.3396 -0.0730  0.0251
   54MOL   O55238818   3.567   3.632   6.283 -0.6081 -0.0881 -0.2378
   54MOL   C55338819   3.451   3.844   6.282  0.5316  0.1214  0.1403
   54MOL   C55438820   3.590   3.904   6.247  0.2660 -0.7091 -0.1797
   54MOL   C55538821   3.350   3.867   6.161  0.0898 -0.0161  0.1545
   54MOL   H55638822   3.182   3.851   7.303  0.7025  1.6688 -1.0621
   54MOL   H55738823   3.050   3.733   7.256 -0.8070  1.5507 -1.6650
   54MOL   H55838824   3.095   3.880   7.174 -1.6969  0.1221  0.4249
   54MOL   H55938825   3.324   3.791   7.106 -0.0591  1.2484  1.5763
   54MOL   H56038826   3.285   3.641   7.190 -2.1700 -0.8078 -0.0807
   54MOL   H56138827   3.115   3.712   6.973  0.0687  0.5891  2.1735
   54MOL   H56238828   3.151   3.551   7.052 -1.0480 -0.0752 -0.2279
   54MOL   H56338829   3.356   3.687   6.864 -3.1638  0.7349 -1.1866
   54MOL   H56438830   3.386   3.552   6.972 -0.6432  0.7296  1.0883
   54MOL   H56538831   3.151   3.544   6.784 -0.6926 -1.1251 -3.3822
   54MOL   H56638832   3.223   3.409   6.853 -0.3237 -1.0952 -1.7163
   54MOL   H56738833   3.388   3.601   6.679 -2.0940  1.5944 -2.0005
   54MOL   H56838834   3.418   3.429   6.707 -1.3161 -0.7334  2.3852
   54MOL   H56938835   3.249   3.367   6.539 -0.3644  0.3828 -0.0305
   54MOL   H57038836   3.185   3.529   6.525  0.1243 -1.5810 -2.9716
   54MOL   H57138837   3.325   3.453   6.349  0.6809  0.8408 -0.4231
   54MOL   H57238838   3.472   3.475   6.464  0.0575 -0.2871  0.2062
   54MOL   H57338839   3.651   3.904   6.338  1.4362 -2.0794 -0.9535
   54MOL   H57438840   3.580   4.011   6.232 -0.5250 -0.4808  1.8585
   54MOL   H57538841   3.656   3.855   6.176 -0.3216 -3.2742  0.9946
   54MOL   H57638842   3.347   3.975   6.146 -1.7434  0.0824  1.1157
   54MOL   H57738843   3.257   3.830   6.204  0.4286 -2.0592 -0.7913
   54MOL   C57838844   3.169   3.215   5.153 -0.0865 -0.5463 -0.2665
   54MOL   C57938845   3.304   3.263   5.190  0.0803 -0.2755  0.1894
   54MOL   C58038846   3.363   3.230   5.328  0.0146 -0.2510 -0.2556
   54MOL   C58138847   3.310   3.311   5.451  0.2197  0.3994  0.0482
   54MOL   C58238848   3.318   3.227   5.578 -0.2857  0.1249  0.0286
   54MOL   C58338849   3.240   3.291   5.697 -0.0802 -0.5840 -0.4798
   54MOL   C58438850   3.274   3.437   5.731  0.0806  0.2757  0.2009
   54MOL   C58538851   3.212   3.485   5.855  0.2351 -0.0805  0.8273
   54MOL   O58638852   3.266   3.614   5.884 -0.4247  0.2766  0.0948
   54MOL   C58738853   3.275   3.668   6.010 -0.7122 -0.6766  0.0076
   54MOL   O58838854   3.231   3.608   6.110  0.4426  0.1816  0.0879
   54MOL   C58938855   3.351   3.805   6.017  0.7248  0.2503  0.8783
   54MOL   C59038856   3.498   3.780   5.977  0.1034  0.0051 -0.8159
   54MOL   C59138857   3.294   3.899   5.913  0.1361 -0.0078 -0.0312
   54MOL   H59238858   3.096   3.237   5.230  2.9491  0.6212  2.3673
   54MOL   H59338859   3.162   3.106   5.147 -0.6246 -0.4733 -1.1048
   54MOL   H59438860   3.130   3.258   5.060 -4.1516 -1.7710  0.7473
   54MOL   H59538861   3.307   3.372   5.197  0.9199 -0.2521 -0.6187
   54MOL   H59638862   3.377   3.228   5.118 -1.3520  1.2512 -2.0694
   54MOL   H59738863   3.471   3.236   5.320  0.3539 -2.4248  1.9573
   54MOL   H59838864   3.358   3.124   5.353  0.9017 -0.3088 -0.3169
   54MOL   H59938865   3.209   3.345   5.426  0.2841  0.5964  0.0482
   54MOL   H60038866   3.365   3.404   5.466 -1.4304  1.0407  2.4623
   54MOL   H60138867   3.421   3.210   5.608  0.4534 -1.4173 -3.2259
   54MOL   H60238868   3.269   3.133   5.553  2.2454 -0.8502 -1.3424
   54MOL   H60338869   3.262   3.232   5.786 -0.2721  0.9166  0.5840
   54MOL   H60438870   3.135   3.278   5.673 -0.8556  0.6925  2.0275
   54MOL   H60538871   3.247   3.499   5.645 -0.6614 -2.4740 -1.6374
   54MOL   H60638872   3.383   3.441   5.736  0.2833 -0.1636 -2.6165
   54MOL   H60738873   3.107   3.499   5.831  0.6715 -0.4815 -1.4223
   54MOL   H60838874   3.218   3.417   5.940  1.3973 -0.1657  0.6857
   54MOL   H60938875   3.541   3.880   5.983  0.4302 -0.1410 -0.7157
   54MOL   H61038876   3.548   3.706   6.040  0.1625  0.0599 -0.7994
   54MOL   H61138877   3.496   3.752   5.872 -0.1101  1.8650 -1.3117
   54MOL   H61238878   3.306   3.847   5.817 -2.2870 -0.2243 -0.2454
   54MOL   H61338879   3.355   3.989   5.914  1.2682 -0.7729  1.7740
   54MOL   C61438880   3.708   4.619   5.767  0.3297 -0.7119  0.5343
   54MOL   C61538881   3.652   4.694   5.649  0.7083 -0.0299  0.6111
   54MOL   C61638882   3.603   4.602   5.540 -0.3277  0.0397  0.3250
   54MOL   C61738883   3.462   4.539   5.563 -0.4038 -0.1992 -0.1489
   54MOL   C61838884   3.440   4.426   5.462 -0.0754 -0.0669  0.3436
   54MOL   C61938885   3.312   4.340   5.480 -0.5413  0.1287 -0.1299
   54MOL   C62038886   3.298   4.262   5.606  0.9728 -0.2697  0.1841
   54MOL   C62138887   3.177   4.163   5.611  0.1515 -0.2623  1.1863
   54MOL   O62238888   3.198   4.105   5.738 -0.1378 -0.4851  0.0236
   54MOL   C62338889   3.113   4.014   5.781  0.4173  0.1976 -0.5429
   54MOL   O62438890   3.013   3.979   5.720 -0.1084 -0.8557 -0.0037
   54MOL   C62538891   3.147   3.961   5.919  0.6667 -0.8599  0.3231
   54MOL   C62638892   3.045   3.847   5.959  0.0746  0.3926 -0.1126
   54MOL   C62738893   3.149   4.081   6.030 -0.2640  0.1894  0.5906
   54MOL   H62838894   3.639   4.548   5.811  0.1877 -0.0326  1.4198
   54MOL   H62938895   3.757   4.682   5.842 -0.9276  0.8886  0.0381
   54MOL   H63038896   3.801   4.573   5.733  0.9917  1.2253 -0.3611
   54MOL   H63138897   3.575   4.761   5.686 -0.1187 -0.9438  0.5695
   54MOL   H63238898   3.726   4.766   5.615  0.6820  0.6590  2.0102
   54MOL   H63338899   3.669   4.516   5.534 -2.0414 -1.3066  0.4256
   54MOL   H63438900   3.611   4.646   5.440 -1.2729 -2.5850 -0.9433
   54MOL   H63538901   3.386   4.616   5.549 -0.0350  0.5615  1.8677
   54MOL   H63638902   3.453   4.504   5.666  1.0541  1.4246  0.5567
   54MOL   H63738903   3.450   4.471   5.363 -0.9100  0.0678  0.3195
   54MOL   H63838904   3.523   4.356   5.472 -0.2379 -0.2777  0.2161
   54MOL   H63938905   3.226   4.406   5.466  0.1949  1.7757  2.6336
   54MOL   H64038906   3.306   4.263   5.403 -0.1904 -1.0320  0.9982
   54MOL   H64138907   3.283   4.330   5.689  3.1599 -0.5542  0.8521
   54MOL   H64238908   3.393   4.209   5.613  1.3292  0.2415 -0.7034
   54MOL   H64338909   3.075   4.200   5.598 -0.0667 -1.4542 -0.7337
   54MOL   H64438910   3.182   4.078   5.543 -1.2977  1.1413 -0.7481
   54MOL   H64538911   2.942   3.877   5.939  0.1488  0.6422 -0.1176
   54MOL   H64638912   3.064   3.808   6.059  0.5969  2.8510  0.7661
   54MOL   H64738913   3.066   3.761   5.895 -1.1079 -2.0605  2.6946
   54MOL   H64838914   3.244   4.135   6.021 -0.4270  0.1656 -1.7392
   54MOL   H64938915   3.143   4.023   6.121  0.6586 -0.2234  0.3963
   54MOL   C65038916   2.638   4.860   5.640  0.1930 -0.3050  0.3888
   54MOL   C65138917   2.495   4.805   5.649 -0.5811  0.6002  0.2396
   54MOL   C65238918   2.493   4.669   5.721  0.8960  0.7460  0.4111
   54MOL   C65338919   2.529   4.684   5.870 -0.4256  0.0045 -0.3004
   54MOL   C65438920   2.504   4.564   5.958  0.2542  0.0797  0.0863
   54MOL   C65538921   2.609   4.448   5.933  0.1573 -0.0612  0.1213
   54MOL   C65638922   2.599   4.332   6.038 -0.5917  0.7578 -0.3268
   54MOL   C65738923   2.676   4.202   6.009 -0.4436  0.5006 -0.5728
   54MOL   O65838924   2.817   4.226   5.995 -0.2108  0.2385 -0.2633
   54MOL   C65938925   2.909   4.151   6.059  0.2706 -0.2976  0.4454
   54MOL   O66038926   2.891   4.046   6.129 -0.3413 -0.5309 -0.2510
   54MOL   C66138927   3.049   4.207   6.042  0.3643 -0.3689  0.6332
   54MOL   C66238928   3.053   4.297   5.914 -0.2127  0.2552 -0.7538
   54MOL   C66338929   3.110   4.293   6.165 -0.0135  0.0825 -0.1345
   54MOL   H66438930   2.699   4.783   5.592 -3.7477 -1.9006 -2.3355
   54MOL   H66538931   2.678   4.872   5.740  1.6581 -0.7574 -0.1253
   54MOL   H66638932   2.652   4.952   5.582  0.5478  0.2405  1.3319
   54MOL   H66738933   2.463   4.802   5.545 -2.2023  0.1215  0.7332
   54MOL   H66838934   2.434   4.877   5.705 -0.1998  1.6636 -0.6842
   54MOL   H66938935   2.561   4.606   5.664  1.9111  0.2397  2.1531
   54MOL   H67038936   2.391   4.633   5.704 -0.3418  4.3896 -0.2099
   54MOL   H67138937   2.464   4.761   5.912 -1.6899 -1.1278 -0.1237
   54MOL   H67238938   2.635   4.708   5.881  0.4875 -3.3600 -1.0927
   54MOL   H67338939   2.402   4.529   5.944  0.5760 -1.0217  0.4644
   54MOL   H67438940   2.515   4.575   6.066  1.3753 -3.2862  0.3681
   54MOL   H67538941   2.583   4.407   5.836 -0.6096 -1.6461  0.9808
   54MOL   H67638942   2.712   4.481   5.927  0.4839 -1.0264  0.3238
   54MOL   H67738943   2.497   4.295   6.044 -0.6885  1.0377 -0.2438
   54MOL   H67838944   2.632   4.368   6.135 -0.1100 -2.9342  0.9701
   54MOL   H67938945   2.629   4.165   5.918 -0.8525 -1.6691  0.4911
   54MOL   H68038946   2.655   4.136   6.094  2.7527  0.5979  0.3385
   54MOL   H68138947   2.999   4.250   5.832 -0.8682  1.3948 -0.9800
   54MOL   H68238948   3.159   4.305   5.892  0.0423 -1.1361 -0.1035
   54MOL   H68338949   3.007   4.395   5.927 -1.9566 -0.7201  0.6448
   54MOL   H68438950   3.172   4.227   6.224  0.3771  1.3597  0.9160
   54MOL   H68538951   3.183   4.355   6.112  0.8698 -0.5623  0.3301
   54MOL   C68638952   2.564   3.450   6.765  0.4224  0.1889  0.1825
   54MOL   C68738953   2.709   3.485   6.740  0.5095 -0.3984 -0.5192
   54MOL   C68838954   2.750   3.596   6.649  0.7875  0.2981  0.2602
   54MOL   C68938955   2.899   3.625   6.649  0.3670  0.0852 -0.2596
   54MOL   C69038956   2.928   3.717   6.531 -0.3098 -0.5818  0.6514
   54MOL   C69138957   2.884   3.865   6.560 -0.4616 -0.0491  0.1804
   54MOL   C69238958   2.940   3.967   6.458 -0.2150  0.3142 -0.5911
   54MOL   C69338959   2.903   4.109   6.483  0.0071  0.2559  0.0540
   54MOL   O69438960   2.976   4.194   6.395 -0.4507  0.0669 -0.0573
   54MOL   C69538961   2.916   4.298   6.337 -0.3320  0.1046  0.3729
   54MOL   O69638962   2.790   4.322   6.354  0.2772  0.3577 -0.0065
   54MOL   C69738963   3.012   4.383   6.258  0.1182  0.1692  0.0728
   54MOL   C69838964   2.937   4.479   6.170  0.0375  0.1997  0.2756
   54MOL   C69938965   3.098   4.450   6.367 -0.5847 -0.1367  1.2804
   54MOL   H70038966   2.501   3.449   6.676  0.1042  1.0017  0.3937
   54MOL   H70138967   2.516   3.504   6.847 -0.3292 -1.1860  0.6656
   54MOL   H70238968   2.553   3.353   6.813  0.0037  1.7137  3.3007
   54MOL   H70338969   2.770   3.396   6.721  0.9690  0.0890 -1.3860
   54MOL   H70438970   2.750   3.521   6.834  0.1672  1.2141 -0.9613
   54MOL   H70538971   2.686   3.677   6.686 -0.6777 -0.9388  0.4626
   54MOL   H70638972   2.715   3.576   6.548  0.9801  0.3174  0.1881
   54MOL   H70738973   2.939   3.528   6.617  1.7571 -0.1777  2.1651
   54MOL   H70838974   2.935   3.661   6.745  0.3707 -0.0030 -0.2272
   54MOL   H70938975   2.876   3.691   6.439  3.3799  0.5418 -1.8869
   54MOL   H71038976   3.035   3.714   6.510 -0.2025 -4.1127  1.3515
   54MOL   H71138977   2.775   3.869   6.555 -0.4297  0.5915 -0.0155
   54MOL   H71238978   2.913   3.884   6.663 -0.3800  1.7826 -0.1590
   54MOL   H71338979   3.048   3.958   6.462 -0.3548 -1.1658  0.2819
   54MOL   H71438980   2.913   3.942   6.355  1.5667  2.1643 -1.5353
   54MOL   H71538981   2.925   4.121   6.589  0.3070 -0.8998  0.1312
   54MOL   H71638982   2.798   4.118   6.453  0.0499 -0.6905 -0.3751
   54MOL   H71738983   2.852   4.429   6.124 -0.0996 -0.2398  1.0061
   54MOL   H71838984   2.902   4.569   6.222 -1.3819 -1.0747  1.5760
   54MOL   H71938985   2.987   4.538   6.093  0.2182  0.7816  0.8388
   54MOL   H72038986   3.190   4.484   6.320 -1.2625 -1.0213 -0.7308
   54MOL   H72138987   3.130   4.390   6.452 -0.2511 -0.7924  0.6918
   54MOL   H72238988   3.039   4.533   6.407 -2.1223 -0.8141  0.4707
   55MOL     C138989   2.693   4.654   2.956  0.5149  0.9835  0.6362
   55MOL     C238990   2.576   4.747   2.937  0.0328 -0.2549  0.4038
   55MOL     C338991   2.613   4.897   2.981 -1.0608 -0.6933 -0.0100
   55MOL     C438992   2.494   5.007   2.988  0.2934  1.0030  0.1977
   55MOL     C538993   2.515   5.135   3.063 -0.0277 -0.6105  0.2876
   55MOL     C638994   2.402   5.231   3.040 -0.0136  0.5188 -0.2864
   55MOL     C738995   2.431   5.368   3.111 -0.1964 -0.3127  0.2223
   55MOL     C838996   2.331   5.486   3.081  0.5231  0.3331 -0.2193
   55MOL     O938997   2.308   5.514   2.947 -0.4454  0.0593  0.1511
   55MOL    C1038998   2.209   5.454   2.885 -0.2755  0.1489  0.0742
   55MOL    O1138999   2.136   5.371   2.931 -0.6656  0.3750 -0.1562
   55MOL    C1239000   2.205   5.486   2.734 -0.2399 -0.9238  0.4252
   55MOL    C1339001   2.179   5.640   2.717  0.6858  0.4401 -0.1964
   55MOL    C1439002   2.342   5.460   2.663  0.5547  0.4336 -0.8917
   55MOL    H1539003   2.717   4.648   3.062  1.0975 -0.7806  0.4365
   55MOL    H1639004   2.778   4.667   2.889  0.4645  0.7219  0.5206
   55MOL    H1739005   2.659   4.551   2.941  0.8390  1.0015 -0.2554
   55MOL    H1839006   2.492   4.700   2.988 -1.0273  0.5356 -0.5723
   55MOL    H1939007   2.533   4.748   2.836  1.1893  3.2213 -0.1402
   55MOL    H2039008   2.664   4.895   3.077 -4.1047 -2.2214  1.6653
   55MOL    H2139009   2.678   4.946   2.908  0.2457 -0.9466  0.9604
   55MOL    H2239010   2.472   5.016   2.882 -0.1595  1.2326  0.3065
   55MOL    H2339011   2.395   4.970   3.016 -0.8159  1.1971 -3.1930
   55MOL    H2439012   2.605   5.182   3.024 -0.8166  1.6819  1.1255
   55MOL    H2539013   2.532   5.127   3.170 -0.7337  0.7862  0.5221
   55MOL    H2639014   2.311   5.179   3.069  1.1061 -0.4324  1.6478
   55MOL    H2739015   2.397   5.251   2.933  1.9154  0.2506 -0.4536
   55MOL    H2839016   2.522   5.406   3.064 -1.0104 -0.3462 -1.4130
   55MOL    H2939017   2.449   5.348   3.217  1.0214 -2.3317 -0.3319
   55MOL    H3039018   2.377   5.573   3.128 -0.4072  0.6509  0.1087
   55MOL    H3139019   2.241   5.458   3.136  0.4215  1.7755  0.3591
   55MOL    H3239020   2.257   5.701   2.764 -1.0159  1.2085  1.7380
   55MOL    H3339021   2.187   5.678   2.615 -1.2871 -0.8814 -0.8716
   55MOL    H3439022   2.082   5.660   2.763 -0.0913 -3.6725  0.1116
   55MOL    H3539023   2.419   5.464   2.739 -0.8311  0.1142  0.5533
   55MOL    H3639024   2.359   5.547   2.599  1.3878  0.1485 -1.0620
   55MOL    H3739025   2.121   5.433   2.690 -0.8831 -0.5697  1.2147
   55MOL    C3839026   2.459   6.084   1.720 -0.3341 -0.3218 -0.4977
   55MOL    C3939027   2.374   6.008   1.822  0.1401  0.5920 -0.1566
   55MOL    C4039028   2.385   5.858   1.806  0.0983  0.0451  0.4845
   55MOL    C4139029   2.315   5.788   1.919  0.8096  0.4080 -0.6228
   55MOL    C4239030   2.286   5.637   1.890  0.1765  0.6447 -0.4758
   55MOL    C4339031   2.206   5.572   2.002  0.1648 -0.1000  0.2187
   55MOL    C4439032   2.288   5.560   2.136 -0.1105 -0.2614 -0.1941
   55MOL    C4539033   2.212   5.492   2.250  0.3151 -0.4030 -0.5138
   55MOL    O4639034   2.294   5.457   2.357  0.0528 -0.5169  0.6729
   55MOL    C4739035   2.269   5.349   2.439  0.1318  0.4008  0.4710
   55MOL    O4839036   2.177   5.269   2.417 -0.2598  0.8622  0.5816
   55MOL    C4939037   2.362   5.342   2.563 -0.2770 -0.8370 -0.9776
   55MOL    C5039038   2.340   5.207   2.636  0.7485 -0.7174  0.4480
   55MOL    C5139039   2.514   5.342   2.510  0.6592  0.1145  0.1405
   55MOL    H5239040   2.564   6.065   1.742  0.2583  0.9226 -2.1631
   55MOL    H5339041   2.436   6.190   1.723 -1.4035 -0.4668 -2.6341
   55MOL    H5439042   2.466   6.043   1.619 -0.1112 -1.6979  0.0612
   55MOL    H5539043   2.268   6.033   1.815 -0.1721  0.0444  2.0103
   55MOL    H5639044   2.400   6.030   1.926 -2.1946 -1.2663  0.8650
   55MOL    H5739045   2.351   5.826   1.708 -1.6602  1.0202  0.7677
   55MOL    H5839046   2.490   5.827   1.804  0.1468  0.2596 -0.1158
   55MOL    H5939047   2.230   5.851   1.945 -1.3209 -1.4948 -2.7739
   55MOL    H6039048   2.378   5.800   2.008 -1.0222  1.4863  0.5614
   55MOL    H6139049   2.224   5.624   1.801 -0.2307 -0.1963 -0.0716
   55MOL    H6239050   2.379   5.583   1.880 -0.6883 -1.0940  0.6644
   55MOL    H6339051   2.117   5.634   2.016 -0.2539 -0.3864 -1.0535
   55MOL    H6439052   2.175   5.469   1.982 -0.8364  0.4955 -1.4941
   55MOL    H6539053   2.326   5.656   2.170 -2.0624  0.3888  0.2338
   55MOL    H6639054   2.379   5.504   2.113  0.0927  0.4231 -1.0885
   55MOL    H6739055   2.169   5.397   2.218  0.3721 -0.4677 -0.3950
   55MOL    H6839056   2.131   5.557   2.282 -1.1269 -1.7780 -1.2720
   55MOL    H6939057   2.417   5.204   2.714  0.0658 -0.9072  1.1206
   55MOL    H7039058   2.242   5.196   2.681  0.6525 -0.6441  0.2565
   55MOL    H7139059   2.355   5.121   2.572 -0.3319 -1.4620  1.1801
   55MOL    H7239060   2.575   5.369   2.596  0.7202 -2.1435  0.8541
   55MOL    H7339061   2.519   5.430   2.447 -1.6269 -0.3293 -0.7271
   55MOL    C7439062   2.853   4.799   1.882 -0.3240  0.4765 -0.8163
   55MOL    C7539063   2.787   4.738   2.006  0.0723  0.0110 -0.1739
   55MOL    C7639064   2.880   4.707   2.123 -0.8025  0.6190 -0.6507
   55MOL    C7739065   2.817   4.638   2.246  0.3260 -1.2643  0.3095
   55MOL    C7839066   2.711   4.723   2.320  0.2849 -0.0677  0.1836
   55MOL    C7939067   2.664   4.661   2.449 -0.1922  0.0923  0.0822
   55MOL    C8039068   2.558   4.738   2.526  0.1605 -0.0759  0.4038
   55MOL    C8139069   2.604   4.871   2.588  0.2848 -0.3628  0.0583
   55MOL    O8239070   2.590   4.979   2.500 -0.3216 -0.2583  0.1144
   55MOL    C8339071   2.623   5.104   2.536  0.1352  0.3090 -0.2024
   55MOL    O8439072   2.670   5.128   2.649  0.1631  0.0846 -0.5014
   55MOL    C8539073   2.591   5.222   2.437 -0.2888  0.0321  0.2739
   55MOL    C8639074   2.514   5.186   2.308 -0.1500 -0.5740  0.5741
   55MOL    C8739075   2.725   5.286   2.391 -0.0104  0.3450  0.2278
   55MOL    H8839076   2.922   4.881   1.900 -1.0932  1.2760 -1.4999
   55MOL    H8939077   2.774   4.834   1.816 -1.9327  0.6653  1.1520
   55MOL    H9039078   2.901   4.721   1.824  1.9488 -0.2092  1.8564
   55MOL    H9139079   2.725   4.653   1.977 -0.5719 -0.0663  1.3896
   55MOL    H9239080   2.716   4.813   2.041 -1.3232 -1.3186 -0.1038
   55MOL    H9339081   2.959   4.642   2.084  0.6252  1.9804 -0.0868
   55MOL    H9439082   2.916   4.802   2.163 -2.0382  0.0380  1.9551
   55MOL    H9539083   2.895   4.614   2.318  0.5234 -2.4714 -0.2784
   55MOL    H9639084   2.772   4.543   2.216  0.4615 -1.2456  0.0374
   55MOL    H9739085   2.757   4.822   2.328 -0.1440  0.1137  0.4124
   55MOL    H9839086   2.621   4.728   2.258  2.6812  1.7494 -3.3067
   55MOL    H9939087   2.622   4.563   2.428  0.6825 -0.4105  0.6485
   55MOL   H10039088   2.747   4.630   2.513  0.7648 -1.6308 -1.9183
   55MOL   H10139089   2.466   4.756   2.472  0.1018 -2.8750 -0.5061
   55MOL   H10239090   2.530   4.680   2.614  1.0036  0.6327  1.1523
   55MOL   H10339091   2.708   4.849   2.612  0.4071  1.1253  0.9329
   55MOL   H10439092   2.558   4.881   2.686 -1.4559  1.4471 -0.9116
   55MOL   H10539093   2.500   5.278   2.252 -0.1019 -0.3590  0.9110
   55MOL   H10639094   2.413   5.154   2.336 -0.5482  0.0771 -0.0873
   55MOL   H10739095   2.568   5.104   2.261 -0.5121 -0.6287  0.2467
   55MOL   H10839096   2.702   5.379   2.339  1.6884  1.1625  0.9262
   55MOL   H10939097   2.772   5.313   2.486  0.7807 -1.1863  0.2861
   55MOL   C11039098   2.826   6.029   2.010  0.4775  0.1920  0.2804
   55MOL   C11139099   2.715   5.932   1.962  1.0955 -0.2147 -0.4873
   55MOL   C11239100   2.728   5.784   2.013  0.6879 -0.3679 -0.1054
   55MOL   C11339101   2.844   5.722   1.944  0.3428 -0.2866  0.2079
   55MOL   C11439102   2.843   5.567   1.947  0.2487  0.0717 -0.2290
   55MOL   C11539103   2.773   5.491   1.836  0.0364  0.4603 -0.1784
   55MOL   C11639104   2.786   5.344   1.854  0.5844 -0.4019 -0.3273
   55MOL   C11739105   2.700   5.270   1.958 -0.0233  0.1594 -0.2134
   55MOL   O11839106   2.753   5.278   2.089  0.5069 -0.4453  0.4535
   55MOL   C11939107   2.794   5.173   2.160  0.4406 -0.0755  0.5367
   55MOL   O12039108   2.816   5.060   2.109  0.5908 -0.1423  0.1095
   55MOL   C12139109   2.841   5.220   2.303  0.1585  0.4954 -0.4659
   55MOL   C12239110   2.919   5.111   2.383 -0.1813  0.4936  0.1352
   55MOL   C12339111   2.943   5.341   2.284  0.0629 -0.6098  0.1772
   55MOL   H12439112   2.811   6.131   1.975  0.2108  0.2966  0.6964
   55MOL   H12539113   2.840   6.026   2.118 -1.4418 -0.8313  0.5370
   55MOL   H12639114   2.926   6.000   1.978  0.9166  1.3604  0.6011
   55MOL   H12739115   2.712   5.930   1.853 -0.5724 -0.1117 -0.4566
   55MOL   H12839116   2.622   5.983   1.987  1.2497 -0.7697  1.3557
   55MOL   H12939117   2.639   5.723   2.001 -0.1481  0.7764  0.1804
   55MOL   H13039118   2.744   5.779   2.120  0.2462 -1.4017 -0.0873
   55MOL   H13139119   2.838   5.740   1.837  1.8448  2.5961  0.5424
   55MOL   H13239120   2.938   5.760   1.985  0.7439 -0.4670 -0.5254
   55MOL   H13339121   2.812   5.517   2.039  0.9072 -1.8617 -1.0126
   55MOL   H13439122   2.949   5.542   1.939 -0.2021 -1.8266 -0.6265
   55MOL   H13539123   2.671   5.528   1.845  1.0044  2.9359  0.9598
   55MOL   H13639124   2.803   5.539   1.743  0.5176  2.2993  0.8972
   55MOL   H13739125   2.892   5.325   1.869  0.2945 -1.9400 -0.1971
   55MOL   H13839126   2.768   5.292   1.760  0.4337 -3.6187  1.4203
   55MOL   H13939127   2.596   5.304   1.966  0.6597  2.7986 -1.9755
   55MOL   H14039128   2.704   5.168   1.920  1.5500  0.5374 -1.1045
   55MOL   H14139129   2.997   5.072   2.318  0.8291  0.9950  1.0425
   55MOL   H14239130   2.961   5.139   2.480  0.4795 -2.0437  0.6125
   55MOL   H14339131   2.862   5.027   2.424  1.7840 -0.2034  1.5321
   55MOL   H14439132   2.933   5.406   2.371 -0.0900  0.9300 -0.9854
   55MOL   H14539133   2.902   5.411   2.212 -0.6132 -1.8270 -0.6278
   55MOL   C14639134   2.698   5.687   3.122 -0.7166  0.8988 -0.2505
   55MOL   C14739135   2.761   5.573   3.046  0.8233  0.1244  0.0955
   55MOL   C14839136   2.737   5.586   2.898 -0.2223 -0.0982  0.4691
   55MOL   C14939137   2.787   5.464   2.825  0.2658  0.7738 -0.6388
   55MOL   C15039138   2.940   5.459   2.803 -0.1076 -0.0229  0.9228
   55MOL   C15139139   2.986   5.348   2.709 -0.4539  0.7878 -0.0773
   55MOL   C15239140   3.137   5.344   2.714  0.0074  0.0017  0.9956
   55MOL   C15339141   3.199   5.266   2.596  0.1453 -0.1498 -0.1512
   55MOL   O15439142   3.157   5.323   2.475 -0.1363  0.1698 -0.7416
   55MOL   C15539143   3.175   5.254   2.363 -0.0035  0.5098  0.1802
   55MOL   O15639144   3.251   5.159   2.351  0.0772 -0.1784  0.1638
   55MOL   C15739145   3.096   5.310   2.244 -0.2188  0.0905  0.3261
   55MOL   C15839146   3.116   5.215   2.126 -0.1987 -0.2628  0.1730
   55MOL   C15939147   3.153   5.457   2.203  0.2587  0.2540 -0.3133
   55MOL   H16039148   2.712   5.676   3.229 -1.6011  1.7504 -0.0366
   55MOL   H16139149   2.590   5.693   3.104 -1.2219 -0.7538  2.0560
   55MOL   H16239150   2.735   5.785   3.093 -0.7808  0.4881 -1.7858
   55MOL   H16339151   2.868   5.572   3.069  1.4251 -0.0868 -2.5210
   55MOL   H16439152   2.725   5.484   3.098 -0.2277  0.2315 -0.4437
   55MOL   H16539153   2.759   5.684   2.855 -0.8097 -0.4453 -0.6233
   55MOL   H16639154   2.629   5.570   2.892 -0.5267  1.5019  1.1929
   55MOL   H16739155   2.752   5.368   2.862 -0.0288  0.3103 -2.0827
   55MOL   H16839156   2.741   5.481   2.727 -0.9086 -0.4805 -0.3190
   55MOL   H16939157   2.988   5.446   2.900  0.3650  0.6079  0.7726
   55MOL   H17039158   2.960   5.556   2.758 -1.3434  0.5004  1.4794
   55MOL   H17139159   2.946   5.339   2.607  0.0906 -1.0756 -0.1467
   55MOL   H17239160   2.940   5.257   2.749 -0.0982 -0.3103 -2.0899
   55MOL   H17339161   3.171   5.448   2.707  1.5328 -0.6555 -2.1300
   55MOL   H17439162   3.167   5.304   2.810 -0.7724  0.8615  1.6152
   55MOL   H17539163   3.308   5.263   2.596  0.2144  1.0068 -2.1593
   55MOL   H17639164   3.175   5.161   2.612 -0.3601 -0.2401 -1.4544
   55MOL   H17739165   3.056   5.262   2.047 -0.7662 -1.4470 -0.1095
   55MOL   H17839166   3.078   5.115   2.144 -1.0280  0.0661  0.2914
   55MOL   H17939167   3.214   5.195   2.083 -0.5779 -2.0507  0.0989
   55MOL   H18039168   3.112   5.529   2.274  1.1717  0.4064  0.0677
   55MOL   H18139169   3.100   5.490   2.113 -1.6559 -2.2238 -0.1545
   55MOL   C18239170   2.974   6.000   3.262  0.0926  0.1916  0.7164
   55MOL   C18339171   3.092   5.925   3.190  0.7731 -0.1229 -0.3905
   55MOL   C18439172   3.073   5.925   3.036  0.1009 -0.1490  0.6133
   55MOL   C18539173   3.185   5.832   2.973  0.1313 -0.3131 -0.0594
   55MOL   C18639174   3.171   5.814   2.822  0.0548 -0.1529  0.1270
   55MOL   C18739175   3.274   5.720   2.757 -0.7664 -0.3292  0.7082
   55MOL   C18839176   3.255   5.713   2.609 -0.6799  0.0970  0.4384
   55MOL   C18939177   3.347   5.615   2.545 -0.1339  0.5270 -0.3409
   55MOL   O19039178   3.303   5.601   2.413 -0.5010 -0.5010 -0.4627
   55MOL   C19139179   3.367   5.512   2.333 -0.8499 -0.2647  0.5735
   55MOL   O19239180   3.471   5.449   2.364  0.4511 -0.7195 -0.1729
   55MOL   C19339181   3.306   5.503   2.188  0.9338 -0.1385  0.5185
   55MOL   C19439182   3.302   5.644   2.132  0.2502  0.1301 -0.3130
   55MOL   C19539183   3.371   5.395   2.101 -0.2592  0.2340 -0.2824
   55MOL   H19639184   2.985   6.007   3.370 -1.3782  3.3396  0.6961
   55MOL   H19739185   2.953   6.104   3.237  1.4729  0.1913 -0.5425
   55MOL   H19839186   2.877   5.953   3.246 -0.0607  0.9529 -0.7313
   55MOL   H19939187   3.109   5.825   3.228  0.1946  0.3597  1.1582
   55MOL   H20039188   3.188   5.975   3.208  0.3719 -0.4819  2.9435
   55MOL   H20139189   2.972   5.895   3.007  0.5641  0.1444 -1.3910
   55MOL   H20239190   3.075   6.029   3.002  0.2521 -0.3466 -0.0023
   55MOL   H20339191   3.282   5.877   2.993  0.3418 -0.4705 -0.6936
   55MOL   H20439192   3.185   5.738   3.027  1.5410  0.6165  1.5968
   55MOL   H20539193   3.168   5.918   2.789 -1.6591 -0.0361  0.5991
   55MOL   H20639194   3.074   5.768   2.801  0.1151 -0.4566  0.5129
   55MOL   H20739195   3.263   5.619   2.798  1.1561 -0.1564  1.7229
   55MOL   H20839196   3.376   5.751   2.778 -1.5015  1.5295  1.6454
   55MOL   H20939197   3.151   5.687   2.591 -0.7396  0.0547  0.8291
   55MOL   H21039198   3.269   5.815   2.574 -0.8169 -0.2249 -0.5666
   55MOL   H21139199   3.351   5.522   2.602 -1.4102  1.0745  0.6682
   55MOL   H21239200   3.444   5.664   2.552 -1.4658  3.0135  1.4841
   55MOL   H21339201   3.267   5.655   2.030 -0.1870 -1.7442 -0.3837
   55MOL   H21439202   3.253   5.714   2.199  0.5778  0.6438 -0.6065
   55MOL   H21539203   3.408   5.671   2.133 -0.3554  2.5721  0.7491
   55MOL   H21639204   3.388   5.311   2.168 -0.8427  0.4274  0.1168
   55MOL   H21739205   3.293   5.394   2.024  0.1711 -1.5003 -0.7102
   55MOL   C21839206   3.543   6.367   2.185  0.1828  0.3115  0.0504
   55MOL   C21939207   3.691   6.324   2.178  0.8899 -0.0025  0.1798
   55MOL   C22039208   3.732   6.242   2.050 -0.6610  0.2373  0.7758
   55MOL   C22139209   3.686   6.090   2.054 -0.1921 -0.4186 -0.1278
   55MOL   C22239210   3.779   5.997   2.121 -0.2168  0.1936  0.0462
   55MOL   C22339211   3.727   5.856   2.134  0.0057  0.1677  0.3416
   55MOL   C22439212   3.829   5.742   2.140 -0.6800 -0.5019 -0.3973
   55MOL   C22539213   3.774   5.611   2.189 -0.7269 -0.2031 -0.4315
   55MOL   O22639214   3.668   5.568   2.108  0.0523 -0.2276 -0.1933
   55MOL   C22739215   3.630   5.435   2.107 -0.3507 -0.8422  0.7368
   55MOL   O22839216   3.695   5.348   2.169  0.3923  0.4242  0.5816
   55MOL   C22939217   3.502   5.406   2.015  0.4885  0.1538 -0.2102
   55MOL   C23039218   3.487   5.518   1.910 -0.1058 -0.3167 -0.2197
   55MOL   C23139219   3.526   5.268   1.953  0.6028 -0.0493  0.0507
   55MOL   H23239220   3.474   6.292   2.146  0.1386 -1.1327  2.8109
   55MOL   H23339221   3.528   6.451   2.116 -1.4341 -1.8056 -2.2412
   55MOL   H23439222   3.514   6.396   2.286 -0.8511 -0.2603 -0.0742
   55MOL   H23539223   3.723   6.278   2.272  3.7611  0.3680 -0.5778
   55MOL   H23639224   3.762   6.406   2.169  0.9246 -0.2254 -1.6062
   55MOL   H23739225   3.695   6.287   1.958  1.3571  0.6587  0.1430
   55MOL   H23839226   3.841   6.243   2.042 -0.6174 -1.0360  1.0794
   55MOL   H23939227   3.595   6.076   2.112 -0.4979  0.2949 -0.4307
   55MOL   H24039228   3.662   6.055   1.954  0.3737 -4.8207  1.1546
   55MOL   H24139229   3.873   5.995   2.065 -0.4666 -1.1629 -0.3193
   55MOL   H24239230   3.802   6.019   2.226  2.5473 -0.0962 -0.4496
   55MOL   H24339231   3.647   5.845   2.207 -0.7281 -0.2799 -0.5215
   55MOL   H24439232   3.681   5.845   2.035 -0.1930  1.7288  0.2605
   55MOL   H24539233   3.909   5.771   2.209 -2.0553  1.2365  0.4969
   55MOL   H24639234   3.866   5.726   2.038 -3.3330 -0.1027 -1.4454
   55MOL   H24739235   3.739   5.614   2.292 -0.5225  0.9581 -0.3893
   55MOL   H24839236   3.853   5.536   2.191  0.1839  0.7588  0.2313
   55MOL   H24939237   3.480   5.621   1.945  1.6624 -0.3994  0.4421
   55MOL   H25039238   3.416   5.497   1.830 -2.7469  0.6306  1.8097
   55MOL   H25139239   3.569   5.531   1.839 -1.2924  0.9656 -1.3976
   55MOL   H25239240   3.558   5.206   2.036 -1.0879  1.2629  1.7221
   55MOL   H25339241   3.430   5.224   1.925 -0.0153  2.4241 -1.9538
   55MOL   C25439242   2.816   4.935   1.357 -0.8510 -0.1427  0.1422
   55MOL   C25539243   2.916   5.048   1.343 -0.5121  0.6055 -0.0451
   55MOL   C25639244   2.947   5.114   1.479  0.0480  0.1197 -0.2310
   55MOL   C25739245   3.027   5.240   1.459 -0.6665  0.4158  0.1880
   55MOL   C25839246   3.101   5.292   1.592  0.4602 -0.5685  0.4462
   55MOL   C25939247   3.196   5.412   1.557 -0.2158 -0.1765 -0.1681
   55MOL   C26039248   3.324   5.370   1.493  0.0894 -0.1111  0.2187
   55MOL   C26139249   3.382   5.226   1.542  0.1779 -0.0997 -0.3050
   55MOL   O26239250   3.440   5.228   1.675 -0.0590 -0.1439 -0.7458
   55MOL   C26339251   3.557   5.291   1.705 -0.3863 -0.3919  0.3447
   55MOL   O26439252   3.601   5.387   1.638 -0.0124  0.1933  0.2095
   55MOL   C26539253   3.619   5.231   1.834  0.0777  0.5450  0.1799
   55MOL   C26639254   3.618   5.078   1.828 -0.0818 -0.3035  0.2282
   55MOL   C26739255   3.768   5.275   1.861 -0.7623  0.0257 -0.0947
   55MOL   H26839256   2.869   4.844   1.385 -0.6563  0.0279  0.3252
   55MOL   H26939257   2.741   4.943   1.436 -3.6034 -0.2973 -2.3755
   55MOL   H27039258   2.755   4.910   1.270  2.9037 -1.9858 -2.0794
   55MOL   H27139259   3.001   5.002   1.292 -2.3555 -2.0680 -0.8501
   55MOL   H27239260   2.874   5.118   1.271 -0.3147 -1.2272 -2.0058
   55MOL   H27339261   3.011   5.052   1.542  0.6980 -2.1574 -3.0415
   55MOL   H27439262   2.858   5.136   1.538  0.4278  0.7249  0.1226
   55MOL   H27539263   2.974   5.314   1.400  1.8825  2.4863  0.3986
   55MOL   H27639264   3.106   5.214   1.389  0.7102 -0.9199  2.1505
   55MOL   H27739265   3.023   5.325   1.662 -0.8544  1.7296 -2.0016
   55MOL   H27839266   3.137   5.208   1.651 -1.6780 -1.0432  1.1364
   55MOL   H27939267   3.214   5.472   1.646 -1.6072  0.6185 -0.4219
   55MOL   H28039268   3.150   5.480   1.485  0.6632  0.8875  0.2678
   55MOL   H28139269   3.304   5.359   1.387 -2.8886 -0.5079  0.7710
   55MOL   H28239270   3.404   5.444   1.495 -0.1703  0.1618  2.3647
   55MOL   H28339271   3.300   5.154   1.545  1.0185 -1.0673 -0.2802
   55MOL   H28439272   3.452   5.185   1.469  1.1846  0.0070  0.5911
   55MOL   H28539273   3.513   5.050   1.816 -0.2700  0.0954  0.9565
   55MOL   H28639274   3.677   5.048   1.741  0.5837 -0.2926  0.6653
   55MOL   H28739275   3.644   5.013   1.911  0.7385  1.6943  1.5743
   55MOL   H28839276   3.793   5.255   1.965  1.5039 -2.9526 -1.1571
   55MOL   H28939277   3.765   5.384   1.853  1.2346  0.0740 -0.3025
   55MOL   C29039278   3.599   4.649   2.627 -0.3382 -0.4509 -0.0809
   55MOL   C29139279   3.642   4.800   2.608  0.5007 -0.3982 -0.1069
   55MOL   C29239280   3.723   4.816   2.484  0.0455  0.4286  0.0679
   55MOL   C29339281   3.643   4.831   2.351  0.5993 -0.2666 -0.2717
   55MOL   C29439282   3.727   4.791   2.227  0.2059 -0.0783 -0.5952
   55MOL   C29539283   3.827   4.901   2.179  0.0036  0.2818  0.7822
   55MOL   C29639284   3.910   4.849   2.058 -0.2205  0.1104 -0.8859
   55MOL   C29739285   4.025   4.949   2.020 -0.3723 -0.2068  0.6689
   55MOL   O29839286   3.971   5.075   1.971 -0.1624  0.0807  0.1575
   55MOL   C29939287   3.943   5.082   1.840  0.1437  0.2180  0.2029
   55MOL   O30039288   3.940   4.984   1.763 -0.1857 -0.6769  0.2223
   55MOL   C30139289   3.902   5.223   1.791 -0.6570  0.4092 -0.3709
   55MOL   C30239290   3.880   5.227   1.637  0.8860 -0.1640  0.1622
   55MOL   C30339291   4.013   5.330   1.845 -0.2676 -0.1968  0.8504
   55MOL   H30439292   3.687   4.585   2.620 -0.3406 -0.3704 -0.8376
   55MOL   H30539293   3.528   4.621   2.549 -0.3694  2.8915 -1.3276
   55MOL   H30639294   3.552   4.637   2.724 -1.3093 -0.4610 -0.5512
   55MOL   H30739295   3.701   4.820   2.698  0.2963  1.1764 -0.3113
   55MOL   H30839296   3.554   4.865   2.600 -0.5960 -1.7513  0.6848
   55MOL   H30939297   3.798   4.737   2.482 -1.4617 -1.0126 -2.0495
   55MOL   H31039298   3.791   4.901   2.490  0.7175 -0.0520 -0.5752
   55MOL   H31139299   3.555   4.766   2.348 -0.5916  1.3672 -1.3724
   55MOL   H31239300   3.606   4.933   2.346  0.4143 -0.2104  1.9427
   55MOL   H31339301   3.781   4.698   2.243  2.1900  1.6199  3.1156
   55MOL   H31439302   3.650   4.771   2.152 -1.5388 -2.8254  1.8514
   55MOL   H31539303   3.904   4.911   2.256  0.9191  0.4721 -0.1365
   55MOL   H31639304   3.787   4.999   2.156 -0.4821  0.0034  0.4428
   55MOL   H31739305   3.861   4.825   1.964 -0.7810  1.3514 -0.9234
   55MOL   H31839306   3.949   4.756   2.101  1.3745  1.3707  0.4830
   55MOL   H31939307   4.083   4.897   1.944  0.5654 -0.5312  1.5891
   55MOL   H32039308   4.096   4.971   2.099 -0.6074  0.8888  0.5805
   55MOL   H32139309   3.802   5.160   1.599  0.9291 -0.8790  1.3183
   55MOL   H32239310   3.960   5.183   1.577  1.9008 -0.5993  1.8100
   55MOL   H32339311   3.853   5.324   1.595  1.1575 -0.5670 -0.9809
   55MOL   H32439312   3.972   5.431   1.851  1.3441  0.4565  1.1615
   55MOL   H32539313   4.029   5.300   1.949 -0.7873 -2.2377  0.3686
   55MOL   C32639314   4.561   4.401   1.430  0.5017 -0.4297 -0.6671
   55MOL   C32739315   4.454   4.502   1.387  0.1843  0.3793  0.4197
   55MOL   C32839316   4.513   4.633   1.327  0.0401 -0.4097  0.2798
   55MOL   C32939317   4.407   4.738   1.295  0.0457  0.5597 -0.0502
   55MOL   C33039318   4.368   4.823   1.414  0.1593  0.0194 -0.1720
   55MOL   C33139319   4.261   4.928   1.378  0.1687  0.0966  0.2890
   55MOL   C33239320   4.185   4.969   1.499  0.4562  0.2137  0.1079
   55MOL   C33339321   4.266   5.037   1.605 -0.2179  0.3463 -0.3187
   55MOL   O33439322   4.192   5.150   1.651  0.0726  0.8319 -0.3094
   55MOL   C33539323   4.221   5.217   1.767 -0.0781  1.0003  0.3403
   55MOL   O33639324   4.302   5.174   1.843  0.2704 -0.4303 -0.3072
   55MOL   C33739325   4.155   5.359   1.786 -0.1826 -0.2073 -0.3269
   55MOL   C33839326   4.147   5.426   1.642  0.4096 -0.5248 -0.4246
   55MOL   C33939327   4.233   5.455   1.887  0.1648 -0.1494 -0.9146
   55MOL   H34039328   4.508   4.310   1.460 -0.6197  0.4528  0.0840
   55MOL   H34139329   4.637   4.446   1.495  2.7553 -1.1664 -2.7294
   55MOL   H34239330   4.624   4.388   1.343  0.2265  0.6173 -1.0310
   55MOL   H34339331   4.401   4.527   1.479  3.6740  1.1853  2.3346
   55MOL   H34439332   4.383   4.460   1.317 -0.0675 -0.7033  1.3141
   55MOL   H34539333   4.567   4.597   1.239  0.8401 -0.2383  0.6947
   55MOL   H34639334   4.600   4.664   1.385 -0.8987  0.0630  1.4353
   55MOL   H34739335   4.327   4.694   1.235 -0.2528  0.2968  0.5374
   55MOL   H34839336   4.453   4.801   1.219 -0.8459 -0.1459 -1.2019
   55MOL   H34939337   4.332   4.758   1.494 -4.1324 -1.2432 -2.9489
   55MOL   H35039338   4.463   4.862   1.451  1.7788 -2.5701 -1.4557
   55MOL   H35139339   4.308   5.016   1.334  0.7285 -0.5983 -0.5172
   55MOL   H35239340   4.189   4.898   1.302 -0.1566 -0.8169  0.9569
   55MOL   H35339341   4.131   4.887   1.547  0.5161 -0.1037 -0.3630
   55MOL   H35439342   4.108   5.039   1.466 -0.5717 -0.9108  0.0668
   55MOL   H35539343   4.286   4.978   1.694 -0.6934  0.3629 -0.2006
   55MOL   H35639344   4.359   5.067   1.556 -0.7084  0.7452 -1.0107
   55MOL   H35739345   4.075   5.382   1.573 -0.0767  0.4774 -0.5794
   55MOL   H35839346   4.109   5.528   1.659  2.7798 -0.2352  3.7631
   55MOL   H35939347   4.239   5.430   1.585  0.4205 -1.1706 -0.4484
   55MOL   H36039348   4.158   5.522   1.929  0.3873 -1.0672  0.9819
   55MOL   H36139349   4.251   5.390   1.973 -0.8186  1.9241  0.9044
   55MOL   C36239350   3.359   5.768   1.668 -0.3266 -0.2248 -0.0471
   55MOL   C36339351   3.486   5.710   1.605 -0.6761  0.5256 -0.1071
   55MOL   C36439352   3.607   5.806   1.628  0.1207  0.3037  0.3841
   55MOL   C36539353   3.736   5.729   1.638 -0.5262  0.6383 -0.0685
   55MOL   C36639354   3.837   5.828   1.678 -0.0616 -0.4433 -0.0408
   55MOL   C36739355   3.983   5.786   1.684  0.2884  0.1585  0.1622
   55MOL   C36839356   4.088   5.897   1.713 -0.0867 -0.3711 -0.6411
   55MOL   C36939357   4.235   5.846   1.712 -0.4291  0.0759 -0.0003
   55MOL   O37039358   4.268   5.741   1.797  0.2967 -0.3766  0.1470
   55MOL   C37139359   4.349   5.639   1.753  0.5813 -0.5445  0.1830
   55MOL   O37239360   4.394   5.623   1.640 -1.0232 -0.0972  0.5386
   55MOL   C37339361   4.369   5.529   1.862 -0.9974  0.4958 -0.1589
   55MOL   C37439362   4.481   5.431   1.813  0.6205 -0.4073 -0.3357
   55MOL   C37539363   4.408   5.592   2.002 -0.3599 -0.2475 -0.0524
   55MOL   H37639364   3.358   5.760   1.776 -0.1125  1.6091  0.1135
   55MOL   H37739365   3.338   5.875   1.658 -0.6127 -0.1572  1.2924
   55MOL   H37839366   3.272   5.711   1.636  0.1473 -1.8005  1.4164
   55MOL   H37939367   3.466   5.701   1.498 -2.2239  0.8441  0.1502
   55MOL   H38039368   3.501   5.612   1.650 -0.2259  1.7040  2.3745
   55MOL   H38139369   3.577   5.849   1.723 -2.1733 -0.3971  0.0006
   55MOL   H38239370   3.608   5.885   1.552 -1.8451 -0.3653 -0.3527
   55MOL   H38339371   3.761   5.700   1.536  0.1345  1.4273 -0.1326
   55MOL   H38439372   3.735   5.641   1.704  0.0391  1.2112  0.7062
   55MOL   H38539373   3.831   5.914   1.611 -0.1972  1.0309  1.8142
   55MOL   H38639374   3.804   5.871   1.772 -0.3571 -1.0322  0.1224
   55MOL   H38739375   4.008   5.735   1.591 -0.7847 -0.3220  0.1258
   55MOL   H38839376   3.984   5.705   1.757  0.2485 -1.8803 -2.0369
   55MOL   H38939377   4.064   5.935   1.813 -0.0860 -2.5702  0.2305
   55MOL   H39039378   4.070   5.969   1.634 -0.7749  0.2559  0.0762
   55MOL   H39139379   4.259   5.820   1.609 -4.2150 -0.2329 -0.8838
   55MOL   H39239380   4.299   5.928   1.745  1.0268 -0.5790 -1.1842
   55MOL   H39339381   4.440   5.388   1.722  0.5244  1.5354 -1.2523
   55MOL   H39439382   4.568   5.481   1.771  0.0411  0.6809 -0.2823
   55MOL   H39539383   4.512   5.354   1.884  1.0670  1.1812  1.2662
   55MOL   H39639384   4.319   5.644   2.038  0.0206  0.3040  0.1013
   55MOL   H39739385   4.417   5.511   2.073  0.1771  0.6083  0.8767
   55MOL   C39839386   4.960   4.936   2.342  0.7264 -0.4819  0.3122
   55MOL   C39939387   4.975   5.040   2.463 -0.1917  0.4671  0.2061
   55MOL   C40039388   4.853   5.133   2.481 -0.0497  0.4750  0.2391
   55MOL   C40139389   4.831   5.220   2.357 -0.3068  0.0235  0.1880
   55MOL   C40239390   4.941   5.318   2.322  0.2035 -0.3553 -0.1304
   55MOL   C40339391   4.901   5.413   2.212 -0.2462 -0.0992  0.6471
   55MOL   C40439392   4.851   5.351   2.079 -0.4510  0.1658  0.1719
   55MOL   C40539393   4.821   5.455   1.983  0.4942 -0.6845  0.1206
   55MOL   O40639394   4.692   5.506   2.019  0.1876 -0.0798 -0.0402
   55MOL   C40739395   4.668   5.626   1.967 -0.3075 -0.6555 -0.0973
   55MOL   O40839396   4.736   5.680   1.876 -0.1703  0.2668  0.0793
   55MOL   C40939397   4.534   5.687   2.020 -0.1999 -0.2556  0.0808
   55MOL   C41039398   4.509   5.822   1.957 -0.0419 -0.0869 -0.0126
   55MOL   C41139399   4.545   5.700   2.173  0.3371 -0.4821  0.5253
   55MOL   H41239400   4.984   4.983   2.246  1.7842  0.1969  0.9000
   55MOL   H41339401   4.857   4.903   2.336  0.0818  1.1449  2.0810
   55MOL   H41439402   5.034   4.856   2.351  1.0915 -0.0411  1.2305
   55MOL   H41539403   5.072   5.088   2.451  0.6285 -0.7116  1.8808
   55MOL   H41639404   4.983   4.991   2.560  1.3411  0.9808  0.3456
   55MOL   H41739405   4.763   5.075   2.501 -0.0919  0.1373 -0.8816
   55MOL   H41839406   4.869   5.198   2.567  0.9345 -0.1200  0.5186
   55MOL   H41939407   4.735   5.272   2.357  0.1653  0.8982  1.5482
   55MOL   H42039408   4.820   5.156   2.269 -0.9555 -1.3892  1.2873
   55MOL   H42139409   4.983   5.368   2.409  1.2415 -2.3272  0.5187
   55MOL   H42239410   5.026   5.262   2.284  0.3606 -0.8817  0.9826
   55MOL   H42339411   4.992   5.470   2.192 -1.4264  0.8838 -2.0801
   55MOL   H42439412   4.824   5.480   2.252 -1.4312 -2.6699  2.8092
   55MOL   H42539413   4.937   5.293   2.044  0.8555  1.8505  0.5281
   55MOL   H42639414   4.768   5.284   2.099  0.3986 -0.9403  0.0058
   55MOL   H42739415   4.898   5.533   1.983  1.6933 -1.8295  1.5808
   55MOL   H42839416   4.806   5.421   1.881  0.7338  3.7287 -1.5152
   55MOL   H42939417   4.580   5.898   1.986 -0.1677  0.0450 -0.0513
   55MOL   H43039418   4.409   5.859   1.982  0.5439  1.1126  0.5889
   55MOL   H43139419   4.523   5.821   1.849 -0.3462  2.2323 -0.0858
   55MOL   H43239420   4.554   5.598   2.212 -4.2898 -0.0506  3.0486
   55MOL   H43339421   4.444   5.727   2.201  0.3047  0.1437 -0.1608
   55MOL   C43439422   3.892   6.650   2.019  0.2966 -0.2094  0.0545
   55MOL   C43539423   4.048   6.649   2.030  0.6707  0.0676 -0.1965
   55MOL   C43639424   4.102   6.509   2.044  0.2892 -0.0663 -0.0176
   55MOL   C43739425   4.255   6.496   2.042  0.1584 -0.1591  0.2603
   55MOL   C43839426   4.310   6.351   2.038  0.4239 -0.0241  0.2389
   55MOL   C43939427   4.446   6.338   2.092 -0.0026 -0.6601  0.3703
   55MOL   C44039428   4.498   6.188   2.098  0.7305  0.1257 -0.1606
   55MOL   C44139429   4.610   6.183   2.207  0.4810  0.1099 -0.1170
   55MOL   O44239430   4.655   6.047   2.206 -0.9231  0.4526 -0.6299
   55MOL   C44339431   4.578   5.948   2.261  0.3529  0.1375  0.0978
   55MOL   O44439432   4.472   5.954   2.324  0.4083  0.3781  0.2478
   55MOL   C44539433   4.641   5.804   2.256  0.0657 -0.1224  0.5580
   55MOL   C44639434   4.782   5.808   2.199 -0.2542 -0.1738  0.9094
   55MOL   C44739435   4.635   5.740   2.404 -0.0708  0.0079 -0.8685
   55MOL   H44839436   3.868   6.671   1.915 -0.3161 -0.5800  0.1207
   55MOL   H44939437   3.844   6.730   2.075  0.4521 -1.4432  1.9984
   55MOL   H45039438   3.844   6.560   2.058 -2.8369  1.1080 -0.6417
   55MOL   H45139439   4.071   6.705   2.121  0.6006  0.3019 -0.3228
   55MOL   H45239440   4.091   6.698   1.943 -2.3156 -0.8906 -2.2801
   55MOL   H45339441   4.065   6.438   1.969  0.1028 -0.1204  0.1261
   55MOL   H45439442   4.077   6.462   2.139  0.0948  0.4924  0.2072
   55MOL   H45539443   4.295   6.547   2.130  0.0627  0.0486  0.1837
   55MOL   H45639444   4.299   6.552   1.959 -1.6742  1.9495  0.6437
   55MOL   H45739445   4.236   6.283   2.080 -2.0814  2.1416 -0.5362
   55MOL   H45839446   4.309   6.326   1.932  0.1067  0.5094  0.1150
   55MOL   H45939447   4.442   6.382   2.192 -3.7693  1.4842 -0.6366
   55MOL   H46039448   4.507   6.400   2.027 -0.6362  0.0516  0.4514
   55MOL   H46139449   4.417   6.116   2.113 -0.6898  1.7455  0.0943
   55MOL   H46239450   4.530   6.159   1.997 -0.1454 -1.9842  0.1371
   55MOL   H46339451   4.564   6.211   2.302  0.2460  0.5026 -0.3447
   55MOL   H46439452   4.695   6.246   2.181  0.5814  0.2066  0.4364
   55MOL   H46539453   4.835   5.875   2.268 -1.9986  1.0868  1.0583
   55MOL   H46639454   4.847   5.721   2.211  1.1952  0.4291 -1.9751
   55MOL   H46739455   4.788   5.834   2.093  0.7627  2.5452  1.5703
   55MOL   H46839456   4.531   5.727   2.436 -0.0522 -0.8662 -1.1517
   55MOL   H46939457   4.674   5.638   2.395 -0.8788 -0.1633 -2.5373
   55MOL   C47039458   5.040   6.703   2.388 -1.0205 -1.1020  0.1866
   55MOL   C47139459   5.027   6.559   2.351 -0.4771  0.4393 -0.0085
   55MOL   C47239460   4.963   6.481   2.462  0.5134 -0.2649 -0.6908
   55MOL   C47339461   4.920   6.335   2.423  0.4080  0.0025 -0.0517
   55MOL   C47439462   5.052   6.244   2.408  0.2383  0.6074 -0.4207
   55MOL   C47539463   5.023   6.096   2.452  0.3248  0.2394 -0.3283
   55MOL   C47639464   5.082   6.059   2.591  0.1789 -0.1026  0.4188
   55MOL   C47739465   5.061   5.908   2.611 -0.4216  0.0463  0.3300
   55MOL   O47839466   4.922   5.871   2.620  0.3810 -0.2772  0.1565
   55MOL   C47939467   4.859   5.790   2.524 -0.4985  0.2255  0.4256
   55MOL   O48039468   4.921   5.720   2.446  0.4047  0.4939  0.4608
   55MOL   C48139469   4.702   5.791   2.535  0.1572  0.6902 -0.4249
   55MOL   C48239470   4.656   5.936   2.572 -0.2861 -0.3348 -0.0056
   55MOL   C48339471   4.647   5.713   2.662 -0.5452 -0.2488 -0.1695
   55MOL   H48439472   4.943   6.747   2.414  0.0689  1.0561  0.7381
   55MOL   H48539473   5.078   6.766   2.307 -0.0924 -0.3941  1.1586
   55MOL   H48639474   5.109   6.716   2.471  0.4572  0.3905 -1.2255
   55MOL   H48739475   4.960   6.546   2.267 -1.1913 -0.8652  0.7503
   55MOL   H48839476   5.125   6.530   2.313 -0.2536  0.8663  0.2404
   55MOL   H48939477   5.013   6.492   2.559 -0.4788  0.4904 -0.2480
   55MOL   H49039478   4.861   6.519   2.474  0.5345  0.1089 -1.7311
   55MOL   H49139479   4.842   6.297   2.489 -1.9496 -0.6846 -3.1485
   55MOL   H49239480   4.874   6.337   2.325  0.4774  0.5530 -0.0694
   55MOL   H49339481   5.086   6.237   2.304 -1.2152  2.0998 -1.0132
   55MOL   H49439482   5.133   6.283   2.470 -0.5393  0.6979  0.5316
   55MOL   H49539483   4.916   6.077   2.451  0.4387 -0.4075 -0.4608
   55MOL   H49639484   5.079   6.031   2.385  2.0337  0.1859  1.1133
   55MOL   H49739485   5.190   6.071   2.584 -0.0156  0.3915 -2.8293
   55MOL   H49839486   5.039   6.122   2.668 -0.6031  0.3898 -0.4066
   55MOL   H49939487   5.107   5.881   2.706 -0.7951 -0.5962  0.3243
   55MOL   H50039488   5.118   5.843   2.545  2.3310  2.4031  0.2347
   55MOL   H50139489   4.691   5.972   2.669 -4.6313 -0.6297  1.8072
   55MOL   H50239490   4.547   5.938   2.569 -0.2595  3.4336 -1.4985
   55MOL   H50339491   4.694   6.012   2.504 -0.6090  1.1306  1.4064
   55MOL   H50439492   4.702   5.763   2.742 -0.7225 -1.3232  0.6278
   55MOL   H50539493   4.546   5.740   2.693 -0.8538 -3.6804  2.0590
   55MOL   C50639494   3.951   6.263   2.393  0.1960 -0.5502 -0.3502
   55MOL   C50739495   4.032   6.179   2.494  0.1344  0.6009  0.3900
   55MOL   C50839496   4.054   6.037   2.435  0.1411 -0.6424  0.4485
   55MOL   C50939497   4.139   5.952   2.519  0.1498  0.1049  0.0960
   55MOL   C51039498   4.168   5.814   2.460  0.2711 -0.0147 -0.6665
   55MOL   C51139499   4.233   5.715   2.560 -0.5375  0.3938  0.2941
   55MOL   C51239500   4.240   5.573   2.498  0.3505 -0.0603 -0.5308
   55MOL   C51339501   4.299   5.458   2.587  0.3083 -0.4895  0.1713
   55MOL   O51439502   4.413   5.510   2.655  0.1454 -0.8244  0.0227
   55MOL   C51539503   4.530   5.487   2.611  0.0177  0.4407 -0.4714
   55MOL   O51639504   4.551   5.429   2.506 -0.1223  0.0528 -0.0964
   55MOL   C51739505   4.649   5.552   2.690 -0.1709 -0.4066  0.5196
   55MOL   C51839506   4.783   5.493   2.651 -0.6023  0.0918  0.3664
   55MOL   C51939507   4.612   5.538   2.841  0.2841  0.1914  0.5146
   55MOL   H52039508   3.957   6.367   2.425  3.0753 -1.1482  1.2359
   55MOL   H52139509   3.851   6.228   2.417 -0.0408  0.3436 -0.0023
   55MOL   H52239510   3.990   6.242   2.294  1.9625  1.9674 -0.2158
   55MOL   H52339511   3.990   6.168   2.594 -0.8859 -2.1443 -0.2901
   55MOL   H52439512   4.131   6.221   2.510  1.2648 -2.0020  0.4718
   55MOL   H52539513   3.953   5.999   2.419 -0.0041  0.4635 -1.4081
   55MOL   H52639514   4.101   6.042   2.337  0.9983  1.4962  0.9440
   55MOL   H52739515   4.230   6.010   2.536 -0.5661  0.6399  2.3916
   55MOL   H52839516   4.096   5.944   2.619  1.5190 -1.0601  0.6107
   55MOL   H52939517   4.077   5.774   2.416  0.5250 -2.5624  1.0135
   55MOL   H53039518   4.240   5.838   2.382 -1.0278  2.8041 -1.0341
   55MOL   H53139519   4.185   5.705   2.657  2.6228  2.1024  2.1098
   55MOL   H53239520   4.332   5.751   2.588 -0.4829 -0.3826  1.1040
   55MOL   H53339521   4.299   5.603   2.412  0.0763  1.2964 -0.2670
   55MOL   H53439522   4.152   5.542   2.443 -0.6792  1.5244  0.1811
   55MOL   H53539523   4.319   5.377   2.517 -0.5101 -1.6719  1.2897
   55MOL   H53639524   4.242   5.411   2.667 -1.0498 -0.4217 -0.7353
   55MOL   H53739525   4.780   5.385   2.663 -1.8149  0.1765  0.8902
   55MOL   H53839526   4.869   5.529   2.708 -1.1455  3.4058 -0.7683
   55MOL   H53939527   4.792   5.509   2.543 -0.4730 -0.5073  0.2855
   55MOL   H54039528   4.670   5.602   2.908 -0.4928  0.0285  1.3485
   55MOL   H54139529   4.509   5.574   2.848  1.2108  3.7503 -2.2561
   55MOL   C54239530   4.928   5.978   3.457 -0.2876  0.2045 -0.0291
   55MOL   C54339531   4.891   5.832   3.495 -0.7686  0.1311  0.1622
   55MOL   C54439532   4.891   5.721   3.388  0.4389 -0.5218  0.0263
   55MOL   C54539533   5.040   5.690   3.344  0.1868 -0.4410 -0.5332
   55MOL   C54639534   5.064   5.589   3.228 -0.4724  0.6966 -0.0078
   55MOL   C54739535   5.057   5.655   3.086 -0.2465 -0.5261  0.5550
   55MOL   C54839536   5.076   5.558   2.969  0.1772  1.0546 -0.0912
   55MOL   C54939537   4.989   5.431   2.971  0.0616  0.6044 -0.2218
   55MOL   O55039538   4.845   5.452   2.969  0.5040 -0.2629  0.3381
   55MOL   C55139539   4.763   5.353   2.939 -0.4226 -0.5319  0.1746
   55MOL   O55239540   4.802   5.233   2.926  0.2686  0.4170 -0.3850
   55MOL   C55339541   4.617   5.402   2.925 -0.3013  0.1345 -0.3689
   55MOL   C55439542   4.532   5.287   2.868  0.3399 -0.6154 -0.3224
   55MOL   C55539543   4.570   5.418   3.076 -0.0014 -0.4188  0.1502
   55MOL   H55639544   4.922   6.028   3.554 -3.6279  0.6105 -0.4082
   55MOL   H55739545   4.863   6.033   3.389  1.1564 -2.0109 -3.2906
   55MOL   H55839546   5.033   5.994   3.433  0.2413 -1.7852  0.8377
   55MOL   H55939547   4.945   5.803   3.585 -0.6295  0.1943  0.0988
   55MOL   H56039548   4.788   5.832   3.533 -0.2865 -2.7293  1.6365
   55MOL   H56139549   4.842   5.765   3.301 -0.9795 -0.8515  0.6599
   55MOL   H56239550   4.852   5.626   3.423  2.5416 -1.4640 -0.0740
   55MOL   H56339551   5.098   5.781   3.328 -0.8463  0.4209  0.5609
   55MOL   H56439552   5.079   5.652   3.438 -1.7739  0.1203  0.5238
   55MOL   H56539553   4.989   5.511   3.237 -0.7256  0.7392 -1.5461
   55MOL   H56639554   5.161   5.541   3.240 -1.8490 -1.8066  1.4952
   55MOL   H56739555   4.957   5.699   3.084  0.3801  1.0868  3.0330
   55MOL   H56839556   5.135   5.730   3.071  0.0253 -1.1410 -1.1970
   55MOL   H56939557   5.065   5.606   2.872 -2.5513  1.3718  0.3450
   55MOL   H57039558   5.178   5.521   2.982 -1.3015 -2.0749  3.5149
   55MOL   H57139559   5.013   5.376   3.062 -0.8953  0.7098  0.1060
   55MOL   H57239560   5.003   5.365   2.886 -0.1523  0.3621 -0.0699
   55MOL   H57339561   4.504   5.218   2.948 -0.6811  0.6677  0.4580
   55MOL   H57439562   4.580   5.238   2.783 -0.8009  0.1205 -1.4090
   55MOL   H57539563   4.450   5.336   2.816  0.9234 -0.5715 -1.2047
   55MOL   H57639564   4.653   5.470   3.125  0.1952 -0.1776 -0.4292
   55MOL   H57739565   4.584   5.321   3.123 -2.3527 -2.2371 -2.7065
   55MOL   C57839566   4.492   6.456   2.472  0.1662 -0.0348  1.1152
   55MOL   C57939567   4.527   6.378   2.603 -0.9081  0.2773 -0.1229
   55MOL   C58039568   4.411   6.369   2.710  0.3302  0.6588 -0.1250
   55MOL   C58139569   4.449   6.299   2.834  0.4155 -0.1947  0.2344
   55MOL   C58239570   4.443   6.149   2.828  0.8065 -0.3821  0.6730
   55MOL   C58339571   4.503   6.076   2.952 -0.4484  0.1138 -0.7000
   55MOL   C58439572   4.485   5.922   2.937  0.1299 -0.1427  0.2513
   55MOL   C58539573   4.534   5.844   3.060  0.4096 -1.0568  0.0064
   55MOL   O58639574   4.488   5.707   3.054  0.0024 -0.0541  0.0866
   55MOL   C58739575   4.477   5.635   3.163  0.8752  0.1043  0.5369
   55MOL   O58839576   4.498   5.671   3.274  0.1836  0.0855  1.0075
   55MOL   C58939577   4.436   5.487   3.130 -0.1580 -0.3647  0.3191
   55MOL   C59039578   4.408   5.402   3.260 -0.1904 -0.4197 -0.1096
   55MOL   C59139579   4.317   5.486   3.031  0.0972  0.6372  0.0681
   55MOL   H59239580   4.581   6.454   2.409 -1.5537 -0.2545 -1.4025
   55MOL   H59339581   4.463   6.557   2.501 -2.8152 -0.6855  0.5950
   55MOL   H59439582   4.408   6.409   2.421  0.9008  0.8692 -0.9785
   55MOL   H59539583   4.609   6.433   2.648 -0.6347  0.1085 -0.4092
   55MOL   H59639584   4.559   6.281   2.564 -1.6696 -0.5837  1.3584
   55MOL   H59739585   4.339   6.311   2.652  0.2585 -1.0092  1.5408
   55MOL   H59839586   4.354   6.458   2.736  1.7810  1.0854  1.7016
   55MOL   H59939587   4.386   6.328   2.917 -3.1967  0.5195 -2.6318
   55MOL   H60039588   4.551   6.327   2.862  1.0414  0.0441 -2.1634
   55MOL   H60139589   4.503   6.130   2.740  0.0457  2.0429 -0.4173
   55MOL   H60239590   4.341   6.116   2.808  0.6359  1.6527 -2.0914
   55MOL   H60339591   4.450   6.103   3.043 -0.7588 -0.6456 -0.6494
   55MOL   H60439592   4.608   6.091   2.974 -0.8118 -0.3204  1.4206
   55MOL   H60539593   4.539   5.891   2.848  2.6944 -2.2436  2.4374
   55MOL   H60639594   4.384   5.887   2.918  0.7542 -1.9869  0.2210
   55MOL   H60739595   4.642   5.843   3.076  0.5441  1.3746 -0.5849
   55MOL   H60839596   4.490   5.891   3.148  1.4669 -0.0776  0.0283
   55MOL   H60939597   4.325   5.456   3.307 -1.0861 -0.7950 -1.2159
   55MOL   H61039598   4.375   5.301   3.235 -0.1586 -0.6818  0.8639
   55MOL   H61139599   4.490   5.398   3.331  0.8610 -0.6753 -1.3273
   55MOL   H61239600   4.327   5.386   2.989 -1.9504  1.2288 -1.9142
   55MOL   H61339601   4.330   5.550   2.944 -0.2726 -2.2517 -2.1587
   55MOL   C61439602   4.533   4.644   2.898 -0.2145  0.1752 -0.1012
   55MOL   C61539603   4.565   4.742   2.786 -0.4259  0.4490 -0.3719
   55MOL   C61639604   4.442   4.827   2.739 -0.2608 -0.0315  0.2785
   55MOL   C61739605   4.394   4.940   2.838  0.3050 -0.3262 -0.4846
   55MOL   C61839606   4.258   4.917   2.907  0.1794  0.2468  0.0804
   55MOL   C61939607   4.208   5.050   2.962  0.5277 -0.2401 -0.2210
   55MOL   C62039608   4.075   5.043   3.024 -0.5212  0.7050  0.2462
   55MOL   C62139609   4.034   5.160   3.115 -0.3491  0.0878 -0.1628
   55MOL   O62239610   4.098   5.279   3.066  0.6098  0.4530  0.5621
   55MOL   C62339611   4.104   5.383   3.148 -0.2437  0.6198 -0.2911
   55MOL   O62439612   4.073   5.381   3.271  0.3276  0.0985  0.2376
   55MOL   C62539613   4.166   5.514   3.081 -0.0711 -0.4338 -0.4474
   55MOL   C62639614   4.160   5.635   3.172 -0.0063 -0.0703 -0.3099
   55MOL   C62739615   4.085   5.546   2.946  0.0714 -0.4506  0.5701
   55MOL   H62839616   4.617   4.578   2.919  0.2211  0.6439 -0.3652
   55MOL   H62939617   4.450   4.578   2.872  0.2237  0.3081 -1.8473
   55MOL   H63039618   4.502   4.696   2.989 -0.3867  2.3424 -1.3792
   55MOL   H63139619   4.654   4.802   2.809  0.7192 -1.2812 -0.2298
   55MOL   H63239620   4.611   4.688   2.703  0.9068  3.5045 -1.7275
   55MOL   H63339621   4.360   4.766   2.701 -0.2281  0.1934 -0.1538
   55MOL   H63439622   4.466   4.883   2.649  0.0901  0.9585  0.9891
   55MOL   H63539623   4.377   5.030   2.779 -1.5168 -1.4343 -1.7031
   55MOL   H63639624   4.479   4.964   2.903  1.4341  0.6820 -2.2818
   55MOL   H63739625   4.189   4.851   2.854  0.1922  1.9148 -2.0891
   55MOL   H63839626   4.270   4.848   2.991 -1.8175 -1.4658 -0.9813
   55MOL   H63939627   4.286   5.092   3.025 -0.2198  2.5173 -1.0377
   55MOL   H64039628   4.202   5.120   2.878 -0.3187 -0.7483 -0.5988
   55MOL   H64139629   4.064   4.957   3.090  3.3675 -0.3705 -0.3895
   55MOL   H64239630   3.991   5.021   2.958  0.0875 -1.0871  0.0438
   55MOL   H64339631   3.927   5.181   3.116 -0.0046  1.9764 -0.4832
   55MOL   H64439632   4.067   5.143   3.217  0.0003 -0.6983 -0.3997
   55MOL   H64539633   4.057   5.657   3.202 -0.2186  0.0086 -1.0942
   55MOL   H64639634   4.214   5.717   3.126 -0.3714  0.9603  1.0639
   55MOL   H64739635   4.212   5.616   3.266  1.0839 -1.4745 -1.1783
   55MOL   H64839636   4.086   5.461   2.878 -1.8362 -0.5376  0.6106
   55MOL   H64939637   4.151   5.616   2.894 -0.9594  0.5032  0.5216
   55MOL   C65039638   3.954   6.660   3.198 -0.0122 -0.9220 -0.1764
   55MOL   C65139639   4.075   6.668   3.115  0.0732 -0.0886 -0.1389
   55MOL   C65239640   4.114   6.524   3.066  0.5247 -0.1877 -0.5962
   55MOL   C65339641   4.022   6.468   2.951  0.6112 -0.0030  0.8514
   55MOL   C65439642   4.055   6.324   2.919  0.6481 -0.4619 -0.1051
   55MOL   C65539643   4.011   6.204   3.010 -0.8455 -0.0619 -0.2067
   55MOL   C65639644   4.037   6.060   2.944 -0.3506  0.2203  0.1764
   55MOL   C65739645   3.993   5.949   3.050  0.6771  0.3367  0.0226
   55MOL   O65839646   3.991   5.831   2.979 -0.2838  0.2769  0.0246
   55MOL   C65939647   3.913   5.731   3.016  0.0526  0.5121  0.7764
   55MOL   O66039648   3.831   5.734   3.108 -0.1854 -0.7398 -0.1676
   55MOL   C66139649   3.932   5.596   2.941 -0.8062 -0.5912  0.2476
   55MOL   C66239650   3.835   5.488   2.992 -0.0016 -0.0187  0.4871
   55MOL   C66339651   3.908   5.625   2.787 -0.2965  0.1329 -0.1457
   55MOL   H66439652   3.876   6.622   3.131 -1.6503  1.4720  0.2975
   55MOL   H66539653   3.935   6.760   3.237 -1.2521 -0.5764 -1.6248
   55MOL   H66639654   3.967   6.581   3.272 -2.6569 -0.1068  1.2395
   55MOL   H66739655   4.150   6.717   3.177 -0.5248 -0.3325  0.7833
   55MOL   H66839656   4.056   6.727   3.025 -2.1309 -0.3820  0.0954
   55MOL   H66939657   4.124   6.453   3.148 -0.6399  0.2277 -0.0790
   55MOL   H67039658   4.212   6.532   3.018  0.4784 -0.9179 -0.8088
   55MOL   H67139659   4.030   6.537   2.867 -1.5604 -0.0568  0.5751
   55MOL   H67239660   3.918   6.470   2.982  0.4402 -0.3435  0.3062
   55MOL   H67339661   4.160   6.310   2.894  0.9160 -1.6200  1.5927
   55MOL   H67439662   4.005   6.303   2.825  1.8806 -0.7765 -0.6951
   55MOL   H67539663   4.064   6.216   3.104  1.0842 -3.4907 -0.7705
   55MOL   H67639664   3.904   6.211   3.029 -0.5910  1.8541  0.6142
   55MOL   H67739665   4.142   6.049   2.915  0.0076  0.7670  1.2371
   55MOL   H67839666   3.977   6.047   2.855  0.5861 -0.1063 -0.4133
   55MOL   H67939667   3.890   5.977   3.071 -0.0730 -3.2638  1.5706
   55MOL   H68039668   4.050   5.941   3.143 -0.5862 -0.3335  0.7531
   55MOL   H68139669   3.831   5.465   3.099  0.0488 -0.2736  0.4345
   55MOL   H68239670   3.846   5.391   2.943 -3.7201 -0.3207  0.0799
   55MOL   H68339671   3.733   5.524   2.977  0.1696  0.3874  0.2876
   55MOL   H68439672   3.971   5.709   2.758 -0.4860  0.3377  0.0372
   55MOL   H68539673   3.950   5.543   2.728 -0.0922  2.6259 -3.6437
   55MOL   C68639674   4.429   5.173   2.175  0.0792  0.5372  0.4609
   55MOL   C68739675   4.305   5.191   2.258 -0.3042 -0.9558 -0.0493
   55MOL   C68839676   4.290   5.081   2.363 -0.1149  0.0839 -0.2407
   55MOL   C68939677   4.207   5.117   2.491 -0.3008  0.1497  0.0972
   55MOL   C69039678   4.060   5.138   2.448 -0.7780 -1.0113  0.2357
   55MOL   C69139679   3.977   5.181   2.566 -0.0975  0.4565 -0.1519
   55MOL   C69239680   3.828   5.215   2.521  0.1800 -0.5538  0.5355
   55MOL   C69339681   3.740   5.268   2.640  0.2336  0.0975  1.2570
   55MOL   O69439682   3.772   5.406   2.651 -0.3753  0.2518 -0.1201
   55MOL   C69539683   3.691   5.501   2.707 -0.3839 -0.1734  0.8521
   55MOL   O69639684   3.581   5.475   2.754  0.3777  0.1538 -0.1233
   55MOL   C69739685   3.764   5.636   2.721 -0.0122  0.1116  0.6167
   55MOL   C69839686   3.780   5.682   2.580 -0.1188  0.0338 -0.0085
   55MOL   C69939687   3.685   5.739   2.803 -0.5045  0.4356 -0.4672
   55MOL   H70039688   4.433   5.233   2.085 -1.0199  2.4203  1.6480
   55MOL   H70139689   4.421   5.067   2.151  3.0843  0.6117 -1.0434
   55MOL   H70239690   4.524   5.176   2.229  1.1491 -0.5845 -1.3105
   55MOL   H70339691   4.219   5.199   2.191 -2.1003 -0.0609  2.2713
   55MOL   H70439692   4.300   5.289   2.307  1.7003 -0.1645 -1.3742
   55MOL   H70539693   4.391   5.060   2.398 -0.7151  1.7593  2.6353
   55MOL   H70639694   4.246   4.998   2.307 -0.4529 -0.0234  0.1779
   55MOL   H70739695   4.251   5.191   2.558  2.3147 -0.8575 -0.4744
   55MOL   H70839696   4.221   5.027   2.551 -0.2904  0.3035  0.3274
   55MOL   H70939697   4.017   5.049   2.403 -0.5174 -0.3532 -1.3565
   55MOL   H71039698   4.065   5.216   2.373  2.1670  0.8319  2.2405
   55MOL   H71139699   3.979   5.101   2.641 -1.9841  0.6152  0.0914
   55MOL   H71239700   4.021   5.263   2.622  2.3387 -1.6879  1.1753
   55MOL   H71339701   3.829   5.274   2.430  0.0996 -2.5206 -0.7751
   55MOL   H71439702   3.788   5.121   2.483  0.1459 -0.3270 -0.0007
   55MOL   H71539703   3.757   5.223   2.737 -2.8093 -0.6858  1.4666
   55MOL   H71639704   3.633   5.256   2.624  0.3405  0.4131  0.2606
   55MOL   H71739705   3.835   5.609   2.521 -2.2043 -1.2099 -0.4658
   55MOL   H71839706   3.686   5.700   2.528 -0.1395 -1.7687 -0.6275
   55MOL   H71939707   3.837   5.775   2.577 -1.0572  0.5813 -0.8908
   55MOL   H72039708   3.724   5.840   2.794  2.0585 -0.2990  1.5934
   55MOL   H72139709   3.655   5.707   2.903  1.0363  0.5490  0.0479
   55MOL   H72239710   3.586   5.743   2.759 -1.2784  1.6928  1.3208
   56MOL     C139711   0.697   3.436   2.276 -0.5108 -0.6944 -0.5224
   56MOL     C239712   0.696   3.391   2.131  0.9477  0.7369  0.2659
   56MOL     C339713   0.560   3.384   2.067 -0.5117 -0.1019  0.0685
   56MOL     C439714   0.566   3.343   1.923  0.3864 -0.1294  0.2326
   56MOL     C539715   0.440   3.268   1.879  0.2189  0.7619 -0.0696
   56MOL     C639716   0.449   3.224   1.737  0.7623  0.8989  0.3677
   56MOL     C739717   0.342   3.110   1.726 -0.0189  0.2682  0.8564
   56MOL     C839718   0.322   3.052   1.587 -0.0996 -0.0810 -0.2053
   56MOL     O939719   0.444   2.974   1.566 -0.1317  1.0632  0.2503
   56MOL    C1039720   0.461   2.893   1.457 -0.0320 -0.7376  0.4633
   56MOL    O1139721   0.382   2.889   1.361  0.7267 -0.5294  0.1976
   56MOL    C1239722   0.596   2.813   1.464 -0.1390 -0.0824 -0.0841
   56MOL    C1339723   0.567   2.672   1.413  0.4403 -0.7564  0.2915
   56MOL    C1439724   0.718   2.876   1.395  0.7746 -0.0037  0.1435
   56MOL    H1539725   0.658   3.538   2.275 -2.3128 -1.3473 -0.0552
   56MOL    H1639726   0.801   3.433   2.308 -0.2721 -2.0135 -1.4078
   56MOL    H1739727   0.631   3.377   2.340 -2.7294 -1.1046 -3.0676
   56MOL    H1839728   0.746   3.294   2.129  0.8934  0.7080 -4.7459
   56MOL    H1939729   0.760   3.446   2.062 -1.1178  3.4763  0.4952
   56MOL    H2039730   0.512   3.310   2.132 -0.2934 -0.5814 -0.3113
   56MOL    H2139731   0.503   3.476   2.075  1.6529  1.4676 -1.9863
   56MOL    H2239732   0.598   3.429   1.864  2.4937  1.0070  2.9202
   56MOL    H2339733   0.650   3.275   1.916  0.9579  0.5627  0.3481
   56MOL    H2439734   0.359   3.337   1.901 -0.8507 -0.0206 -1.5025
   56MOL    H2539735   0.424   3.173   1.930 -0.1398  0.6858 -0.3205
   56MOL    H2639736   0.551   3.189   1.727 -0.3255 -2.1643 -0.5890
   56MOL    H2739737   0.435   3.305   1.666 -0.7331  1.2101  0.9801
   56MOL    H2839738   0.248   3.155   1.758  0.5355  0.3703  2.4115
   56MOL    H2939739   0.363   3.019   1.783 -0.6901 -0.8711 -0.6719
   56MOL    H3039740   0.300   3.130   1.515 -0.3130 -0.1359 -0.1986
   56MOL    H3139741   0.242   2.978   1.582 -0.1414 -0.0823  0.4355
   56MOL    H3239742   0.658   2.612   1.421  0.4159 -0.7393  0.7082
   56MOL    H3339743   0.501   2.632   1.490  0.9289 -1.4889  0.3360
   56MOL    H3439744   0.525   2.658   1.313  0.6899  2.0888 -0.2478
   56MOL    H3539745   0.687   2.974   1.359 -1.4667 -0.8400 -0.2396
   56MOL    H3639746   0.730   2.808   1.310 -0.1247 -1.3721  1.1019
   56MOL    H3739747   0.618   2.797   1.570 -0.0333  0.4559 -0.0252
   56MOL    C3839748   1.222   2.793   0.667  0.1239  0.7238  0.8501
   56MOL    C3939749   1.159   2.785   0.807 -0.1974 -0.1171 -0.5786
   56MOL    C4039750   1.106   2.647   0.841  0.0588 -0.1806 -0.1470
   56MOL    C4139751   1.073   2.646   0.994 -0.1732 -1.1711  0.4738
   56MOL    C4239752   1.015   2.513   1.037 -0.1053 -0.0572  0.3781
   56MOL    C4339753   0.949   2.512   1.174  0.3497  0.1399  0.2191
   56MOL    C4439754   1.043   2.519   1.296  0.2854  0.1409  0.3814
   56MOL    C4539755   0.967   2.540   1.427  0.3404 -0.4688 -0.2418
   56MOL    O4639756   0.903   2.658   1.413 -0.0190 -0.1006 -0.3024
   56MOL    C4739757   0.890   2.743   1.523  0.4104  0.1662  0.2103
   56MOL    O4839758   0.900   2.715   1.644 -0.3955 -0.1710  0.5559
   56MOL    C4939759   0.850   2.887   1.473  0.0905 -0.8278 -0.1374
   56MOL    C5039760   0.830   2.975   1.594 -0.0001  0.2431 -0.6120
   56MOL    C5139761   0.952   2.939   1.368 -0.2063 -0.3395 -0.1999
   56MOL    H5239762   1.281   2.885   0.659  0.0310  0.8935  2.0886
   56MOL    H5339763   1.158   2.788   0.578  1.0787  1.6298  0.0948
   56MOL    H5439764   1.295   2.713   0.658 -0.2425  0.0911  3.2602
   56MOL    H5539765   1.080   2.860   0.811 -1.1345 -0.9678 -2.3903
   56MOL    H5639766   1.244   2.802   0.874 -1.0144  1.3257  0.1107
   56MOL    H5739767   1.018   2.612   0.787 -0.0516 -0.0302 -0.0657
   56MOL    H5839768   1.174   2.565   0.817 -0.2527 -0.9201  1.4232
   56MOL    H5939769   0.997   2.722   1.012  0.5775 -0.1056 -0.7049
   56MOL    H6039770   1.154   2.677   1.061 -1.0756  1.3934  0.4509
   56MOL    H6139771   0.949   2.476   0.959 -0.5148 -0.2875  0.8293
   56MOL    H6239772   1.101   2.446   1.045  1.3491  1.8925  1.3725
   56MOL    H6339773   0.878   2.595   1.182  0.1808  0.0083  0.1000
   56MOL    H6439774   0.890   2.421   1.189 -0.0349  0.5103  1.0001
   56MOL    H6539775   1.119   2.597   1.292 -0.1371  0.7667  3.4418
   56MOL    H6639776   1.103   2.427   1.294 -1.0724 -0.7357 -1.0633
   56MOL    H6739777   1.036   2.549   1.510  0.1575 -0.3603 -0.1013
   56MOL    H6839778   0.888   2.470   1.455 -0.3139  0.3952  0.0992
   56MOL    H6939779   0.753   2.935   1.660  1.4375  0.1108  1.0504
   56MOL    H7039780   0.921   2.988   1.654 -0.5067 -1.7212  0.6411
   56MOL    H7139781   0.805   3.079   1.570  2.8351  1.0914 -0.1390
   56MOL    H7239782   0.901   3.018   1.313 -0.8731 -2.5152 -2.7850
   56MOL    H7339783   0.959   2.871   1.283 -0.1570 -0.1987 -0.3101
   56MOL    C7439784   1.185   3.329   2.496  0.1558  1.1234 -0.3011
   56MOL    C7539785   1.158   3.380   2.352 -0.0669  0.0280  0.1845
   56MOL    C7639786   1.165   3.267   2.250  0.2644 -0.4170 -0.2492
   56MOL    C7739787   1.116   3.307   2.107 -0.3524 -0.6260 -0.2043
   56MOL    C7839788   1.072   3.189   2.018 -0.3170 -0.5029  0.5080
   56MOL    C7939789   1.022   3.234   1.878 -0.1387  0.6603  0.5203
   56MOL    C8039790   1.141   3.282   1.797 -0.1287 -0.4631 -0.0246
   56MOL    C8139791   1.110   3.280   1.643  0.2280 -0.1640 -0.9306
   56MOL    O8239792   1.102   3.155   1.578  0.7722 -0.0292  0.7940
   56MOL    C8339793   1.079   3.147   1.444  0.3489 -0.3018 -0.1887
   56MOL    O8439794   1.057   3.243   1.365  0.1225  0.3885 -0.2118
   56MOL    C8539795   1.095   2.998   1.390 -0.9189  0.2742  0.4294
   56MOL    C8639796   1.169   2.905   1.493  0.7033  0.5791 -0.4659
   56MOL    C8739797   1.168   3.006   1.247 -1.0329  0.5989  0.5168
   56MOL    H8839798   1.165   3.410   2.567 -0.6273  2.2605 -1.7785
   56MOL    H8939799   1.285   3.289   2.509 -0.1968  0.3242 -0.0412
   56MOL    H9039800   1.111   3.254   2.523  1.7872 -1.6793 -3.3118
   56MOL    H9139801   1.217   3.468   2.326 -0.9895  0.6302  0.1000
   56MOL    H9239802   1.058   3.421   2.345 -1.3333 -3.4190 -3.7687
   56MOL    H9339803   1.269   3.236   2.245  0.2932 -0.6366  1.5527
   56MOL    H9439804   1.099   3.192   2.294  0.3874 -0.6672 -0.4802
   56MOL    H9539805   1.196   3.365   2.061 -0.8954 -1.9161 -2.8873
   56MOL    H9639806   1.033   3.375   2.126  1.2508  1.1386  0.6894
   56MOL    H9739807   1.157   3.121   2.009 -0.0415 -0.2281  1.0112
   56MOL    H9839808   0.989   3.143   2.072 -0.9968 -0.1455 -0.2248
   56MOL    H9939809   0.979   3.155   1.817 -1.6531  0.4354  1.8489
   56MOL   H10039810   0.939   3.304   1.882 -0.8302 -0.1924  1.3669
   56MOL   H10139811   1.156   3.389   1.812 -0.8199 -0.4562  0.7012
   56MOL   H10239812   1.243   3.245   1.806  0.2355  0.0498 -1.8574
   56MOL   H10339813   1.184   3.344   1.594 -0.9677  0.0045 -2.5372
   56MOL   H10439814   1.024   3.342   1.621  0.2403 -0.1309 -0.8850
   56MOL   H10539815   1.119   2.897   1.590  1.5467  0.1465 -0.0528
   56MOL   H10639816   1.270   2.939   1.515  1.4429 -2.7589  1.7259
   56MOL   H10739817   1.188   2.803   1.459 -1.3477 -0.9033  2.5523
   56MOL   H10839818   1.141   2.913   1.197 -1.3211  1.4393 -0.9443
   56MOL   H10939819   1.124   3.086   1.187 -0.1530  1.5347  1.1091
   56MOL   C11039820   1.632   2.466   0.496  0.8482 -0.6575  0.1543
   56MOL   C11139821   1.584   2.339   0.557 -0.4688  0.3061 -0.2086
   56MOL   C11239822   1.582   2.351   0.716  0.4578  0.4317  0.1741
   56MOL   C11339823   1.498   2.462   0.779 -0.0634 -0.5015 -0.2693
   56MOL   C11439824   1.494   2.448   0.931  0.0664 -0.1704  0.0270
   56MOL   C11539825   1.478   2.581   1.014 -0.1407  0.4205  0.1728
   56MOL   C11639826   1.436   2.556   1.157 -0.3045 -0.7722 -0.7463
   56MOL   C11739827   1.464   2.681   1.247 -0.0311 -0.1062 -0.7432
   56MOL   O11839828   1.398   2.803   1.204  0.3545  0.2076  0.3965
   56MOL   C11939829   1.413   2.906   1.291 -0.5701  0.2990 -0.2550
   56MOL   O12039830   1.483   2.911   1.397 -0.2854  0.3037  0.0858
   56MOL   C12139831   1.330   3.032   1.244  0.4231 -0.2059 -0.8271
   56MOL   C12239832   1.370   3.155   1.328  0.2206  0.3681  0.8985
   56MOL   C12339833   1.369   3.058   1.093 -0.0105 -0.0383  0.3068
   56MOL   H12439834   1.633   2.457   0.387  0.8349 -0.5525  0.1460
   56MOL   H12539835   1.571   2.548   0.532  0.2105 -1.5785  1.2038
   56MOL   H12639836   1.731   2.487   0.535 -0.3555  1.9273  1.9430
   56MOL   H12739837   1.641   2.250   0.532 -0.1715  0.8101 -1.3524
   56MOL   H12839838   1.485   2.305   0.525  0.4855 -1.2051 -1.6370
   56MOL   H12939839   1.685   2.373   0.743  1.1954 -0.9876 -1.4023
   56MOL   H13039840   1.549   2.254   0.754 -1.5867  0.6135 -1.0483
   56MOL   H13139841   1.538   2.560   0.756  0.0045 -0.3110  0.6424
   56MOL   H13239842   1.392   2.454   0.755 -0.8544 -1.2213  3.1779
   56MOL   H13339843   1.583   2.394   0.964  0.9437  0.1158 -1.8106
   56MOL   H13439844   1.405   2.396   0.966  0.6327 -1.2473 -0.1112
   56MOL   H13539845   1.572   2.636   1.009  1.1379 -1.6328  0.7672
   56MOL   H13639846   1.403   2.645   0.968 -0.1761  0.9195  0.9141
   56MOL   H13739847   1.490   2.471   1.198 -0.3488  0.0681  1.0871
   56MOL   H13839848   1.331   2.530   1.159 -0.3193 -0.6117  0.7153
   56MOL   H13939849   1.442   2.654   1.351  0.1738 -0.0388 -0.6821
   56MOL   H14039850   1.572   2.695   1.256 -0.3302  2.0577 -0.3882
   56MOL   H14139851   1.478   3.169   1.324  0.6010 -2.1782  0.9544
   56MOL   H14239852   1.315   3.242   1.293 -0.3522 -0.5134 -0.4052
   56MOL   H14339853   1.338   3.142   1.432 -0.3393 -1.5636  0.5043
   56MOL   H14439854   1.298   3.125   1.045  1.6209  1.5019 -0.0160
   56MOL   H14539855   1.340   2.967   1.041  0.4140  0.0107 -0.0184
   56MOL   C14639856   2.168   2.520   1.095 -0.7538  0.2145 -0.5180
   56MOL   C14739857   2.153   2.554   0.941 -0.6163  0.9211 -1.4584
   56MOL   C14839858   2.011   2.516   0.900 -0.3008  0.3214  0.0814
   56MOL   C14939859   1.966   2.574   0.767 -0.2916 -0.1643  0.0159
   56MOL   C15039860   1.911   2.718   0.770  0.1726  0.6069  0.0443
   56MOL   C15139861   1.760   2.732   0.822  0.2159 -0.0316 -0.8402
   56MOL   C15239862   1.700   2.843   0.732 -0.1946  0.2058  0.6471
   56MOL   C15339863   1.557   2.880   0.767 -0.5115 -0.2427 -0.2992
   56MOL   O15439864   1.552   2.944   0.898 -0.4412  0.3645  1.1155
   56MOL   C15539865   1.535   3.078   0.901  0.0828  0.3671  0.4038
   56MOL   O15639866   1.547   3.159   0.802  0.0621  0.4722  0.0324
   56MOL   C15739867   1.512   3.118   1.051  0.2543 -0.4450 -0.2141
   56MOL   C15839868   1.498   3.268   1.043 -0.3469  0.2529 -0.7584
   56MOL   C15939869   1.634   3.067   1.136  0.1139 -0.1479  0.4344
   56MOL   H16039870   2.266   2.557   1.125  0.1253 -1.3072 -1.4596
   56MOL   H16139871   2.159   2.413   1.108  1.3367  0.2383  1.4658
   56MOL   H16239872   2.090   2.568   1.153 -0.5512 -0.3256  0.2059
   56MOL   H16339873   2.172   2.661   0.928 -0.2530  0.9416 -0.7943
   56MOL   H16439874   2.222   2.501   0.876  1.7343  0.5069  1.2385
   56MOL   H16539875   1.942   2.556   0.974 -2.7528 -2.2305 -0.7084
   56MOL   H16639876   1.996   2.408   0.895 -0.5675  0.4663 -4.5978
   56MOL   H16739877   2.043   2.571   0.690  0.2133 -0.2528  0.5240
   56MOL   H16839878   1.883   2.508   0.741  1.8151 -3.1819  0.6215
   56MOL   H16939879   1.920   2.746   0.665  0.3533 -0.5351 -0.2525
   56MOL   H17039880   1.988   2.766   0.830  0.8802 -1.6633  0.9990
   56MOL   H17139881   1.758   2.761   0.927 -0.2698 -2.0794 -0.2578
   56MOL   H17239882   1.713   2.635   0.806 -1.0803  0.3940  0.2598
   56MOL   H17339883   1.751   2.939   0.744 -2.6460  1.2648  3.1055
   56MOL   H17439884   1.722   2.824   0.627  2.1041  0.3337  1.0799
   56MOL   H17539885   1.511   2.940   0.688  2.7928  2.8463  0.0558
   56MOL   H17639886   1.490   2.794   0.771  0.3847 -0.9025  0.6583
   56MOL   H17739887   1.488   3.315   1.141  1.7098 -0.3089 -0.2618
   56MOL   H17839888   1.418   3.302   0.977 -1.1204 -0.1897 -0.0584
   56MOL   H17939889   1.584   3.313   0.992  0.2808 -0.5392 -0.4071
   56MOL   H18039890   1.644   2.959   1.131  1.6949 -0.0126  0.4257
   56MOL   H18139891   1.615   3.074   1.243 -1.7242  2.8656 -0.0334
   56MOL   C18239892   2.144   4.181   1.132  0.3318 -0.3340  0.8817
   56MOL   C18339893   2.247   4.074   1.072 -0.2962  0.2759 -0.0614
   56MOL   C18439894   2.185   3.941   1.020 -0.5600  0.6684 -0.4053
   56MOL   C18539895   2.082   3.887   1.126 -0.3699 -0.0234 -0.1989
   56MOL   C18639896   2.017   3.750   1.094 -0.1854  0.2050 -0.7008
   56MOL   C18739897   1.896   3.699   1.185 -0.4103 -0.4140  0.6046
   56MOL   C18839898   1.849   3.558   1.138 -0.0488 -0.0588 -0.6905
   56MOL   C18939899   1.932   3.447   1.194 -0.0774  0.1753  0.0326
   56MOL   O19039900   1.892   3.326   1.138  0.3428 -0.1131  0.2402
   56MOL   C19139901   1.789   3.261   1.185 -0.2215  0.0699  0.1593
   56MOL   O19239902   1.703   3.302   1.269  0.1553  0.1869 -0.4259
   56MOL   C19339903   1.783   3.119   1.126  0.1621  0.2923 -0.2791
   56MOL   C19439904   1.836   3.110   0.982  0.2964 -0.7087  0.1138
   56MOL   C19539905   1.871   3.021   1.216  0.5203 -0.0198  0.0475
   56MOL   H19639906   2.102   4.145   1.225 -0.2210  0.0516  0.7860
   56MOL   H19739907   2.203   4.271   1.152 -0.0587  0.4154 -1.1845
   56MOL   H19839908   2.069   4.206   1.056  2.0141 -0.5014 -0.8602
   56MOL   H19939909   2.317   4.034   1.146 -0.6403 -1.0596 -0.4387
   56MOL   H20039910   2.310   4.123   0.998  2.5263  0.3440  2.3188
   56MOL   H20139911   2.134   3.941   0.924 -1.5020 -1.3190  0.0661
   56MOL   H20239912   2.272   3.876   1.014 -0.8960  0.1809  0.0329
   56MOL   H20339913   2.128   3.872   1.223  2.4345  1.0304 -1.3042
   56MOL   H20439914   1.995   3.951   1.140 -0.1518  0.1580  0.3360
   56MOL   H20539915   2.091   3.671   1.107  0.0034  0.8680  2.6264
   56MOL   H20639916   1.994   3.750   0.988 -0.1547  2.2056 -0.7351
   56MOL   H20739917   1.813   3.770   1.183  1.9222  2.3695 -1.2755
   56MOL   H20839918   1.930   3.677   1.287  0.1749 -1.2890  0.2246
   56MOL   H20939919   1.746   3.535   1.166 -0.1984  2.3881  0.9158
   56MOL   H21039920   1.854   3.559   1.029 -3.1160  1.0312 -0.8707
   56MOL   H21139921   1.936   3.433   1.302 -2.4769  0.9618  0.2396
   56MOL   H21239922   2.036   3.464   1.164  0.3045 -2.8542 -0.5769
   56MOL   H21339923   1.943   3.128   0.968  0.0714 -0.4408 -1.4033
   56MOL   H21439924   1.829   3.010   0.938  0.2852 -0.1366 -1.2275
   56MOL   H21539925   1.781   3.171   0.911  0.1163 -0.1428  0.7393
   56MOL   H21639926   1.811   2.971   1.292 -0.4482  1.1845  0.0848
   56MOL   H21739927   1.887   2.932   1.155 -1.0943  0.1616 -0.6761
   56MOL   C21839928   1.272   3.651   1.995  0.3988  0.8554  0.0459
   56MOL   C21939929   1.399   3.609   1.930  0.3072  0.2308 -0.2561
   56MOL   C22039930   1.437   3.470   1.975  0.8411  0.2253  0.0506
   56MOL   C22139931   1.584   3.425   1.947 -0.0395  0.4995  0.2941
   56MOL   C22239932   1.602   3.398   1.796  0.0220 -0.4065  0.0791
   56MOL   C22339933   1.740   3.364   1.762  0.4294 -0.8881 -0.0591
   56MOL   C22439934   1.751   3.262   1.643 -0.2201 -0.6270 -0.7066
   56MOL   C22539935   1.891   3.241   1.583  0.3915 -0.6836  0.4611
   56MOL   O22639936   1.895   3.142   1.478 -0.6121  0.6117  0.2321
   56MOL   C22739937   2.008   3.155   1.400  0.0920 -0.0266 -0.2126
   56MOL   O22839938   2.093   3.246   1.414 -0.1234 -0.4657  0.1726
   56MOL   C22939939   2.011   3.053   1.284 -0.2423  0.4047  0.4898
   56MOL   C23039940   2.117   3.105   1.177 -0.3267  0.4779  0.6682
   56MOL   C23139941   2.064   2.915   1.332 -0.1017 -0.1491 -0.1072
   56MOL   H23239942   1.192   3.578   1.983  2.6099 -1.2379 -2.3997
   56MOL   H23339943   1.242   3.747   1.952 -1.6945 -0.2538 -1.0418
   56MOL   H23439944   1.287   3.667   2.102 -0.4862  3.2611 -0.1552
   56MOL   H23539945   1.478   3.682   1.945 -0.7440  1.3468  0.0083
   56MOL   H23639946   1.380   3.598   1.823  0.9246 -0.7537 -0.2679
   56MOL   H23739947   1.422   3.466   2.083 -0.2001  0.3547 -0.0890
   56MOL   H23839948   1.368   3.392   1.943  2.4387 -1.4036  0.4415
   56MOL   H23939949   1.642   3.515   1.967  1.0099 -0.4573  1.6776
   56MOL   H24039950   1.623   3.342   2.006  1.2865  1.9158  1.4492
   56MOL   H24139951   1.519   3.332   1.769 -1.3389 -0.5483  4.3205
   56MOL   H24239952   1.584   3.497   1.753  0.8485  0.5247  1.8467
   56MOL   H24339953   1.795   3.457   1.751 -0.2943 -0.4508  0.0538
   56MOL   H24439954   1.792   3.320   1.847  0.7365 -1.5255 -0.5691
   56MOL   H24539955   1.693   3.296   1.556  1.4949  1.2511 -1.1731
   56MOL   H24639956   1.706   3.166   1.667 -1.5176  0.3157  0.6650
   56MOL   H24739957   1.963   3.217   1.661  1.7678 -0.5224 -0.7439
   56MOL   H24839958   1.928   3.337   1.547  0.0674 -0.9016 -0.4505
   56MOL   H24939959   2.079   3.202   1.146 -0.2479  1.3777  3.2122
   56MOL   H25039960   2.138   3.037   1.094  1.1576 -0.1956  1.5551
   56MOL   H25139961   2.216   3.130   1.217  0.6539  0.6838 -1.8280
   56MOL   H25239962   1.972   2.867   1.363 -1.2481  3.5667  2.5079
   56MOL   H25339963   2.100   2.870   1.239 -3.1348 -2.7080 -0.1259
   56MOL   C25439964   1.649   3.178   2.301 -0.3902  0.1529  0.6702
   56MOL   C25539965   1.570   3.057   2.253  0.1397 -0.9123 -1.1729
   56MOL   C25639966   1.613   3.021   2.104  0.2908  0.6089  0.0241
   56MOL   C25739967   1.541   2.888   2.057 -0.0047  0.0412 -0.0640
   56MOL   C25839968   1.584   2.842   1.911 -0.1050 -0.1301  0.3112
   56MOL   C25939969   1.730   2.878   1.884  0.3633 -0.4129 -0.4205
   56MOL   C26039970   1.785   2.843   1.746 -0.4267  0.0848  0.2721
   56MOL   C26139971   1.937   2.873   1.755  0.1692 -0.5546  0.3140
   56MOL   O26239972   2.007   2.855   1.631  0.3271  0.4098 -0.1495
   56MOL   C26339973   2.110   2.929   1.590  0.1216  0.0944  0.3750
   56MOL   O26439974   2.150   3.026   1.650 -0.4202 -0.0732  0.0745
   56MOL   C26539975   2.172   2.890   1.450 -0.1993  0.3513  0.6198
   56MOL   C26639976   2.311   2.968   1.423  0.0056  0.0483 -0.1240
   56MOL   C26739977   2.198   2.736   1.443  0.8374  0.5238 -0.0083
   56MOL   H26839978   1.631   3.204   2.405  1.2386  0.4253  0.8954
   56MOL   H26939979   1.755   3.161   2.282 -0.9230 -1.4313 -1.0264
   56MOL   H27039980   1.621   3.265   2.242 -0.4194 -0.1605  0.2217
   56MOL   H27139981   1.605   2.975   2.316 -0.5100 -0.2301  0.0975
   56MOL   H27239982   1.461   3.070   2.254 -0.0450 -2.3270  0.5456
   56MOL   H27339983   1.721   3.010   2.098  0.0378 -3.1059  0.6259
   56MOL   H27439984   1.589   3.108   2.044  0.1045  1.7028  1.6651
   56MOL   H27539985   1.433   2.896   2.064  0.0985  0.7616  0.7652
   56MOL   H27639986   1.561   2.804   2.123  1.3150  1.0693  0.8815
   56MOL   H27739987   1.561   2.739   1.887 -0.6306  0.1338 -0.3126
   56MOL   H27839988   1.516   2.892   1.842 -3.9043 -2.0195  2.4893
   56MOL   H27939989   1.787   2.832   1.965 -1.1235  0.9358  1.4232
   56MOL   H28039990   1.744   2.986   1.885 -0.1971 -0.3323 -0.6851
   56MOL   H28139991   1.779   2.735   1.737 -1.8952  0.1016  0.9243
   56MOL   H28239992   1.732   2.885   1.660 -0.6905  2.3421  1.4947
   56MOL   H28339993   1.940   2.978   1.782 -1.2770 -0.7699  1.3703
   56MOL   H28439994   1.987   2.813   1.832  0.5868 -1.4883 -0.6632
   56MOL   H28539995   2.388   2.947   1.497 -0.6718 -0.0079  0.5715
   56MOL   H28639996   2.354   2.926   1.332  3.0946 -1.9068  2.1642
   56MOL   H28739997   2.317   3.076   1.415 -1.0156  0.0721 -0.7145
   56MOL   H28839998   2.197   2.695   1.342 -1.1362 -0.8354  0.5202
   56MOL   H28939999   2.099   2.695   1.464 -0.0521  2.7813  0.2948
   56MOL   C29040000   2.192   2.915   0.522  0.1548  0.1407 -0.3021
   56MOL   C29140001   2.239   2.872   0.666 -0.5829  0.6437 -0.1872
   56MOL   C29240002   2.362   2.952   0.711 -0.4218  0.1437  0.0461
   56MOL   C29340003   2.382   2.956   0.863  0.3617 -0.6067 -0.4268
   56MOL   C29440004   2.450   2.831   0.915 -0.4683 -0.7184  0.2780
   56MOL   C29540005   2.486   2.829   1.059  0.0601  0.4049 -0.6276
   56MOL   C29640006   2.539   2.694   1.106 -0.2082  0.5587 -0.1952
   56MOL   C29740007   2.566   2.697   1.255 -1.1160 -0.0656  0.8254
   56MOL   O29840008   2.443   2.669   1.325  0.0330 -0.0537  0.2119
   56MOL   C29940009   2.442   2.672   1.456 -0.5058  0.2684 -0.3106
   56MOL   O30040010   2.550   2.682   1.518  0.0302 -0.0346 -0.7969
   56MOL   C30140011   2.302   2.655   1.529 -0.5738 -0.1616  0.2396
   56MOL   C30240012   2.305   2.708   1.669 -0.4645 -0.3319 -0.0027
   56MOL   C30340013   2.238   2.511   1.533 -1.0937 -0.3050  0.1168
   56MOL   H30440014   2.269   2.893   0.448  0.3240  0.8236 -0.3311
   56MOL   H30540015   2.166   3.021   0.525  1.1693  0.4342 -1.3765
   56MOL   H30640016   2.100   2.865   0.494 -0.5160  1.6812 -0.9172
   56MOL   H30740017   2.275   2.770   0.655  0.8540  1.2286 -1.1573
   56MOL   H30840018   2.156   2.882   0.736  0.2868  1.6373  0.7223
   56MOL   H30940019   2.339   3.052   0.677  0.6195  1.2973  2.5894
   56MOL   H31040020   2.457   2.926   0.666  0.8907  1.7343  1.8260
   56MOL   H31140021   2.454   3.036   0.880  1.5184 -1.3493 -1.7990
   56MOL   H31240022   2.285   2.961   0.913  0.1457 -1.3471 -0.7730
   56MOL   H31340023   2.377   2.754   0.889 -4.2446  2.1829  1.7609
   56MOL   H31440024   2.535   2.801   0.854  0.0499  1.2942 -0.0254
   56MOL   H31540025   2.407   2.851   1.130  0.0709 -1.3434 -0.0254
   56MOL   H31640026   2.561   2.902   1.088 -0.1444 -0.3699  2.0271
   56MOL   H31740027   2.631   2.673   1.052  0.4953 -1.2599  1.6547
   56MOL   H31840028   2.480   2.604   1.090  0.9974 -0.6499  2.0155
   56MOL   H31940029   2.616   2.791   1.281  0.6364 -0.7197 -0.0982
   56MOL   H32040030   2.634   2.614   1.274 -1.0022 -0.3287 -0.6514
   56MOL   H32140031   2.335   2.812   1.676 -0.9109 -0.1814 -0.2967
   56MOL   H32240032   2.368   2.650   1.736 -0.7297  1.4207  1.8197
   56MOL   H32340033   2.212   2.698   1.725 -1.2482 -1.8422 -1.5138
   56MOL   H32440034   2.175   2.510   1.622 -1.0739  0.7157  0.1458
   56MOL   H32540035   2.179   2.490   1.443  1.5147  1.9154 -2.2059
   56MOL   C32640036   2.357   2.485   2.691  0.1941 -0.7900 -0.6206
   56MOL   C32740037   2.382   2.358   2.617  0.4995 -0.3725  1.1783
   56MOL   C32840038   2.364   2.367   2.462 -0.4724 -0.3064 -0.3151
   56MOL   C32940039   2.438   2.258   2.385  0.4701  0.1050 -0.5337
   56MOL   C33040040   2.393   2.224   2.236 -0.4925 -0.1191 -0.7822
   56MOL   C33140041   2.405   2.345   2.144  0.6189 -0.1287  0.3973
   56MOL   C33240042   2.353   2.319   2.003  0.3624  0.3260 -0.0977
   56MOL   C33340043   2.396   2.430   1.913  0.3414  0.5820  0.3334
   56MOL   O33440044   2.335   2.407   1.789  0.5574  0.4470  0.4853
   56MOL   C33540045   2.408   2.386   1.672  0.1143 -0.5736  0.0462
   56MOL   O33640046   2.531   2.376   1.675  0.7184 -1.1744 -0.2036
   56MOL   C33740047   2.320   2.380   1.548  0.2543  0.3353 -0.6286
   56MOL   C33840048   2.219   2.267   1.587 -0.0453  0.8351  0.6139
   56MOL   C33940049   2.392   2.340   1.413 -0.2921  0.2043 -0.1318
   56MOL   H34040050   2.409   2.568   2.642  0.8373 -1.6537 -1.4241
   56MOL   H34140051   2.406   2.481   2.788  1.4374 -3.0685 -1.3155
   56MOL   H34240052   2.251   2.510   2.694  0.2605 -0.5249 -0.4501
   56MOL   H34340053   2.318   2.278   2.654  0.5308 -1.7920 -1.6781
   56MOL   H34440054   2.483   2.323   2.640  1.1721  2.3822  2.6308
   56MOL   H34540055   2.411   2.452   2.412  1.1911 -2.1428 -1.9639
   56MOL   H34640056   2.257   2.377   2.448 -0.3928 -0.6163 -1.1462
   56MOL   H34740057   2.432   2.163   2.437  1.8846 -0.4958 -1.4270
   56MOL   H34840058   2.543   2.289   2.393 -0.0471  2.2415 -1.5236
   56MOL   H34940059   2.445   2.140   2.191  0.7068  2.1687 -3.8260
   56MOL   H35040060   2.287   2.199   2.240 -0.9090  1.7576  1.3657
   56MOL   H35140061   2.367   2.435   2.193  1.8648 -0.0403  1.2306
   56MOL   H35240062   2.509   2.371   2.125  0.1574  3.0008  1.6892
   56MOL   H35340063   2.245   2.316   1.993  0.4658 -0.8448 -0.9325
   56MOL   H35440064   2.389   2.224   1.964  1.5013  0.9233 -0.5295
   56MOL   H35540065   2.365   2.529   1.948 -1.8825  0.6609 -1.7589
   56MOL   H35640066   2.505   2.432   1.916  0.3117  1.5831  0.9329
   56MOL   H35740067   2.152   2.296   1.668  1.0596  0.5485  1.6466
   56MOL   H35840068   2.171   2.227   1.497 -0.0060 -0.5548  1.1927
   56MOL   H35940069   2.274   2.182   1.628 -1.4139 -1.1971 -1.6449
   56MOL   H36040070   2.314   2.356   1.338  1.6424 -1.6126 -2.6413
   56MOL   H36140071   2.466   2.419   1.399  0.6737 -0.9664 -1.8429
   56MOL   C36240072   1.942   1.889   0.376 -0.1590  0.1024 -0.1293
   56MOL   C36340073   1.986   1.859   0.525  0.4304  0.6857  0.4379
   56MOL   C36440074   2.054   1.984   0.588 -0.5020 -0.0410 -0.3289
   56MOL   C36540075   2.093   1.965   0.738  0.6144  0.4114  0.0077
   56MOL   C36640076   2.155   2.088   0.805  0.1631 -0.0287 -0.2840
   56MOL   C36740077   2.223   2.065   0.939 -0.2100  0.1379  0.5861
   56MOL   C36840078   2.126   2.083   1.057  0.5765 -0.2884 -0.2573
   56MOL   C36940079   2.185   2.035   1.196 -0.4719  0.2680 -0.2529
   56MOL   O37040080   2.287   2.125   1.243 -0.6228  0.0013 -0.4003
   56MOL   C37140081   2.356   2.099   1.354  0.0635  0.1524  0.3579
   56MOL   O37240082   2.348   2.000   1.420 -0.5535 -0.0915 -0.7663
   56MOL   C37340083   2.464   2.204   1.378 -0.5358 -0.1664 -0.1151
   56MOL   C37440084   2.561   2.159   1.488 -1.0724 -0.3300 -1.0144
   56MOL   C37540085   2.546   2.240   1.247 -0.2125 -0.1624  1.0068
   56MOL   H37640086   1.900   1.804   0.324  2.2008 -0.9105 -0.4378
   56MOL   H37740087   1.868   1.968   0.363 -1.1897 -0.4715  1.9533
   56MOL   H37840088   2.031   1.910   0.315  0.6823 -0.1754  0.9791
   56MOL   H37940089   2.068   1.787   0.518 -0.5480 -0.3724 -0.4270
   56MOL   H38040090   1.902   1.824   0.585  0.9134 -1.8818 -0.3172
   56MOL   H38140091   1.985   2.068   0.591 -2.7149 -1.8796  2.7711
   56MOL   H38240092   2.150   2.006   0.541  1.0986 -4.0395  0.8937
   56MOL   H38340093   2.158   1.877   0.742 -0.6695 -0.6527 -1.5038
   56MOL   H38440094   2.006   1.936   0.797  0.8550 -0.1058  0.1154
   56MOL   H38540095   2.233   2.117   0.734  0.6958 -1.1303 -0.1527
   56MOL   H38640096   2.079   2.166   0.809 -0.6935 -0.9905  3.3970
   56MOL   H38740097   2.312   2.128   0.941 -0.4814  0.5668 -0.4847
   56MOL   H38840098   2.261   1.963   0.940 -4.3367 -1.4830  2.1964
   56MOL   H38940099   2.029   2.035   1.049  0.5178  0.0336 -1.7184
   56MOL   H39040100   2.092   2.186   1.062  1.2882  0.0313 -1.5866
   56MOL   H39140101   2.107   2.018   1.271 -0.8771  0.9775 -0.5082
   56MOL   H39240102   2.220   1.932   1.197  3.0714  1.4174  1.6670
   56MOL   H39340103   2.522   2.144   1.588 -0.1418 -3.0350 -1.0009
   56MOL   H39440104   2.591   2.056   1.467 -1.1839 -0.4003 -0.8261
   56MOL   H39540105   2.648   2.223   1.506 -0.6454 -1.0979 -0.3231
   56MOL   H39640106   2.477   2.263   1.166  1.4437  0.4116 -0.2595
   56MOL   H39740107   2.592   2.338   1.258 -3.6052  1.6294 -0.1693
   56MOL   C39840108   3.129   3.111   1.230  0.2137  0.1327  0.3092
   56MOL   C39940109   3.021   3.034   1.319 -0.6783 -0.1788 -0.8095
   56MOL   C40040110   3.061   2.905   1.388 -0.2516 -0.2574  0.2506
   56MOL   C40140111   3.024   2.777   1.319  0.5390 -0.7583 -0.2259
   56MOL   C40240112   2.975   2.676   1.421  0.6407  0.4301 -0.0810
   56MOL   C40340113   2.948   2.542   1.354 -0.0070  0.3739  0.4652
   56MOL   C40440114   2.921   2.427   1.461 -0.6220 -0.3353  0.5167
   56MOL   C40540115   2.921   2.289   1.406 -0.2861 -0.2849 -0.0216
   56MOL   O40640116   2.822   2.272   1.303  0.5156 -0.3097 -0.1307
   56MOL   C40740117   2.775   2.150   1.284 -0.5890 -0.0676 -0.0638
   56MOL   O40840118   2.823   2.050   1.342  0.0476 -0.7057 -0.5003
   56MOL   C40940119   2.658   2.143   1.182 -0.6370 -0.1007 -0.0997
   56MOL   C41040120   2.611   1.999   1.158  0.0050 -0.4649 -0.5328
   56MOL   C41140121   2.698   2.210   1.050  0.3419 -0.2707 -0.2284
   56MOL   H41240122   3.220   3.106   1.289  1.2565 -0.4397 -1.2921
   56MOL   H41340123   3.088   3.211   1.221 -0.9777 -0.3624 -0.0224
   56MOL   H41440124   3.145   3.083   1.126 -0.2226  0.1136  0.2428
   56MOL   H41540125   2.930   3.015   1.261 -0.8581 -0.6610 -0.3773
   56MOL   H41640126   2.989   3.107   1.394  0.0876 -0.5982 -0.0667
   56MOL   H41740127   3.165   2.910   1.421  0.4106  1.4935 -1.9473
   56MOL   H41840128   3.008   2.913   1.482 -0.2830 -1.7027  0.3787
   56MOL   H41940129   3.117   2.741   1.274 -0.4404  0.4586 -3.3402
   56MOL   H42040130   2.951   2.791   1.239 -0.9495 -0.1325  1.2150
   56MOL   H42140131   3.045   2.675   1.504  0.1948 -0.5479  0.2853
   56MOL   H42240132   2.879   2.714   1.455  1.0471  2.1152 -0.7586
   56MOL   H42340133   3.032   2.525   1.286 -0.0057  0.9661  0.3197
   56MOL   H42440134   2.862   2.542   1.286  0.4972  1.4198 -0.1860
   56MOL   H42540135   2.983   2.438   1.550 -1.4537 -0.1001  1.0766
   56MOL   H42640136   2.822   2.453   1.498  0.0930  1.4708  1.2606
   56MOL   H42740137   3.024   2.275   1.371 -0.2699 -0.2127 -0.0041
   56MOL   H42840138   2.908   2.224   1.493  0.6650 -0.5988 -0.1062
   56MOL   H42940139   2.690   1.932   1.124  0.5246 -0.3008  0.3366
   56MOL   H43040140   2.531   1.999   1.084  0.2371  1.3148 -0.8063
   56MOL   H43140141   2.580   1.941   1.244  1.5828 -0.1598  0.2570
   56MOL   H43240142   2.733   2.308   1.081  1.6589 -1.0914  0.9796
   56MOL   H43340143   2.610   2.243   0.995  1.8100  1.8079 -1.3868
   56MOL   C43440144   2.199   2.097   0.155  0.1299  0.3745  0.9034
   56MOL   C43540145   2.316   2.007   0.115  0.3800 -0.3883  0.3121
   56MOL   C43640146   2.454   2.073   0.151  0.5030  0.6872 -0.7988
   56MOL   C43740147   2.488   2.114   0.291 -0.3431  0.5522  0.2063
   56MOL   C43840148   2.541   1.998   0.378  0.6219  0.1585  0.2008
   56MOL   C43940149   2.509   2.016   0.528 -0.3189  0.9623 -0.1545
   56MOL   C44040150   2.582   1.907   0.615  1.1833  0.4197  0.3449
   56MOL   C44140151   2.555   1.926   0.764  0.5067 -0.0759  0.2063
   56MOL   O44240152   2.614   2.040   0.831  0.1496  0.1158 -0.5019
   56MOL   C44340153   2.739   2.024   0.875 -0.2998  0.3201  0.4459
   56MOL   O44440154   2.814   1.920   0.848  0.0719 -0.0553  0.3776
   56MOL   C44540155   2.799   2.152   0.945 -0.3628  0.3988 -0.1660
   56MOL   C44640156   2.937   2.121   1.004  0.4034 -0.0079  1.0197
   56MOL   C44740157   2.812   2.268   0.840 -0.0894 -0.0681  0.2195
   56MOL   H44840158   2.108   2.072   0.100  1.6709  1.4238 -2.2595
   56MOL   H44940159   2.224   2.198   0.125  0.2445  0.9273  2.8108
   56MOL   H45040160   2.192   2.089   0.263  1.3967 -0.8022  0.9258
   56MOL   H45140161   2.306   1.991   0.008 -0.9217  1.5886  0.1226
   56MOL   H45240162   2.302   1.909   0.162  0.7171  0.1548  1.5660
   56MOL   H45340163   2.453   2.160   0.084 -0.5370  1.0899 -0.2743
   56MOL   H45440164   2.529   2.004   0.112  0.5176  0.0944  0.2763
   56MOL   H45540165   2.404   2.160   0.344  0.0474 -1.2804  2.4856
   56MOL   H45640166   2.569   2.186   0.280 -0.8733  1.3525  1.4032
   56MOL   H45740167   2.499   1.901   0.353  2.5659 -0.1903 -1.8599
   56MOL   H45840168   2.647   1.986   0.355  0.7001  0.7629  0.2178
   56MOL   H45940169   2.401   2.019   0.541 -0.3121  0.7849 -0.0456
   56MOL   H46040170   2.545   2.118   0.545  2.3805  0.2205 -1.0769
   56MOL   H46140171   2.547   1.809   0.584  0.5705  0.7485  0.0026
   56MOL   H46240172   2.688   1.906   0.590  0.6402 -1.2839 -2.0791
   56MOL   H46340173   2.577   1.834   0.818  0.7594 -1.7538 -2.6392
   56MOL   H46440174   2.446   1.925   0.776  0.4534  0.2692 -0.2654
   56MOL   H46540175   3.018   2.082   0.942  1.5712 -0.1543  2.6085
   56MOL   H46640176   2.961   2.206   1.068 -1.1192  0.4107  1.0590
   56MOL   H46740177   2.926   2.035   1.069 -1.8499 -2.0491 -1.9236
   56MOL   H46840178   2.714   2.269   0.791  1.4859 -0.2936 -3.0819
   56MOL   H46940179   2.832   2.360   0.894 -2.6084  0.2915  0.6285
   56MOL   C47040180   3.793   2.044   1.269 -0.4359 -0.1254  0.5633
   56MOL   C47140181   3.676   2.058   1.175 -0.2502 -0.4642  0.3253
   56MOL   C47240182   3.707   2.112   1.037  0.2772  0.5332  0.2257
   56MOL   C47340183   3.581   2.160   0.960 -0.1849 -0.8413 -0.3979
   56MOL   C47440184   3.625   2.219   0.821 -0.0297  0.4558 -0.7131
   56MOL   C47540185   3.517   2.304   0.751 -0.6816 -0.1779 -0.0615
   56MOL   C47640186   3.372   2.251   0.742 -0.0902 -0.1398 -0.3457
   56MOL   C47740187   3.276   2.360   0.696  0.2792  0.4794  0.5172
   56MOL   O47840188   3.144   2.309   0.674 -0.3549 -0.0448  0.2745
   56MOL   C47940189   3.050   2.320   0.765 -0.1436 -0.2511 -0.8049
   56MOL   O48040190   3.074   2.358   0.883  0.0942  0.6541 -0.1309
   56MOL   C48140191   2.909   2.273   0.721 -0.0877 -0.0271  0.3614
   56MOL   C48240192   2.931   2.136   0.649  0.5060  0.7615  0.2077
   56MOL   C48340193   2.854   2.362   0.604 -0.6096  0.6964  0.8106
   56MOL   H48440194   3.814   2.139   1.319  0.7767 -0.5307  0.8317
   56MOL   H48540195   3.890   2.017   1.227  0.0221  3.5009 -0.8801
   56MOL   H48640196   3.772   1.960   1.335  2.4926 -0.5774  0.9719
   56MOL   H48740197   3.628   1.963   1.156 -1.7944  0.3489  0.0632
   56MOL   H48840198   3.591   2.114   1.216  0.3537  0.3255  0.5121
   56MOL   H48940199   3.775   2.197   1.046  0.1983  0.7559 -1.1993
   56MOL   H49040200   3.758   2.043   0.969 -0.5841 -0.7813  0.9133
   56MOL   H49140201   3.505   2.083   0.947 -0.7946 -0.0532 -1.6158
   56MOL   H49240202   3.535   2.238   1.019  0.2719  0.8001 -2.1511
   56MOL   H49340203   3.712   2.285   0.830  1.2091 -1.2967  0.7881
   56MOL   H49440204   3.650   2.143   0.746  1.8505  0.0562  0.2693
   56MOL   H49540205   3.501   2.385   0.822  0.3558 -0.0779  0.0606
   56MOL   H49640206   3.549   2.358   0.661  1.9263 -0.5320  0.6167
   56MOL   H49740207   3.366   2.169   0.672 -0.4675 -0.1646 -0.2851
   56MOL   H49840208   3.341   2.216   0.841 -1.7103 -1.8653 -1.4414
   56MOL   H49940209   3.319   2.390   0.601  0.0172 -2.7085 -0.6647
   56MOL   H50040210   3.285   2.445   0.764  2.3437  0.0295  0.8451
   56MOL   H50140211   2.991   2.066   0.708  0.6223 -1.0032 -1.9563
   56MOL   H50240212   2.988   2.150   0.557  1.7648  1.2029  1.0420
   56MOL   H50340213   2.844   2.078   0.618  0.1750  2.4586 -2.1840
   56MOL   H50440214   2.922   2.349   0.519 -2.0692  0.2807 -0.3168
   56MOL   H50540215   2.766   2.308   0.570  1.3914 -2.0236 -0.1728
   56MOL   C50640216   2.104   2.728   0.182 -0.1949  0.2019 -0.1784
   56MOL   C50740217   2.126   2.583   0.211 -1.0363 -0.0636  0.0476
   56MOL   C50840218   2.149   2.543   0.354  0.2289  0.3120 -0.2925
   56MOL   C50940219   2.206   2.401   0.380  0.5716  0.3579 -0.0431
   56MOL   C51040220   2.232   2.355   0.521  1.1003  0.4072 -0.3268
   56MOL   C51140221   2.352   2.431   0.574 -0.3489 -0.3280 -0.0526
   56MOL   C51240222   2.393   2.365   0.708 -0.3766 -0.1076 -0.3636
   56MOL   C51340223   2.492   2.452   0.790  0.5354  0.1121 -0.0173
   56MOL   O51440224   2.600   2.458   0.697  0.4702 -0.0336 -0.3296
   56MOL   C51540225   2.705   2.544   0.717 -0.4237  0.6364 -0.2116
   56MOL   O51640226   2.702   2.631   0.804 -0.8310  0.3779  0.2363
   56MOL   C51740227   2.816   2.515   0.612  0.4700 -0.0427  0.1285
   56MOL   C51840228   2.933   2.601   0.653 -0.1369  0.0448 -0.3225
   56MOL   C51940229   2.771   2.553   0.468  0.3230  0.0013  0.3301
   56MOL   H52040230   2.190   2.793   0.191 -1.3209  1.5891  0.8790
   56MOL   H52140231   2.041   2.772   0.259 -0.2117  0.2431 -0.2156
   56MOL   H52240232   2.059   2.738   0.083 -1.3364  0.8191  0.3914
   56MOL   H52340233   2.203   2.545   0.143  0.3745  1.2931  0.8619
   56MOL   H52440234   2.033   2.531   0.187 -1.1567  0.5017 -0.7192
   56MOL   H52540235   2.220   2.617   0.391  0.0685 -0.4225  1.5200
   56MOL   H52640236   2.061   2.562   0.416  0.1159  0.5462 -0.5268
   56MOL   H52740237   2.137   2.329   0.336  0.2692  1.5572 -1.5930
   56MOL   H52840238   2.299   2.388   0.323  0.7260 -1.3881  0.5823
   56MOL   H52940239   2.148   2.369   0.589  2.4890  0.4191  1.3971
   56MOL   H53040240   2.237   2.246   0.522 -0.5949  0.3063 -0.3460
   56MOL   H53140241   2.329   2.534   0.600  0.6521 -0.3336  0.8668
   56MOL   H53240242   2.442   2.421   0.514  0.1239 -2.7497  1.0063
   56MOL   H53340243   2.438   2.270   0.678 -2.2050 -2.3102  3.5708
   56MOL   H53440244   2.304   2.334   0.763  0.1419  0.6458  0.9228
   56MOL   H53540245   2.512   2.407   0.887 -0.9186  1.8593  1.1326
   56MOL   H53640246   2.462   2.554   0.814  2.4073  0.8606 -0.7607
   56MOL   H53740247   3.019   2.596   0.586  0.5609 -2.2174  0.6717
   56MOL   H53840248   2.957   2.579   0.757  1.3111  1.5000 -0.3243
   56MOL   H53940249   2.905   2.706   0.655 -0.1775  0.0481 -1.0142
   56MOL   H54040250   2.844   2.523   0.393 -0.3867 -1.8260  0.3278
   56MOL   H54140251   2.685   2.485   0.466  0.8725 -0.6776 -0.3760
   56MOL   C54240252   3.601   2.916   1.008 -0.0729 -0.2836  0.0542
   56MOL   C54340253   3.527   2.935   0.874  0.3284  0.1997 -0.3140
   56MOL   C54440254   3.424   2.834   0.847  0.0364 -0.4590 -0.1826
   56MOL   C54540255   3.363   2.855   0.711  0.2009  0.2023  0.5141
   56MOL   C54640256   3.287   2.736   0.664  0.0169  0.2414  0.4927
   56MOL   C54740257   3.236   2.747   0.515 -0.2331 -0.0672 -0.0523
   56MOL   C54840258   3.135   2.859   0.504 -0.1977 -0.3776  0.3245
   56MOL   C54940259   3.054   2.865   0.372  0.3245 -0.1321  0.1066
   56MOL   O55040260   2.957   2.764   0.373 -0.0566  0.2268 -0.1800
   56MOL   C55140261   2.837   2.797   0.429  0.1743 -0.2960 -0.0538
   56MOL   O55240262   2.809   2.898   0.497  0.2118 -0.0276  0.2851
   56MOL   C55340263   2.728   2.687   0.412  0.1299 -0.6493 -0.6995
   56MOL   C55440264   2.598   2.733   0.484 -0.1927  0.8308  0.6186
   56MOL   C55540265   2.701   2.669   0.260 -0.3478 -0.0450 -0.2542
   56MOL   H55640266   3.552   2.985   1.077 -0.2849  0.4905 -0.8583
   56MOL   H55740267   3.694   2.970   0.993  0.9697 -2.6163 -2.2834
   56MOL   H55840268   3.614   2.817   1.051 -1.8427  0.1445  1.6206
   56MOL   H55940269   3.498   3.039   0.856  1.9613  0.7000 -0.1543
   56MOL   H56040270   3.602   2.917   0.797  0.4372 -1.6837  0.2314
   56MOL   H56140271   3.349   2.842   0.926  0.2351  0.4751 -0.0795
   56MOL   H56240272   3.468   2.736   0.862  2.2970  0.7141  1.2461
   56MOL   H56340273   3.296   2.939   0.728 -0.0896  0.0890 -0.0844
   56MOL   H56440274   3.436   2.887   0.637 -0.5616 -1.3742 -0.9537
   56MOL   H56540275   3.208   2.725   0.738  1.2000  0.0470  1.7533
   56MOL   H56640276   3.355   2.651   0.669  0.9797  1.0892  2.2063
   56MOL   H56740277   3.321   2.764   0.448 -0.1266 -1.9726 -0.4094
   56MOL   H56840278   3.202   2.649   0.482 -0.6447 -0.6097  1.9307
   56MOL   H56940279   3.068   2.856   0.589 -0.1570 -0.7824  0.3457
   56MOL   H57040280   3.193   2.951   0.514  0.6393 -0.8527 -0.0603
   56MOL   H57140281   3.117   2.846   0.285  1.8002  0.0798  1.1124
   56MOL   H57240282   3.005   2.962   0.371 -2.6859 -1.4483  4.2994
   56MOL   H57340283   2.517   2.662   0.467  1.5644 -1.1381  0.3850
   56MOL   H57440284   2.573   2.834   0.452  2.5268  2.0838  2.2872
   56MOL   H57540285   2.609   2.745   0.592 -0.6805  0.2158  0.7393
   56MOL   H57640286   2.670   2.566   0.244 -0.2167 -0.0010 -0.8163
   56MOL   H57740287   2.801   2.672   0.215  0.4978  2.1432  1.6725
   56MOL   C57840288   2.563   3.795   0.854 -0.1052  0.0990  0.2407
   56MOL   C57940289   2.606   3.736   0.712  0.2347 -0.3787 -0.5799
   56MOL   C58040290   2.561   3.593   0.691  0.4074 -0.4859 -0.1749
   56MOL   C58140291   2.590   3.528   0.555 -0.0998 -0.0999  0.5395
   56MOL   C58240292   2.541   3.381   0.550 -0.1878  0.3111 -1.1191
   56MOL   C58340293   2.582   3.315   0.417  0.2630 -0.6923 -0.3894
   56MOL   C58440294   2.535   3.180   0.373  0.7112  0.0753 -0.2294
   56MOL   C58540295   2.628   3.123   0.261  0.3132 -0.1222 -0.2834
   56MOL   O58640296   2.586   2.987   0.238 -0.1898  0.0453 -0.0718
   56MOL   C58740297   2.673   2.902   0.178  0.0638  0.2485  0.9197
   56MOL   O58840298   2.791   2.939   0.144 -0.1349  0.0669 -0.1256
   56MOL   C58940299   2.626   2.759   0.157 -0.3270 -0.0284  0.1045
   56MOL   C59040300   2.468   2.753   0.178  0.3720  0.5062  0.0382
   56MOL   C59140301   2.669   2.722   0.008  0.3911  0.4049  0.9959
   56MOL   H59240302   2.456   3.817   0.860 -0.0872 -0.1605  1.6794
   56MOL   H59340303   2.619   3.887   0.870  0.8559 -0.6456  1.2700
   56MOL   H59440304   2.585   3.729   0.938  2.4054  0.3843 -0.1678
   56MOL   H59540305   2.714   3.742   0.700  0.1505  1.4061 -0.5593
   56MOL   H59640306   2.568   3.791   0.626  1.1395  1.1189 -0.0381
   56MOL   H59740307   2.452   3.588   0.690  0.4598 -1.5479 -1.0117
   56MOL   H59840308   2.590   3.520   0.767 -0.2698  0.4254  0.9957
   56MOL   H59940309   2.697   3.540   0.538 -0.2263  0.1799 -0.0651
   56MOL   H60040310   2.551   3.594   0.477  1.3692 -1.1756 -1.1289
   56MOL   H60140311   2.433   3.373   0.560 -0.1934 -1.3620 -2.4163
   56MOL   H60240312   2.581   3.329   0.637  2.7968 -0.3872 -2.8486
   56MOL   H60340313   2.690   3.316   0.426  0.2251 -1.8505  0.1811
   56MOL   H60440314   2.547   3.377   0.334 -2.0651  0.3049  1.2599
   56MOL   H60540315   2.429   3.165   0.357  1.1731 -1.9560 -1.6442
   56MOL   H60640316   2.560   3.113   0.456 -0.1978 -0.9172 -0.7467
   56MOL   H60740317   2.619   3.182   0.170 -2.0301 -0.0925 -0.0489
   56MOL   H60840318   2.732   3.133   0.293  0.3104 -0.8734 -0.0273
   56MOL   H60940319   2.409   2.801   0.100 -0.7427 -1.8261 -0.6055
   56MOL   H61040320   2.416   2.658   0.191 -1.9126  1.5546 -1.1150
   56MOL   H61140321   2.451   2.800   0.274  2.0038 -0.7862  1.0012
   56MOL   H61240322   2.776   2.742   0.002 -0.1246  3.1532  0.0444
   56MOL   H61340323   2.629   2.809   7.735  0.9274 -0.6591 -1.1980
   56MOL   C61440324   3.575   1.978   0.412  0.8735  1.1282  0.0001
   56MOL   C61540325   3.429   1.969   0.362 -0.6266 -0.0760 -0.2515
   56MOL   C61640326   3.364   2.106   0.335 -0.0445 -0.6374 -0.8189
   56MOL   C61740327   3.216   2.098   0.320 -0.7681  0.5415 -0.5601
   56MOL   C61840328   3.156   2.225   0.269 -0.1532 -0.0417  0.5397
   56MOL   C61940329   2.999   2.222   0.235  0.7699  0.4818  0.3127
   56MOL   C62040330   2.942   2.344   0.166 -0.5754  0.7877 -0.4557
   56MOL   C62140331   2.800   2.323   0.112 -0.2955  0.2222  0.9439
   56MOL   O62240332   2.769   2.435   0.028 -0.4076  0.6688 -0.3388
   56MOL   C62340333   2.638   2.464   0.011 -0.2569  0.1928  0.7982
   56MOL   O62440334   2.543   2.395   0.053  0.0813 -0.0948  0.3477
   56MOL   C62540335   2.619   2.593   7.705 -0.1423  0.0353 -0.0574
   56MOL   C62640336   2.466   2.612   7.667 -0.0396 -0.1307  0.2340
   56MOL   C62740337   2.708   2.580   7.572  0.3189  0.1723 -0.7817
   56MOL   H62840338   3.621   1.879   0.410 -0.8996  0.2988 -1.3436
   56MOL   H62940339   3.571   2.025   0.510  1.4227  1.2781 -0.0447
   56MOL   H63040340   3.640   2.054   0.369  1.3632 -1.0903 -3.3830
   56MOL   H63140341   3.432   1.914   0.268  0.9973  2.3853 -1.7012
   56MOL   H63240342   3.365   1.918   0.434 -2.1837  2.0291 -0.0995
   56MOL   H63340343   3.405   2.156   0.247  0.4911  0.1979 -0.1060
   56MOL   H63440344   3.389   2.171   0.419  0.6742 -2.0494  0.0682
   56MOL   H63540345   3.168   2.067   0.413 -2.1818  0.1781 -1.3829
   56MOL   H63640346   3.200   2.022   0.244  1.8915 -0.0104 -0.6146
   56MOL   H63740347   3.161   2.309   0.339 -2.9468  0.1529  0.5575
   56MOL   H63840348   3.204   2.251   0.174  2.1860  1.3946  2.0519
   56MOL   H63940349   2.980   2.135   0.173 -1.2781  1.5450 -0.6006
   56MOL   H64040350   2.947   2.205   0.329 -0.6368  0.1368 -0.5311
   56MOL   H64140351   3.003   2.376   0.081 -0.7389 -0.0529 -0.8922
   56MOL   H64240352   2.947   2.422   0.242 -1.5575  1.0744 -0.6747
   56MOL   H64340353   2.784   2.228   0.061 -0.3059  0.2608  0.8763
   56MOL   H64440354   2.726   2.322   0.191 -0.6927  2.1235  0.6191
   56MOL   H64540355   2.453   2.718   7.644  1.0003 -0.4596 -2.1008
   56MOL   H64640356   2.398   2.602   7.751  0.2876 -0.1995  0.4916
   56MOL   H64740357   2.432   2.553   7.581 -1.2892 -0.0584  0.6701
   56MOL   H64840358   2.672   2.489   7.523  0.0139  0.9977 -2.1337
   56MOL   H64940359   2.810   2.563   7.604  0.3435  0.2102 -0.8389
   56MOL   C65040360   3.631   2.496   0.334  0.4973  0.2441 -0.0620
   56MOL   C65140361   3.556   2.478   0.202  0.0592 -0.4513  0.2547
   56MOL   C65240362   3.418   2.549   0.212  0.2202  0.8889  0.3223
   56MOL   C65340363   3.332   2.551   0.079  0.6071 -0.2521  0.4487
   56MOL   C65440364   3.228   2.670   0.093  0.4298  0.0285 -0.1749
   56MOL   C65540365   3.153   2.702   7.746 -0.1856 -0.6021  0.2888
   56MOL   C65640366   3.075   2.835   7.759 -0.4864 -0.2034 -0.7347
   56MOL   C65740367   3.028   2.877   7.614  0.5395  0.0272  0.2586
   56MOL   O65840368   2.937   2.782   7.559  0.3778  0.5221  0.3426
   56MOL   C65940369   2.812   2.809   7.513  0.2331 -0.1417  0.2359
   56MOL   O66040370   2.760   2.920   7.518 -0.3863 -0.3551 -0.0742
   56MOL   C66140371   2.740   2.684   7.454  0.3088 -0.4209  0.2822
   56MOL   C66240372   2.601   2.729   7.398 -0.9305 -0.0795  0.1678
   56MOL   C66340373   2.819   2.608   7.346  0.2772  0.5670 -0.4190
   56MOL   H66440374   3.729   2.449   0.333  0.3696 -0.0209 -0.0920
   56MOL   H66540375   3.580   2.440   0.412  0.9157 -1.7942 -1.2092
   56MOL   H66640376   3.646   2.602   0.355  0.2864  0.3846 -0.6098
   56MOL   H66740377   3.550   2.372   0.177 -0.8796 -0.2334 -0.5063
   56MOL   H66840378   3.612   2.535   0.128  2.8877 -2.1696  1.0196
   56MOL   H66940379   3.440   2.651   0.243  1.0254  0.4037  1.3732
   56MOL   H67040380   3.364   2.510   0.298 -1.0202  2.1960  0.1440
   56MOL   H67140381   3.286   2.456   0.051 -0.6056  0.4996 -0.1613
   56MOL   H67240382   3.404   2.571   7.779 -0.1228  1.4230  0.1998
   56MOL   H67340383   3.289   2.758   0.111 -1.3209  1.2659 -0.2268
   56MOL   H67440384   3.160   2.661   0.178 -0.9953 -2.5565 -1.5167
   56MOL   H67540385   3.233   2.730   7.677  0.5113 -0.6612  1.0635
   56MOL   H67640386   3.102   2.615   7.705 -0.0899 -0.4248 -0.2072
   56MOL   H67740387   3.131   2.915   0.029 -2.8681  1.6110 -0.8613
   56MOL   H67840388   2.985   2.817   0.038  0.2573 -0.6031  0.3007
   56MOL   H67940389   3.123   2.887   7.562  1.8328  2.8129  3.0095
   56MOL   H68040390   2.987   2.977   7.613  1.4767  0.4139 -1.2253
   56MOL   H68140391   2.547   2.636   7.381  1.6997 -1.3592 -1.5208
   56MOL   H68240392   2.593   2.798   7.314  1.6068  1.0252  0.7833
   56MOL   H68340393   2.548   2.784   7.476 -0.2234 -0.4114  0.8984
   56MOL   H68440394   2.909   2.575   7.397  0.3259  3.8139  1.7435
   56MOL   H68540395   2.768   2.515   7.320 -0.6943  0.3983  1.9532
   56MOL   C68640396   3.130   3.180   6.258 -0.7532  0.4413  0.5605
   56MOL   C68740397   3.091   3.053   6.344 -0.1299  0.0802 -0.4212
   56MOL   C68840398   2.946   3.073   6.405 -0.6196  0.8198 -1.0871
   56MOL   C68940399   2.917   2.954   6.492  0.7478 -0.0933  0.0271
   56MOL   C69040400   2.775   2.976   6.559  0.2761 -0.0296  0.2681
   56MOL   C69140401   2.731   2.859   6.655  0.2556 -0.3603 -0.2490
   56MOL   C69240402   2.809   2.829   6.778  0.1219 -0.7448  0.1704
   56MOL   C69340403   2.768   2.714   6.859  0.0454  0.1110 -0.4113
   56MOL   O69440404   2.837   2.726   6.983 -0.5371 -0.1402  0.0719
   56MOL   C69540405   2.779   2.687   7.099  0.6014 -0.2022  0.0966
   56MOL   O69640406   2.665   2.662   7.112 -0.4873  0.6366 -0.3556
   56MOL   C69740407   2.878   2.678   7.215 -0.2062 -0.0854  0.4080
   56MOL   C69840408   2.996   2.585   7.168  0.5096  0.5612  0.0734
   56MOL   C69940409   2.943   2.819   7.228  0.4253  0.1668  0.1214
   56MOL   H70040410   3.066   3.180   6.170 -1.1093  0.1235  0.8158
   56MOL   H70140411   3.230   3.166   6.217 -0.7472 -0.3624  0.8313
   56MOL   H70240412   3.132   3.273   6.315 -0.3881  0.6509  0.2038
   56MOL   H70340413   3.162   3.049   6.426 -0.5535  1.2057  0.0185
   56MOL   H70440414   3.102   2.962   6.284  5.5898 -0.9726  1.9361
   56MOL   H70540415   2.874   3.074   6.324 -1.8277  1.6487 -0.0273
   56MOL   H70640416   2.947   3.170   6.457  0.2077  1.6093 -2.5532
   56MOL   H70740417   2.987   2.926   6.571 -1.6695 -0.6733  2.0246
   56MOL   H70840418   2.923   2.869   6.425  0.9801 -0.0545 -0.0042
   56MOL   H70940419   2.701   2.988   6.479 -0.9549 -1.4196  1.1672
   56MOL   H71040420   2.775   3.077   6.600 -0.2768  1.1414 -2.4954
   56MOL   H71140421   2.637   2.893   6.699  0.4757 -1.4041  1.0830
   56MOL   H71240422   2.736   2.770   6.592  0.7850 -0.0262 -0.6823
   56MOL   H71340423   2.912   2.809   6.749 -0.1322  0.8841 -1.9868
   56MOL   H71440424   2.817   2.925   6.830  1.3305 -0.8612  0.2107
   56MOL   H71540425   2.798   2.628   6.798 -0.7692 -2.1487  2.2499
   56MOL   H71640426   2.660   2.716   6.873 -0.0796  1.3773 -1.4863
   56MOL   H71740427   3.055   2.639   7.094 -2.5789  0.7450 -2.3772
   56MOL   H71840428   3.059   2.545   7.248 -2.6298  0.0308  2.3654
   56MOL   H71940429   2.950   2.499   7.118 -2.2769  3.4871 -2.6354
   56MOL   H72040430   2.982   2.852   7.132 -1.1686  0.8267 -0.3137
   56MOL   H72140431   3.026   2.837   7.297 -1.5167  3.1454  1.8329
   56MOL   H72240432   2.873   2.899   7.254 -0.3812 -0.1863 -0.9305
   57MOL     C140433   2.972   1.867   2.977 -0.0152 -0.2455 -0.2285
   57MOL     C240434   2.959   1.769   2.857 -0.2234  0.8593 -0.2199
   57MOL     C340435   3.015   1.627   2.884  0.1645 -0.2063  0.2160
   57MOL     C440436   3.017   1.527   2.761 -0.5650 -0.3521 -0.0043
   57MOL     C540437   2.884   1.453   2.746  0.1071 -0.4523 -0.1399
   57MOL     C640438   2.857   1.421   2.601 -0.7484 -0.3312  0.1447
   57MOL     C740439   2.763   1.304   2.601 -0.4105 -0.6325  0.3807
   57MOL     C840440   2.712   1.273   2.459  0.8964 -0.7470  0.0922
   57MOL     O940441   2.596   1.187   2.461 -0.0507 -0.5699 -0.7234
   57MOL    C1040442   2.467   1.231   2.478 -0.0935 -0.3388 -0.4198
   57MOL    O1140443   2.435   1.338   2.536  0.4620 -0.3812 -0.2402
   57MOL    C1240444   2.365   1.136   2.423 -0.2928 -0.4756  0.1040
   57MOL    C1340445   2.385   1.116   2.274 -0.3741  0.2243 -0.3024
   57MOL    C1440446   2.357   1.004   2.508 -0.3417 -0.7215 -0.5474
   57MOL    H1540447   2.928   1.825   3.067 -1.5764  2.4027  0.3063
   57MOL    H1640448   2.915   1.959   2.968  0.2912 -0.1045 -0.7387
   57MOL    H1740449   3.078   1.891   2.989  0.2129 -1.0754 -0.5358
   57MOL    H1840450   2.991   1.820   2.766 -0.5410 -1.6442 -1.7786
   57MOL    H1940451   2.852   1.759   2.843 -0.4093  1.5611  0.6552
   57MOL    H2040452   3.122   1.639   2.902 -0.1155  1.9558  0.5157
   57MOL    H2140453   2.960   1.582   2.966  0.4378  1.2022  1.1873
   57MOL    H2240454   3.053   1.589   2.679 -1.9139  1.4850  0.7353
   57MOL    H2340455   3.092   1.448   2.764  0.1409  0.2446 -1.4908
   57MOL    H2440456   2.796   1.494   2.796  0.5238 -0.3039  0.4818
   57MOL    H2540457   2.901   1.358   2.796  0.6466 -0.7370 -0.8648
   57MOL    H2640458   2.957   1.415   2.559 -0.1564  1.5723  1.2089
   57MOL    H2740459   2.801   1.509   2.569 -0.0282 -0.8566 -2.7194
   57MOL    H2840460   2.678   1.334   2.662  0.3007  1.8920  0.2007
   57MOL    H2940461   2.804   1.218   2.654 -0.0020  0.2604  1.5539
   57MOL    H3040462   2.799   1.221   2.417  2.1232  0.6792  0.8329
   57MOL    H3140463   2.695   1.366   2.406  1.4316 -0.3096  0.6859
   57MOL    H3240464   2.474   1.058   2.250 -1.0970 -1.0861  0.1417
   57MOL    H3340465   2.302   1.059   2.232 -1.8755  0.8672  1.6616
   57MOL    H3440466   2.383   1.209   2.217  0.5001 -0.2226 -1.0712
   57MOL    H3540467   2.454   0.985   2.555 -0.0619 -0.3883 -0.9846
   57MOL    H3640468   2.358   0.922   2.435  2.5315  1.1607 -2.7266
   57MOL    H3740469   2.272   1.188   2.446 -0.3450  0.5063 -2.1283
   57MOL    C3840470   2.484   0.546   1.882 -0.0515 -0.6378 -0.6625
   57MOL    C3940471   2.355   0.621   1.846  0.0405  0.2810 -0.8321
   57MOL    C4040472   2.274   0.663   1.976 -0.0814  0.6340  0.3328
   57MOL    C4140473   2.131   0.716   1.930  0.0132 -0.6789 -1.0159
   57MOL    C4240474   2.076   0.839   2.010  0.1739 -0.2371 -0.1155
   57MOL    C4340475   2.052   0.838   2.159  0.2439 -0.0074  0.2461
   57MOL    C4440476   2.001   0.977   2.202 -1.0675  0.5880  0.3194
   57MOL    C4540477   1.968   0.981   2.355  0.0444 -0.3249  0.4500
   57MOL    O4640478   2.084   0.934   2.423 -0.4083  0.2095 -0.2532
   57MOL    C4740479   2.098   0.972   2.548  0.8551  0.2718  0.2311
   57MOL    O4840480   1.996   1.014   2.617 -1.0172 -0.2840 -0.0552
   57MOL    C4940481   2.242   0.967   2.613  0.6619  0.2946  0.4961
   57MOL    C5040482   2.245   1.074   2.727  0.1344 -0.5677  1.0597
   57MOL    C5140483   2.272   0.828   2.682  0.1950  0.4413  0.8798
   57MOL    H5240484   2.469   0.439   1.894  0.0182 -0.6908 -1.0523
   57MOL    H5340485   2.525   0.586   1.975 -1.1770 -2.0386  0.4744
   57MOL    H5440486   2.564   0.563   1.811  0.7819  1.2199  0.6767
   57MOL    H5540487   2.297   0.554   1.783  0.2092 -0.0548 -0.6343
   57MOL    H5640488   2.383   0.713   1.794  0.1752  0.3402 -0.6557
   57MOL    H5740489   2.263   0.579   2.045  0.9693  0.7995  0.7211
   57MOL    H5840490   2.323   0.739   2.038 -0.3290  2.4364 -1.6193
   57MOL    H5940491   2.060   0.634   1.930  0.1356 -0.8031 -2.2007
   57MOL    H6040492   2.141   0.740   1.824  0.5911 -0.7380 -0.9745
   57MOL    H6140493   2.138   0.925   1.983 -0.4980  0.4351  0.4710
   57MOL    H6240494   1.977   0.857   1.968  0.4558  0.1431 -0.6286
   57MOL    H6340495   1.971   0.767   2.175 -0.7711  1.0840 -0.0171
   57MOL    H6440496   2.145   0.810   2.209  0.9293  1.3753 -0.2221
   57MOL    H6540497   1.919   1.019   2.144  0.4635  1.2653 -1.3759
   57MOL    H6640498   2.086   1.042   2.185 -1.9644  1.2713 -1.7400
   57MOL    H6740499   1.881   0.920   2.379 -0.6820  0.9878  1.2554
   57MOL    H6840500   1.943   1.081   2.390  0.9900  0.5691 -1.3790
   57MOL    H6940501   2.161   1.043   2.789 -2.1804  0.7327 -1.3251
   57MOL    H7040502   2.339   1.069   2.781  0.5878  0.1901  0.3665
   57MOL    H7140503   2.217   1.174   2.694 -0.5532 -0.7710  1.0269
   57MOL    H7240504   2.191   0.821   2.754 -2.0100  0.1728 -1.5307
   57MOL    H7340505   2.364   0.838   2.740  0.4600  0.2265  0.4945
   57MOL    C7440506   1.280   0.576   2.132  0.6234  0.4554 -0.8425
   57MOL    C7540507   1.308   0.484   2.256  0.6362  0.3483 -0.4305
   57MOL    C7640508   1.397   0.559   2.364 -0.2735  0.2582  0.7320
   57MOL    C7740509   1.441   0.463   2.471  0.5331 -0.3535 -0.1984
   57MOL    C7840510   1.548   0.527   2.567 -0.4853 -0.0152  0.7860
   57MOL    C7940511   1.684   0.553   2.500 -0.2984  0.1172  0.0115
   57MOL    C8040512   1.808   0.578   2.581  0.8698 -0.8239 -0.3998
   57MOL    C8140513   1.938   0.581   2.501 -0.7715 -0.5432 -0.4220
   57MOL    O8240514   2.049   0.624   2.583  0.3502 -0.1054  0.2731
   57MOL    C8340515   2.166   0.648   2.518  0.1693  0.6850 -0.3808
   57MOL    O8440516   2.181   0.628   2.393 -0.6751 -0.0134  0.6450
   57MOL    C8540517   2.285   0.689   2.611  0.4360  0.9492 -0.2328
   57MOL    C8640518   2.415   0.684   2.531  0.0399  0.4006  0.1859
   57MOL    C8740519   2.285   0.590   2.737 -0.1669 -0.4656  0.5155
   57MOL    H8840520   1.266   0.513   2.045 -0.5032 -0.2461 -0.1610
   57MOL    H8940521   1.359   0.650   2.121 -0.0122  1.1471 -0.8091
   57MOL    H9040522   1.197   0.647   2.136 -0.8733 -1.1467 -2.8819
   57MOL    H9140523   1.359   0.397   2.214 -0.0444 -0.4704  0.4146
   57MOL    H9240524   1.213   0.450   2.296  0.7360 -0.1678 -0.6397
   57MOL    H9340525   1.483   0.600   2.313  0.7998 -1.6444  0.9800
   57MOL    H9440526   1.352   0.639   2.424  0.0704  0.5629  0.5861
   57MOL    H9540527   1.464   0.364   2.431 -1.4196 -0.7493 -0.4245
   57MOL    H9640528   1.354   0.437   2.531  0.0195 -0.1075 -0.8296
   57MOL    H9740529   1.506   0.623   2.597  1.0929  0.8538  0.3124
   57MOL    H9840530   1.554   0.471   2.660 -1.5439  0.0665  0.9081
   57MOL    H9940531   1.698   0.481   2.420 -1.0275 -0.2358  0.2023
   57MOL   H10040532   1.674   0.642   2.437  0.5920 -0.9670 -1.6900
   57MOL   H10140533   1.790   0.666   2.643  0.5738 -0.1372 -1.4323
   57MOL   H10240534   1.829   0.490   2.642 -0.5668  0.3107  1.7771
   57MOL   H10340535   1.927   0.639   2.409 -1.7350  2.2023  1.3917
   57MOL   H10440536   1.973   0.485   2.461  1.7624  0.6089 -1.0621
   57MOL   H10540537   2.409   0.717   2.428  1.7231 -1.5895 -0.5949
   57MOL   H10640538   2.469   0.590   2.539  2.3838  1.7834  1.2005
   57MOL   H10740539   2.486   0.755   2.573 -0.3696  0.9212 -0.0015
   57MOL   H10840540   2.337   0.635   2.821  1.6715 -0.6910 -0.4685
   57MOL   H10940541   2.184   0.599   2.777 -0.5730 -0.6868 -0.4404
   57MOL   C11040542   3.014   7.660   2.184  0.3430 -0.0868  0.8300
   57MOL   C11140543   2.955   0.018   2.203  0.7412  0.5261  0.1918
   57MOL   C11240544   2.839   0.016   2.303 -0.1007 -0.1239 -0.5636
   57MOL   C11340545   2.790   0.158   2.336 -0.2631  0.1383  0.0263
   57MOL   C11440546   2.877   0.236   2.440 -0.4039 -0.7924  0.6742
   57MOL   C11540547   2.831   0.384   2.460  0.4357 -0.6766 -0.8892
   57MOL   C11640548   2.698   0.401   2.514  0.6118 -0.1263 -0.6943
   57MOL   C11740549   2.675   0.333   2.651  0.9847 -0.6407  0.0867
   57MOL   O11840550   2.538   0.339   2.682  0.6083  0.1915  0.3040
   57MOL   C11940551   2.484   0.436   2.748  0.5449 -0.2093  0.4177
   57MOL   O12040552   2.548   0.515   2.819  0.3186 -0.0973  0.7858
   57MOL   C12140553   2.329   0.442   2.742  1.2183  0.2632 -0.4911
   57MOL   C12240554   2.282   0.364   2.607 -0.2794  0.2398  0.0358
   57MOL   C12340555   2.259   0.375   2.874 -0.1891  0.5245  0.3077
   57MOL   H12440556   3.038   7.612   2.278 -0.2075 -0.4303  0.7948
   57MOL   H12540557   2.937   7.591   2.151  2.1041 -0.7874 -2.0102
   57MOL   H12640558   3.097   7.654   2.113  0.6798  0.8114  1.1298
   57MOL   H12740559   2.916   0.048   2.106 -0.0802 -0.1775  0.3006
   57MOL   H12840560   3.024   0.097   2.233  0.6313  0.7139 -0.0492
   57MOL   H12940561   2.873   7.747   2.394  1.5760  1.0230 -0.5653
   57MOL   H13040562   2.749   7.744   2.269 -0.3596  0.3710 -0.6375
   57MOL   H13140563   2.790   0.207   2.238  1.5691 -2.9160 -1.5738
   57MOL   H13240564   2.689   0.170   2.377  0.4016  1.0506  1.4218
   57MOL   H13340565   2.981   0.247   2.410 -0.3638 -0.2178  1.0174
   57MOL   H13440566   2.882   0.191   2.539 -1.4339  1.0472  1.5990
   57MOL   H13540567   2.902   0.440   2.522 -1.4101  0.4254  0.2673
   57MOL   H13640568   2.834   0.441   2.367 -1.6465 -0.6973 -0.9865
   57MOL   H13740569   2.626   0.368   2.439  0.3020 -0.5228 -0.2237
   57MOL   H13840570   2.680   0.508   2.524  0.5625 -0.3242  1.7188
   57MOL   H13940571   2.703   0.228   2.657  2.2442 -0.3996 -1.0872
   57MOL   H14040572   2.740   0.366   2.732  1.5243 -1.9623  0.1965
   57MOL   H14140573   2.322   0.403   2.513 -0.9030 -0.0162 -0.3334
   57MOL   H14240574   2.299   0.257   2.606  1.8594  0.5628 -0.5398
   57MOL   H14340575   2.175   0.383   2.613 -0.1226  2.0568 -2.2601
   57MOL   H14440576   2.160   0.415   2.896 -0.0835  0.2264  1.3200
   57MOL   H14540577   2.312   0.415   2.960  3.3725 -0.3621 -1.3590
   57MOL   C14640578   1.331   7.747   2.993 -0.5256 -0.0976  0.1313
   57MOL   C14740579   1.329   7.670   2.857  0.3507  0.0120  0.1371
   57MOL   C14840580   1.321   7.748   2.723 -0.3228 -0.8129 -0.0406
   57MOL   C14940581   1.448   0.032   2.658  0.6575  0.8395  0.1978
   57MOL   C15040582   1.531   0.109   2.756 -0.1431  0.0807  0.1502
   57MOL   C15140583   1.651   0.177   2.690  0.4100 -0.1124 -0.3007
   57MOL   C15240584   1.755   0.232   2.787  0.4621 -0.3281 -0.4218
   57MOL   C15340585   1.898   0.208   2.728  0.7269  0.3829  0.3712
   57MOL   O15440586   2.011   0.245   2.811  0.4217  0.1582 -0.4568
   57MOL   C15540587   2.124   0.167   2.804 -0.2281 -0.3138 -0.5067
   57MOL   O15640588   2.136   0.075   2.730  0.1141 -0.1153 -0.0648
   57MOL   C15740589   2.246   0.215   2.891  0.3393  0.1935 -0.4628
   57MOL   C15840590   2.372   0.131   2.866  0.2465  0.5642 -0.0139
   57MOL   C15940591   2.202   0.197   3.038  0.4433 -0.1843  0.3339
   57MOL   H16040592   1.416   0.032   3.013 -1.7499  1.2378  1.1201
   57MOL   H16140593   1.306   7.685   3.079 -1.5736  1.2444  0.8110
   57MOL   H16240594   1.247   0.036   2.981  1.7380  2.1642 -4.2732
   57MOL   H16340595   1.419   7.609   2.853  0.7125  0.5705 -0.3835
   57MOL   H16440596   1.249   7.598   2.849  0.5165  0.0742 -2.3218
   57MOL   H16540597   1.234   0.033   2.725  0.2275 -0.0125 -1.4122
   57MOL   H16640598   1.281   7.681   2.647 -0.9574  0.5414 -0.9160
   57MOL   H16740599   1.505   7.727   2.620 -0.1469  0.4451 -0.1312
   57MOL   H16840600   1.420   0.078   2.563 -2.9401 -0.5556  0.5024
   57MOL   H16940601   1.567   0.030   2.822 -1.8705 -0.3296  0.6287
   57MOL   H17040602   1.469   0.180   2.812  0.4569  0.7337 -0.0033
   57MOL   H17140603   1.615   0.262   2.633 -1.5557 -1.2618 -0.8561
   57MOL   H17240604   1.704   0.115   2.617  0.9303  1.5841 -1.3824
   57MOL   H17340605   1.735   0.337   2.808  1.3947 -0.9477  3.9957
   57MOL   H17440606   1.745   0.176   2.879 -0.6216 -0.6656 -0.7334
   57MOL   H17540607   1.901   0.101   2.704  0.7502 -0.1791  2.7876
   57MOL   H17640608   1.912   0.268   2.638  0.0210  0.2721  0.1893
   57MOL   H17740609   2.359   0.025   2.889 -0.1701  1.0064  1.9348
   57MOL   H17840610   2.464   0.166   2.913  0.3491 -2.1581  1.9486
   57MOL   H17940611   2.389   0.118   2.759 -0.7828 -0.5793 -0.0474
   57MOL   H18040612   2.105   0.247   3.043 -0.2394 -1.2543 -1.7787
   57MOL   H18140613   2.273   0.258   3.094 -0.0482 -0.9778  1.8599
   57MOL   C18240614   1.876   7.369   3.674  0.4463 -0.0745 -0.1039
   57MOL   C18340615   1.976   7.480   3.670 -0.3186 -0.1185 -0.6567
   57MOL   C18440616   2.123   7.435   3.684  0.2585  0.6266  0.3744
   57MOL   C18540617   2.211   7.555   3.666  0.4861 -0.2690  0.7169
   57MOL   C18640618   2.351   7.530   3.611 -0.3821  0.0005 -0.2895
   57MOL   C18740619   2.361   7.496   3.460 -0.3614 -0.1440 -0.2275
   57MOL   C18840620   2.468   7.591   3.393  0.4314  0.8356  0.2018
   57MOL   C18940621   2.453   7.589   3.246  0.3260  0.5723  0.4964
   57MOL   O19040622   2.326   7.661   3.215 -0.5748  0.1677 -0.2154
   57MOL   C19140623   2.334   7.779   3.156 -0.8130  0.3459 -0.7994
   57MOL   O19240624   2.436   0.065   3.136 -0.3249  0.3173  0.0250
   57MOL   C19340625   2.192   0.061   3.118 -0.3944  0.3180  0.5426
   57MOL   C19440626   2.117   7.730   3.035 -0.2228 -0.1302  0.7056
   57MOL   C19540627   2.113   0.072   3.254  0.1762  0.2782 -0.3796
   57MOL   H19640628   1.773   7.401   3.657  0.1897  0.1509  1.7624
   57MOL   H19740629   1.895   7.302   3.589  0.5627 -2.6627  1.9089
   57MOL   H19840630   1.870   7.316   3.769 -0.8853 -0.6896 -0.5151
   57MOL   H19940631   1.947   7.550   3.748  0.0760 -1.1307  0.4171
   57MOL   H20040632   1.963   7.544   3.583  1.7773  3.1454  1.3446
   57MOL   H20140633   2.137   7.399   3.786  1.0497 -2.0740 -0.6525
   57MOL   H20240634   2.151   7.365   3.605 -1.5073  1.5760 -1.1295
   57MOL   H20340635   2.162   7.622   3.596 -0.8923 -1.0340  0.9480
   57MOL   H20440636   2.220   7.597   3.766  0.0857 -0.4742  0.8399
   57MOL   H20540637   2.403   7.447   3.660 -0.3372 -0.3440 -0.9246
   57MOL   H20640638   2.413   7.617   3.634 -0.5839 -0.1165  0.7413
   57MOL   H20740639   2.270   7.517   3.404 -0.6160 -2.6493 -0.7728
   57MOL   H20840640   2.384   7.394   3.432 -1.4180 -0.3846 -0.2190
   57MOL   H20940641   2.459   7.694   3.429 -1.7268  1.1072 -0.9937
   57MOL   H21040642   2.570   7.557   3.406  1.5871  4.8035  2.3474
   57MOL   H21140643   2.449   7.486   3.211  4.0663  0.8740 -1.1377
   57MOL   H21240644   2.535   7.640   3.194  0.1841  0.3804  0.0848
   57MOL   H21340645   2.033   0.001   2.988  1.1139  1.2869 -0.2156
   57MOL   H21440646   2.177   7.696   2.951 -0.2702 -1.0789  1.0507
   57MOL   H21540647   2.083   7.645   3.094  2.5267 -1.5001  0.3793
   57MOL   H21640648   2.007   0.049   3.236 -0.1549 -0.7930  2.6235
   57MOL   H21740649   2.127   7.762   3.315 -1.0691  0.6218  0.4231
   57MOL   C21840650   1.177   0.433   2.755 -0.5538  0.2100 -0.2610
   57MOL   C21940651   1.143   0.414   2.898  0.2696 -0.5640  0.5600
   57MOL   C22040652   1.257   0.334   2.973 -0.2398 -0.2647 -0.1494
   57MOL   C22140653   1.374   0.427   3.002  0.1185 -0.7895  0.3296
   57MOL   C22240654   1.490   0.356   3.083 -0.3092 -0.0550 -0.1439
   57MOL   C22340655   1.617   0.425   3.108 -0.4715  0.0725  0.3241
   57MOL   C22440656   1.732   0.323   3.144 -0.1157  0.5588 -0.0446
   57MOL   C22540657   1.857   0.387   3.201 -0.2121  0.2823  0.0703
   57MOL   O22640658   1.942   0.290   3.268  0.3146  0.5603 -0.0560
   57MOL   C22740659   2.068   0.313   3.299 -0.3841  0.5356 -0.6506
   57MOL   O22840660   2.127   0.421   3.294  0.1002  0.4185 -0.2782
   57MOL   C22940661   2.132   0.185   3.362  0.5206  0.8479  0.4359
   57MOL   C23040662   2.280   0.207   3.399 -0.4367  0.1508 -0.6421
   57MOL   C23140663   2.050   0.138   3.485  0.0696  0.5692 -0.8378
   57MOL   H23240664   1.224   0.340   2.722 -0.2458  0.2154  0.1674
   57MOL   H23340665   1.268   0.492   2.760 -0.5518  0.1513  0.4233
   57MOL   H23440666   1.102   0.479   2.690  0.2189  0.7055 -0.8078
   57MOL   H23540667   1.052   0.354   2.894 -0.2668  0.3038 -1.0260
   57MOL   H23640668   1.126   0.512   2.941 -0.6578 -0.6975  0.5053
   57MOL   H23740669   1.226   0.290   3.068 -0.7158 -1.2514 -0.7532
   57MOL   H23840670   1.290   0.244   2.922  0.8452  0.4586 -0.7340
   57MOL   H23940671   1.409   0.469   2.907 -1.5645 -1.5037 -0.6189
   57MOL   H24040672   1.336   0.508   3.065  1.9304  0.2890  0.0801
   57MOL   H24140673   1.453   0.335   3.184  1.0240 -1.3454  0.0997
   57MOL   H24240674   1.510   0.258   3.039  0.1226  0.2364 -0.6038
   57MOL   H24340675   1.649   0.468   3.013  0.3397 -4.0450 -1.3527
   57MOL   H24440676   1.609   0.508   3.178 -0.2087  0.4397 -0.0766
   57MOL   H24540677   1.751   0.261   3.056 -2.2542  4.2135 -3.2282
   57MOL   H24640678   1.680   0.256   3.213 -1.9508  2.1695  0.1792
   57MOL   H24740679   1.832   0.474   3.261 -1.4613  0.8345 -1.2400
   57MOL   H24840680   1.909   0.428   3.115  3.4399 -1.6279  1.2524
   57MOL   H24940681   2.333   0.113   3.413 -0.5803  0.0203 -0.9808
   57MOL   H25040682   2.292   0.262   3.493 -1.7509 -0.6720  0.0286
   57MOL   H25140683   2.338   0.255   3.321 -0.6985 -1.3950 -1.8116
   57MOL   H25240684   1.960   0.098   3.439 -0.4617  1.6083 -0.7230
   57MOL   H25340685   2.105   0.055   3.527 -1.7499  0.0948  0.6822
   57MOL   C25440686   2.246   1.357   3.374  0.0737  0.7611 -0.2111
   57MOL   C25540687   2.276   1.258   3.488  0.1168  0.3039  0.2741
   57MOL   C25640688   2.195   1.135   3.464  0.4237 -0.2426 -0.2084
   57MOL   C25740689   2.222   1.037   3.584 -0.6001  0.4797  0.2699
   57MOL   C25840690   2.191   0.895   3.537  0.5063  0.9024  0.4426
   57MOL   C25940691   2.234   0.781   3.627  0.3807  0.3550  0.3515
   57MOL   C26040692   2.184   0.651   3.577 -0.1610 -0.4358 -0.4132
   57MOL   C26140693   2.195   0.535   3.670  0.8359 -0.1943 -0.0473
   57MOL   O26240694   2.108   0.433   3.610 -0.2061 -0.3743 -0.4466
   57MOL   C26340695   2.092   0.321   3.675 -0.8894 -0.1030 -0.1737
   57MOL   O26440696   2.167   0.285   3.766 -0.2069 -0.6806  0.1216
   57MOL   C26540697   1.997   0.223   3.607 -0.6286  0.3374  0.1047
   57MOL   C26640698   1.967   0.113   3.720  0.4951  0.2590  0.2343
   57MOL   C26740699   1.867   0.300   3.567 -0.7518  0.4543 -0.0964
   57MOL   H26840700   2.285   1.331   3.275 -1.0568 -2.3607  0.1081
   57MOL   H26940701   2.137   1.352   3.365  0.0677 -0.5331  0.4537
   57MOL   H27040702   2.284   1.454   3.405 -1.6795  1.8596 -1.3839
   57MOL   H27140703   2.384   1.240   3.493 -0.0856 -1.3188 -1.1079
   57MOL   H27240704   2.243   1.301   3.582 -0.7262  4.9292 -2.0036
   57MOL   H27340705   2.211   1.086   3.368  1.2258  0.0758 -0.2313
   57MOL   H27440706   2.089   1.160   3.470  0.3588 -0.2040 -1.5017
   57MOL   H27540707   2.162   1.060   3.672 -0.8267  0.6227  0.0778
   57MOL   H27640708   2.325   1.056   3.615 -0.7915  0.7438  0.7486
   57MOL   H27740709   2.083   0.897   3.523  0.4038 -2.7998  0.2221
   57MOL   H27840710   2.236   0.885   3.439  1.5487 -1.1336  1.0989
   57MOL   H27940711   2.195   0.807   3.726  1.2733 -0.7076  0.9992
   57MOL   H28040712   2.343   0.775   3.628  0.3362 -0.5393  0.1857
   57MOL   H28140713   2.078   0.654   3.550  0.3481 -0.7693 -2.4675
   57MOL   H28240714   2.241   0.624   3.489 -0.8456  0.5557 -1.1653
   57MOL   H28340715   2.297   0.501   3.692 -0.3457 -2.8025  1.6663
   57MOL   H28440716   2.140   0.562   3.760  0.6075 -1.4295  0.1995
   57MOL   H28540717   1.962   0.159   3.819 -0.8361 -0.6768  0.6121
   57MOL   H28640718   1.880   0.048   3.711  0.1209  0.2163  3.3549
   57MOL   H28740719   2.044   0.038   3.737  1.3097  1.1989  0.7316
   57MOL   H28840720   1.800   0.236   3.508  0.1075  0.0314 -0.6212
   57MOL   H28940721   1.898   0.378   3.498 -2.1269 -0.8205 -2.2271
   57MOL   C29040722   1.428   0.150   4.822  0.2723 -0.5051 -0.1557
   57MOL   C29140723   1.417   0.079   4.690 -0.1183 -0.2497  0.2952
   57MOL   C29240724   1.388   0.168   4.559 -0.0909  0.2739  0.9926
   57MOL   C29340725   1.446   0.105   4.433 -0.1266 -0.0585 -0.0769
   57MOL   C29440726   1.492   0.216   4.335 -0.0717  0.2877 -0.0142
   57MOL   C29540727   1.539   0.158   4.207 -0.1952  0.8704 -0.6147
   57MOL   C29640728   1.617   0.264   4.115  0.4260  0.6454 -0.4203
   57MOL   C29740729   1.686   0.197   3.997 -0.0069 -0.0574 -0.0571
   57MOL   O29840730   1.717   0.294   3.897  0.3563  0.3433 -0.2355
   57MOL   C29940731   1.706   0.265   3.762  0.2883  0.3729  0.1508
   57MOL   O30040732   1.656   0.160   3.718  0.1444  0.2255 -0.3276
   57MOL   C30140733   1.764   0.374   3.665  0.1361  0.4154 -0.5805
   57MOL   C30240734   1.840   0.476   3.753 -0.1855 -0.6066 -0.2002
   57MOL   C30340735   1.660   0.437   3.570  0.4562 -0.4356  0.3239
   57MOL   H30440736   1.512   0.218   4.829 -0.5688  0.5668 -0.3797
   57MOL   H30540737   1.445   0.073   4.897 -0.1681 -3.0870 -2.6118
   57MOL   H30640738   1.339   0.210   4.841 -1.1859 -2.3049 -1.0329
   57MOL   H30740739   1.351   7.772   4.688  0.2590 -0.5334 -1.6499
   57MOL   H30840740   1.514   0.031   4.675  0.5901  1.2988 -0.1519
   57MOL   H30940741   1.437   0.263   4.580  1.9185 -0.3233 -0.8841
   57MOL   H31040742   1.282   0.192   4.563 -0.9920 -3.0180 -1.2345
   57MOL   H31140743   1.525   0.033   4.457 -0.4497  0.2736  2.1183
   57MOL   H31240744   1.372   0.039   4.388 -1.3806  2.3827 -1.6536
   57MOL   H31340745   1.411   0.288   4.325  1.4529  2.0993  0.4502
   57MOL   H31440746   1.574   0.275   4.375  0.8480 -1.4929  0.7787
   57MOL   H31540747   1.452   0.126   4.150  1.2273  0.6307 -2.7285
   57MOL   H31640748   1.599   0.068   4.221  1.3279  1.7051 -1.6257
   57MOL   H31740749   1.681   0.330   4.175  1.0670 -0.7290  0.4246
   57MOL   H31840750   1.541   0.332   4.076 -1.8706 -0.9190  1.1898
   57MOL   H31940751   1.626   0.111   3.967  0.6015 -1.0839  1.6012
   57MOL   H32040752   1.776   0.140   4.022  1.3641  2.5539  1.1384
   57MOL   H32140753   1.893   0.440   3.842 -2.0842  1.0482  1.6425
   57MOL   H32240754   1.778   0.551   3.801  0.4417 -0.3629  0.2346
   57MOL   H32340755   1.909   0.543   3.702 -0.3383 -0.1978  0.1253
   57MOL   H32440756   1.719   0.478   3.488 -1.1691  2.2328  0.4200
   57MOL   H32540757   1.616   0.353   3.515 -0.4080  1.0309 -1.2712
   57MOL   C32640758   2.311   0.686   3.119 -0.3125  0.5478 -0.2065
   57MOL   C32740759   2.170   0.744   3.069 -0.6089  0.6036  0.4497
   57MOL   C32840760   2.102   0.813   3.182  0.5659 -0.0021  0.0996
   57MOL   C32940761   1.969   0.877   3.139  0.6803  0.0189 -1.1038
   57MOL   C33040762   1.890   0.958   3.249  0.2902  0.0154 -0.2894
   57MOL   C33140763   1.838   0.870   3.370  1.1755 -0.3139 -0.0173
   57MOL   C33240764   1.747   0.945   3.469 -0.0220  0.0830  0.3508
   57MOL   C33340765   1.704   0.863   3.589  0.2067 -0.1942 -0.1604
   57MOL   O33440766   1.658   0.735   3.555  0.2774 -0.2368  0.4785
   57MOL   C33540767   1.585   0.667   3.646 -1.0135  0.0941 -0.3492
   57MOL   O33640768   1.550   0.707   3.754 -0.0056 -0.4743 -0.2304
   57MOL   C33740769   1.536   0.522   3.609 -1.2628  0.7399 -0.2254
   57MOL   C33840770   1.463   0.542   3.473 -0.0768 -0.4921 -0.2834
   57MOL   C33940771   1.462   0.454   3.724 -0.4674  0.7087 -0.3922
   57MOL   H34040772   2.315   0.606   3.193 -1.0542 -0.4375 -1.2167
   57MOL   H34140773   2.374   0.769   3.151  4.0244 -2.4571 -0.4776
   57MOL   H34240774   2.366   0.645   3.034 -0.1782 -1.0282  0.6248
   57MOL   H34340775   2.113   0.652   3.058  2.7680 -1.8326  2.5002
   57MOL   H34440776   2.168   0.799   2.975 -1.1088  0.7217  0.5263
   57MOL   H34540777   2.162   0.889   3.230 -1.0094 -0.5431  3.0655
   57MOL   H34640778   2.080   0.745   3.265 -1.0153  0.1187 -0.1978
   57MOL   H34740779   1.894   0.799   3.123  0.6410 -1.0510  3.3962
   57MOL   H34840780   1.983   0.946   3.056  1.5946  1.9861  0.6511
   57MOL   H34940781   1.950   1.038   3.293 -0.4478  1.0986 -1.2456
   57MOL   H35040782   1.804   1.007   3.202  0.5339 -1.5239 -2.3732
   57MOL   H35140783   1.789   0.784   3.324 -1.4038  2.0806 -1.9125
   57MOL   H35240784   1.917   0.818   3.425  1.5343 -1.2326 -1.3623
   57MOL   H35340785   1.660   0.962   3.407 -0.4695 -0.5132  0.8096
   57MOL   H35440786   1.791   1.038   3.507 -0.2445  0.1317  0.4885
   57MOL   H35540787   1.780   0.859   3.667 -0.5852  0.3803  0.6569
   57MOL   H35640788   1.629   0.917   3.647  0.0887 -0.1536 -0.3490
   57MOL   H35740789   1.523   0.579   3.391 -0.8141  0.9302 -0.1883
   57MOL   H35840790   1.415   0.454   3.431 -2.0473  0.5429 -0.2584
   57MOL   H35940791   1.382   0.612   3.491  2.7247  2.4729  1.4245
   57MOL   H36040792   1.477   0.347   3.716 -1.3981  0.4842  0.7758
   57MOL   H36140793   1.524   0.478   3.810 -0.2258  1.0244 -0.6508
   57MOL   C36240794   1.484   7.539   3.814 -0.2463 -0.4683  0.4743
   57MOL   C36340795   1.382   7.649   3.865  0.1805  0.1092  0.1529
   57MOL   C36440796   1.236   7.636   3.809 -0.3282 -0.0221 -0.1847
   57MOL   C36540797   1.209   7.654   3.659  0.5988  0.4207  0.1265
   57MOL   C36640798   1.262   0.014   3.614  1.1135  0.2453  1.0195
   57MOL   C36740799   1.227   0.022   3.460  0.3050  0.1819 -0.3754
   57MOL   C36840800   1.257   0.155   3.392  0.5347 -0.0416  0.1222
   57MOL   C36940801   1.183   0.267   3.459 -0.2015  0.5756 -0.4390
   57MOL   O37040802   1.254   0.309   3.572  0.5372  0.1247 -0.2413
   57MOL   C37140803   1.220   0.427   3.628 -0.2694  0.5275  0.0953
   57MOL   O37240804   1.132   0.497   3.583 -0.7243  0.0318  0.0153
   57MOL   C37340805   1.308   0.466   3.756  0.4800  0.5218  0.2385
   57MOL   C37440806   1.278   0.611   3.790 -0.0248  0.1687 -0.4268
   57MOL   C37540807   1.283   0.367   3.876 -0.2074  0.0728 -0.1490
   57MOL   H37640808   1.571   7.542   3.879 -0.4338  0.2799  0.6967
   57MOL   H37740809   1.449   7.438   3.833 -2.4729  0.3824  1.0892
   57MOL   H37840810   1.514   7.556   3.711 -0.0889 -0.3088  0.5445
   57MOL   H37940811   1.428   7.746   3.850 -3.7171  1.7837 -1.8704
   57MOL   H38040812   1.379   7.635   3.973  0.1241  1.5803  0.3576
   57MOL   H38140813   1.182   7.711   3.865 -2.4225 -1.0574 -0.7796
   57MOL   H38240814   1.201   7.540   3.847  1.0267  0.2467  1.8361
   57MOL   H38340815   1.101   7.642   3.652  0.6148 -0.5973  1.4757
   57MOL   H38440816   1.262   7.576   3.605 -0.1458 -1.4909  2.1235
   57MOL   H38540817   1.201   0.087   3.668  0.2188  1.9997 -2.2143
   57MOL   H38640818   1.369   0.028   3.628  0.9214  1.6945  1.1647
   57MOL   H38740819   1.121   0.002   3.441  0.1326  1.5456 -0.9739
   57MOL   H38840820   1.278   7.725   3.402  1.0417  0.5213 -0.1749
   57MOL   H38940821   1.220   0.139   3.291 -1.0731  2.5063  0.2645
   57MOL   H39040822   1.364   0.180   3.389  0.5668 -0.1655  0.2312
   57MOL   H39140823   1.166   0.346   3.387 -1.6935 -0.6721 -1.4945
   57MOL   H39240824   1.090   0.232   3.506  0.6099 -2.7119 -1.1120
   57MOL   H39340825   1.315   0.680   3.714 -0.6284 -0.0674 -0.9316
   57MOL   H39440826   1.171   0.630   3.793 -0.3241 -1.3006 -1.3427
   57MOL   H39540827   1.325   0.648   3.882 -1.3649  0.7147  0.0425
   57MOL   H39640828   1.292   0.267   3.833  2.4715  0.4845 -0.6605
   57MOL   H39740829   1.374   0.359   3.936  1.2814 -0.6239 -2.3995
   57MOL   C39840830   2.032   0.920   4.066 -0.5080  0.2352 -0.2378
   57MOL   C39940831   1.896   0.860   4.033  0.8778 -0.0644 -0.4339
   57MOL   C40040832   1.833   0.801   4.157  0.1681 -0.4917 -0.1408
   57MOL   C40140833   1.685   0.766   4.134  0.6903 -0.0230 -0.6451
   57MOL   C40240834   1.612   0.695   4.250  0.5654  0.2602 -0.2108
   57MOL   C40340835   1.474   0.672   4.208  0.1752  0.4537  0.4133
   57MOL   C40440836   1.407   0.582   4.311  0.5960 -0.3570  0.5606
   57MOL   C40540837   1.261   0.554   4.266  0.2199  1.1039  0.3304
   57MOL   O40640838   1.261   0.475   4.148 -0.1470 -0.5938 -0.0911
   57MOL   C40740839   1.157   0.487   4.059 -0.1012 -0.0110 -0.0564
   57MOL   O40840840   1.076   0.579   4.061  0.5768 -0.3412 -0.0023
   57MOL   C40940841   1.152   0.365   3.960 -0.5399 -0.2976 -0.5386
   57MOL   C41040842   1.020   0.379   3.874 -0.3052 -0.1005 -0.0866
   57MOL   C41140843   1.144   0.227   4.038 -0.2596 -0.0897  0.1089
   57MOL   H41240844   2.091   0.862   4.137  0.5144 -0.8854 -1.9615
   57MOL   H41340845   2.026   1.014   4.121  2.2917 -0.2751  1.0396
   57MOL   H41440846   2.086   0.958   3.979 -0.6038 -0.3846 -0.5699
   57MOL   H41540847   1.915   0.783   3.959 -0.5256 -0.9931  0.1666
   57MOL   H41640848   1.826   0.934   3.992  0.6344 -0.1760 -0.2170
   57MOL   H41740849   1.881   0.705   4.175  0.9560 -0.0929 -0.1028
   57MOL   H41840850   1.840   0.869   4.242 -2.4285 -2.9499  2.1588
   57MOL   H41940851   1.673   0.701   4.048 -0.7777 -1.0851  0.3526
   57MOL   H42040852   1.623   0.855   4.115  1.1062  0.5959  0.8211
   57MOL   H42140853   1.656   0.601   4.283  0.2149 -0.3497 -1.4703
   57MOL   H42240854   1.615   0.760   4.338 -1.1762  0.6167 -0.4031
   57MOL   H42340855   1.463   0.622   4.112  0.5838  0.5406  0.3205
   57MOL   H42440856   1.425   0.770   4.205  1.8011  1.3538  1.8252
   57MOL   H42540857   1.478   0.499   4.301  0.9347  0.1523 -1.5333
   57MOL   H42640858   1.412   0.621   4.413 -0.7330 -2.1681  1.3536
   57MOL   H42740859   1.191   0.524   4.344 -0.9667 -0.4522 -1.2762
   57MOL   H42840860   1.227   0.653   4.232  2.5658  2.3812  1.6436
   57MOL   H42940861   0.931   0.396   3.933  0.9795 -0.8674  2.1473
   57MOL   H43040862   1.011   0.298   3.802 -2.6240  1.6323 -1.8012
   57MOL   H43140863   1.033   0.466   3.809  1.2935  0.4212  0.8908
   57MOL   H43240864   1.224   0.237   4.112 -1.5427 -0.2663  1.5342
   57MOL   H43340865   1.180   0.151   3.970 -1.2610  0.1332 -0.6766
   57MOL   C43440866   0.634   7.315   3.363  0.3652 -0.1656  0.0692
   57MOL   C43540867   0.681   7.207   3.467  0.0367 -0.4606  0.4179
   57MOL   C43640868   0.670   7.263   3.606 -0.0773  0.6232 -0.5364
   57MOL   C43740869   0.769   7.381   3.640  0.0880 -0.1438 -0.4070
   57MOL   C43840870   0.790   7.397   3.795  0.2571  0.0784  0.3483
   57MOL   C43940871   0.868   7.523   3.844  0.5430 -0.2972 -0.3648
   57MOL   C44040872   0.788   7.655   3.834 -0.5129 -0.1296 -0.0851
   57MOL   C44140873   0.872   7.777   3.831 -0.2422 -0.7987 -0.1499
   57MOL   O44240874   0.957   0.024   3.949 -0.3058  0.1892  0.0312
   57MOL   C44340875   0.920   0.130   4.025  1.3860 -0.2912 -0.8145
   57MOL   O44440876   0.814   0.193   4.012  0.5724  0.0478  0.3507
   57MOL   C44540877   1.026   0.173   4.127 -0.6271  0.3846  0.8493
   57MOL   C44640878   0.973   0.280   4.215 -0.6307  0.3406 -0.4664
   57MOL   C44740879   1.085   0.053   4.206 -0.1495  0.6563  0.8347
   57MOL   H44840880   0.616   7.292   3.258  1.2069  1.3018 -0.4139
   57MOL   H44940881   0.716   7.387   3.352 -1.7933  2.2451 -1.0121
   57MOL   H45040882   0.541   7.366   3.390  1.2665  0.9852  1.0631
   57MOL   H45140883   0.779   7.174   3.434  0.5545  2.6754 -1.5043
   57MOL   H45240884   0.614   7.121   3.468 -1.1056  0.3526 -1.5429
   57MOL   H45340885   0.696   7.179   3.671  1.1115  0.6435 -0.9673
   57MOL   H45440886   0.565   7.280   3.628 -0.7901 -2.2937 -1.4258
   57MOL   H45540887   0.725   7.475   3.607 -1.2735  0.0779  1.9247
   57MOL   H45640888   0.863   7.363   3.588  1.6560  2.0040  1.5717
   57MOL   H45740889   0.691   7.389   3.840  0.4150  0.3693  0.7622
   57MOL   H45840890   0.854   7.313   3.823 -0.5586 -0.7068 -0.1319
   57MOL   H45940891   0.951   7.524   3.773  1.3555  0.3873  0.5897
   57MOL   H46040892   0.908   7.523   3.945 -2.0188 -1.1566  0.6967
   57MOL   H46140893   0.713   7.651   3.755 -0.1320 -1.4085 -0.3934
   57MOL   H46240894   0.721   7.663   3.920 -1.7720 -2.3497 -0.8281
   57MOL   H46340895   0.813   0.081   3.793  1.3606 -0.5492 -2.1966
   57MOL   H46440896   0.940   7.763   3.747  1.4938  2.1415  0.6729
   57MOL   H46540897   0.881   0.245   4.263 -0.7728 -0.5672 -1.3894
   57MOL   H46640898   1.037   0.321   4.293 -1.0232 -0.8915  0.5263
   57MOL   H46740899   0.945   0.367   4.156 -0.4895 -1.1027 -2.7233
   57MOL   H46840900   1.132   7.776   4.125  1.5010  0.1977  2.0901
   57MOL   H46940901   1.168   0.094   4.264  1.9079 -3.4906  0.9500
   57MOL   C47040902   1.832   7.662   4.061 -0.1132 -0.3090 -0.7086
   57MOL   C47140903   1.892   7.546   4.147  0.7161  0.4493  0.1508
   57MOL   C47240904   1.847   7.403   4.110  0.7868  0.4769 -0.0427
   57MOL   C47340905   1.721   7.373   4.197 -0.0308  0.0332  0.4441
   57MOL   C47440906   1.577   7.405   4.147 -0.6343  0.2275  0.7712
   57MOL   C47540907   1.469   7.346   4.240 -0.5774 -0.3096  0.0181
   57MOL   C47640908   1.333   7.403   4.219  0.3199 -0.3697 -0.5619
   57MOL   C47740909   1.290   7.492   4.332 -0.0420  0.2453 -0.4011
   57MOL   O47840910   1.171   7.562   4.294 -0.6485 -1.0395 -0.2676
   57MOL   C47940911   1.118   7.652   4.377  0.4659  0.3390  0.6172
   57MOL   O48040912   1.138   7.658   4.500 -0.0232  0.1169  0.7951
   57MOL   C48140913   1.011   7.740   4.311  0.6209 -0.1253  1.0747
   57MOL   C48240914   0.952   0.049   4.426  0.5046 -0.0044 -0.1286
   57MOL   C48340915   0.904   7.657   4.237  0.0703  0.7969  1.1335
   57MOL   H48440916   1.854   7.639   3.957  1.1617 -0.5855 -0.3935
   57MOL   H48540917   1.890   7.753   4.073  0.5527 -0.9629  1.3224
   57MOL   H48640918   1.724   7.675   4.072  0.1159  0.0988  1.3524
   57MOL   H48740919   2.001   7.545   4.146  0.7616  2.4357 -1.4689
   57MOL   H48840920   1.865   7.594   4.241  2.5493  1.8167  0.0215
   57MOL   H48940921   1.826   7.387   4.004  2.4669 -0.3647 -0.2643
   57MOL   H49040922   1.916   7.332   4.156  0.1813 -1.0217 -1.4016
   57MOL   H49140923   1.718   7.265   4.212 -1.3537  0.2138  1.6017
   57MOL   H49240924   1.730   7.418   4.296 -1.5542 -0.0271  0.6209
   57MOL   H49340925   1.572   7.513   4.140  1.0746  0.3720  1.5479
   57MOL   H49440926   1.560   7.365   4.047  0.0401  0.8296  0.4062
   57MOL   H49540927   1.452   7.239   4.223 -0.4792 -0.3586  0.2245
   57MOL   H49640928   1.490   7.348   4.347 -1.8178  2.4732  0.2371
   57MOL   H49740929   1.333   7.453   4.122  1.2441 -0.4896 -0.6289
   57MOL   H49840930   1.265   7.318   4.218 -0.5862  0.3524 -0.5077
   57MOL   H49940931   1.375   7.554   4.359  2.6738 -3.2853 -0.4454
   57MOL   H50040932   1.273   7.440   4.426 -0.5025  1.9703  0.4880
   57MOL   H50140933   0.929   0.004   4.522 -0.9484  0.5301 -0.2099
   57MOL   H50240934   0.859   0.104   4.409 -0.2950 -1.6477 -1.3325
   57MOL   H50340935   1.034   0.118   4.446  1.1769 -0.9188  0.2810
   57MOL   H50440936   0.843   7.745   4.212  0.1470  0.4820 -0.2351
   57MOL   H50540937   0.949   7.614   4.147 -1.8129 -0.5519  0.8119
   57MOL   C50640938   1.379   6.691   3.566 -1.0810  0.0701  0.3427
   57MOL   C50740939   1.360   6.734   3.712 -0.0803 -0.0233  0.7075
   57MOL   C50840940   1.283   6.869   3.720 -0.1434  0.0546  0.3597
   57MOL   C50940941   1.256   6.922   3.868  0.5167  0.1652 -0.5202
   57MOL   C51040942   1.169   7.051   3.874  0.0451  0.4343 -0.0877
   57MOL   C51140943   1.143   7.087   4.024 -0.4398  0.7746  0.1400
   57MOL   C51240944   1.069   7.223   4.037  0.2074  0.0900  0.1895
   57MOL   C51340945   1.007   7.245   4.177 -0.4933 -0.2123  0.2096
   57MOL   O51440946   0.934   7.371   4.184 -0.3914  0.0373  0.1239
   57MOL   C51540947   0.893   7.421   4.311 -0.4283 -0.0048 -0.1665
   57MOL   O51640948   0.932   7.368   4.414  0.4022  0.2226  0.2320
   57MOL   C51740949   0.810   7.546   4.300 -0.2514  0.3718 -1.0026
   57MOL   C51840950   0.768   7.584   4.441 -0.6677  0.4360  0.1798
   57MOL   C51940951   0.689   7.525   4.207  0.3666  0.0770 -0.1695
   57MOL   H52040952   1.414   6.593   3.532  0.6565  0.9567 -0.5119
   57MOL   H52140953   1.434   6.769   3.513  0.0765 -0.2342  1.0708
   57MOL   H52240954   1.279   6.695   3.524 -1.1224 -0.0722  0.4287
   57MOL   H52340955   1.460   6.750   3.753 -0.0429  3.1895 -0.4760
   57MOL   H52440956   1.305   6.658   3.767 -0.8300 -1.4663 -1.9687
   57MOL   H52540957   1.332   6.947   3.660 -1.2667 -0.5761 -1.4264
   57MOL   H52640958   1.185   6.861   3.673  0.3462 -0.6309 -0.5555
   57MOL   H52740959   1.216   6.846   3.934 -3.2341 -0.3131 -3.1717
   57MOL   H52840960   1.354   6.946   3.908  0.9695 -1.0774 -0.8777
   57MOL   H52940961   1.219   7.131   3.818  1.5981 -0.3424  0.1565
   57MOL   H53040962   1.071   7.049   3.826  0.5541 -0.0543 -1.1218
   57MOL   H53140963   1.240   7.112   4.068  0.2484 -1.7308  0.0990
   57MOL   H53240964   1.105   7.002   4.081 -1.5796 -0.3578 -2.2341
   57MOL   H53340965   0.988   7.232   3.964 -0.2890  1.1655  0.8604
   57MOL   H53440966   1.129   7.308   4.005 -0.2589  0.5590  0.5658
   57MOL   H53540967   1.082   7.264   4.254  1.2522  2.3432 -2.0338
   57MOL   H53640968   0.941   7.164   4.208 -2.8297  0.2741 -3.3277
   57MOL   H53740969   0.847   7.593   4.515 -0.9059 -1.3338  0.6779
   57MOL   H53840970   0.707   7.510   4.493  0.0210 -1.2830 -1.4051
   57MOL   H53940971   0.719   7.681   4.433  2.8549  2.3306  0.8705
   57MOL   H54040972   0.644   7.623   4.189 -0.2918  0.0987  1.5791
   57MOL   H54140973   0.729   7.505   4.107  1.1003  1.4042 -0.1495
   57MOL   C54240974   0.642   0.558   4.047 -0.2955  0.0767  0.2846
   57MOL   C54340975   0.591   0.596   4.183  0.4245 -0.7293  0.3121
   57MOL   C54440976   0.525   0.472   4.252  0.5787 -1.3267 -0.5566
   57MOL   C54540977   0.635   0.367   4.281  0.3801 -0.8535 -0.0985
   57MOL   C54640978   0.583   0.273   4.393 -0.0012 -0.2495 -0.1343
   57MOL   C54740979   0.516   0.144   4.338  0.2443 -0.0561  0.3172
   57MOL   C54840980   0.455   0.053   4.441 -0.3773  0.6411 -0.6517
   57MOL   C54940981   0.368   7.718   4.384 -0.4559  0.2075 -0.5304
   57MOL   O55040982   0.446   7.634   4.301 -0.4641  0.6796 -0.5758
   57MOL   C55140983   0.476   7.508   4.338  0.1092 -0.7032  0.7546
   57MOL   O55240984   0.437   7.460   4.443 -0.0932 -0.3206 -0.2337
   57MOL   C55340985   0.563   7.435   4.233 -0.4154 -0.3724 -0.0957
   57MOL   C55440986   0.614   7.308   4.304 -0.3184 -0.4144 -0.7138
   57MOL   C55540987   0.481   7.417   4.099  0.2455 -0.1004 -0.0422
   57MOL   H55640988   0.567   0.521   3.977  0.3094 -1.0476  0.2090
   57MOL   H55740989   0.706   0.471   4.032 -0.5666  0.0156 -0.5297
   57MOL   H55840990   0.700   0.640   4.006 -0.2632 -0.0648  0.0416
   57MOL   H55940991   0.683   0.627   4.232  0.2850 -0.9370  0.7077
   57MOL   H56040992   0.523   0.681   4.182 -0.7930 -1.6736 -1.8696
   57MOL   H56140993   0.437   0.431   4.203  0.5829 -2.9264  0.7392
   57MOL   H56240994   0.496   0.512   4.349  1.0713 -0.1348 -0.8942
   57MOL   H56340995   0.672   0.313   4.194 -1.7087  0.0643 -1.6026
   57MOL   H56440996   0.722   0.423   4.316  0.7836  0.2538 -2.7923
   57MOL   H56540997   0.528   0.331   4.468 -1.7931 -0.1473 -1.4888
   57MOL   H56640998   0.675   0.238   4.439 -0.5627 -0.0633  1.1775
   57MOL   H56740999   0.423   0.162   4.284  1.1922  0.7339 -1.0824
   57MOL   H56841000   0.575   0.096   4.260  1.4486 -0.0533  1.2197
   57MOL   H56941001   0.531   0.017   4.510 -0.6523 -0.9916 -1.1920
   57MOL   H57041002   0.384   0.109   4.503 -1.0650 -1.3983  0.4563
   57MOL   H57141003   0.310   7.774   4.310 -1.2993  0.1923  0.1167
   57MOL   H57241004   0.307   7.662   4.454 -0.4954  1.1707  0.2167
   57MOL   H57341005   0.533   7.243   4.334  0.8749 -1.3029  0.6647
   57MOL   H57441006   0.676   7.330   4.392 -0.5287  0.6415 -0.8161
   57MOL   H57541007   0.677   7.237   4.251 -0.7599 -1.2850 -0.0822
   57MOL   H57641008   0.559   7.408   4.024 -0.0674 -0.3550 -0.3418
   57MOL   H57741009   0.420   7.507   4.095 -1.7071 -1.3702  0.2525
   57MOL   C57841010   7.550   0.086   3.794  0.3859  0.1472  0.4379
   57MOL   C57941011   7.571   7.717   3.767  0.5029  0.0422  0.6459
   57MOL   C58041012   7.641   7.645   3.875 -1.0117  0.0708  0.4307
   57MOL   C58141013   7.568   7.663   4.011 -0.0976 -0.1660 -0.3577
   57MOL   C58241014   7.591   7.545   4.113 -0.2368  0.4770  0.7448
   57MOL   C58341015   7.726   7.549   4.183  0.1939 -0.2504  0.2422
   57MOL   C58441016   7.754   7.412   4.257  0.4780  0.3100  0.3313
   57MOL   C58541017   0.121   7.400   4.307  0.8201 -0.0561 -0.2391
   57MOL   O58641018   0.206   7.384   4.193 -0.0882 -0.9076 -0.4429
   57MOL   C58741019   0.284   7.278   4.188  0.4800 -0.1625  0.9964
   57MOL   O58841020   0.289   7.182   4.267  0.1710  0.2798 -0.1748
   57MOL   C58941021   0.384   7.300   4.067  0.1584 -0.0010  0.5380
   57MOL   C59041022   0.464   7.169   4.039 -0.1272 -0.1194 -0.4011
   57MOL   C59141023   0.309   7.337   3.927 -0.5271 -0.1837  0.0329
   57MOL   H59241024   7.523   0.131   3.698 -2.6448 -0.3563  1.0216
   57MOL   H59341025   7.642   0.139   3.816  2.0187 -1.6499 -1.7803
   57MOL   H59441026   7.472   0.099   3.868  0.1562  0.2759  0.1739
   57MOL   H59541027   7.637   7.711   3.680 -0.5897  0.4682 -0.2189
   57MOL   H59641028   7.477   7.665   3.747  1.6168 -2.4268  1.6060
   57MOL   H59741029   7.744   7.682   3.878 -1.3588  1.1461 -0.8502
   57MOL   H59841030   7.654   7.541   3.844  0.7744  0.2471  0.5150
   57MOL   H59941031   7.460   7.677   4.002 -0.3915 -1.2889  1.1733
   57MOL   H60041032   7.602   7.755   4.060 -0.9815 -0.7541  1.3830
   57MOL   H60141033   7.600   7.461   4.044 -2.6861 -1.6713  2.9528
   57MOL   H60241034   7.510   7.535   4.185 -0.3458  3.6094  1.1405
   57MOL   H60341035   7.727   7.621   4.264  1.0413 -1.3062  1.1810
   57MOL   H60441036   0.033   7.575   4.121  1.6783  2.2878  3.2405
   57MOL   H60541037   7.731   7.327   4.193 -0.2161 -1.1212  2.4397
   57MOL   H60641038   7.685   7.392   4.339 -0.4710  1.4604 -0.1763
   57MOL   H60741039   0.147   7.491   4.360 -0.7085 -0.2616  0.9168
   57MOL   H60841040   0.132   7.319   4.380  1.4238 -0.3342 -0.6319
   57MOL   H60941041   0.488   7.164   3.933  1.6717 -0.3181  0.0095
   57MOL   H61041042   0.551   7.146   4.099 -0.8187  0.3390  0.8014
   57MOL   H61141043   0.402   7.080   4.050  1.3345 -1.2688 -1.2887
   57MOL   H61241044   0.387   7.368   3.857 -1.5414 -0.9910 -1.4779
   57MOL   H61341045   0.263   7.434   3.947  0.0349 -0.4630  2.8924
   57MOL   C61441046   7.455   6.662   4.807  0.1643  0.2489 -0.2589
   57MOL   C61541047   7.562   6.635   4.701  0.5981 -0.2248  0.5179
   57MOL   C61641048   7.586   6.765   4.618 -0.6528  0.4934  0.1854
   57MOL   C61741049   7.667   6.737   4.489 -0.7178 -0.8084 -0.1602
   57MOL   C61841050   7.693   6.867   4.420 -0.4495 -0.7848  0.1838
   57MOL   C61941051   7.761   6.862   4.280 -0.2465 -0.2023  0.2480
   57MOL   C62041052   0.007   6.993   4.210  0.1593 -0.0009 -0.0616
   57MOL   C62141053   0.092   6.972   4.089  0.1413  0.1342  0.1985
   57MOL   O62241054   0.111   7.099   4.025  0.4582  0.2192 -0.4402
   57MOL   C62341055   0.174   7.105   3.908  0.6227  0.6101 -0.4060
   57MOL   O62441056   0.215   7.009   3.854  0.5228 -0.0647 -0.4026
   57MOL   C62541057   0.199   7.245   3.855 -0.5926 -0.6037 -0.1011
   57MOL   C62641058   0.071   7.324   3.876 -0.0148 -0.4646  0.4071
   57MOL   C62741059   0.239   7.232   3.707  0.6919  0.3269 -0.3100
   57MOL   H62841060   7.359   6.701   4.773  1.7012  2.5915 -2.0841
   57MOL   H62941061   7.501   6.739   4.869 -0.7780  0.5807  0.0389
   57MOL   H63041062   7.445   6.572   4.867 -2.2559  0.0891 -0.8422
   57MOL   H63141063   7.657   6.614   4.750  2.0686  3.5170 -0.5264
   57MOL   H63241064   7.534   6.545   4.647  1.3636 -0.8456  1.1456
   57MOL   H63341065   7.652   6.833   4.673  0.1757 -0.2954  0.1681
   57MOL   H63441066   7.492   6.812   4.589  0.0907  1.2259 -1.0736
   57MOL   H63541067   7.614   6.680   4.413 -1.9599  0.3949 -0.2012
   57MOL   H63641068   7.766   6.696   4.509 -1.4600 -1.8729  1.3956
   57MOL   H63741069   7.596   6.912   4.402  1.0167  1.9263 -1.3073
   57MOL   H63841070   7.749   6.931   4.489 -0.4065 -0.8735  0.2291
   57MOL   H63941071   0.072   6.803   4.275 -0.5956 -0.8917  1.8164
   57MOL   H64041072   7.700   6.801   4.213 -0.8536 -0.0363  0.6400
   57MOL   H64141073   0.050   7.073   4.271 -0.5292  1.3581 -1.3484
   57MOL   H64241074   7.690   7.031   4.179  0.8645 -0.1012 -2.4771
   57MOL   H64341075   0.191   6.937   4.119  0.6208  2.0895  0.9810
   57MOL   H64441076   0.059   6.896   4.018  1.9229 -1.0117  0.5648
   57MOL   H64541077   7.766   7.259   3.855  0.5333 -1.1693  0.3777
   57MOL   H64641078   0.068   7.407   3.805  0.5752  0.6397  1.6320
   57MOL   H64741079   0.055   7.355   3.979  0.6555  0.3800  0.2712
   57MOL   H64841080   0.328   7.171   3.694 -0.6832 -1.2655 -2.4892
   57MOL   H64941081   0.272   7.333   3.682 -1.1437  1.0991  0.2900
   57MOL   C65041082   0.805   7.739   3.439  0.1425  0.6029  0.6840
   57MOL   C65141083   0.701   0.021   3.340 -0.1498 -0.8839 -0.5114
   57MOL   C65241084   0.561   0.056   3.389  0.1504  0.2143 -0.0865
   57MOL   C65341085   0.446   7.729   3.372 -0.4649 -0.1198 -0.3308
   57MOL   C65441086   0.312   7.759   3.442 -0.6001  0.3557  0.6281
   57MOL   C65541087   0.197   7.663   3.400 -0.2278  0.1521 -0.4403
   57MOL   C65641088   0.088   7.645   3.505 -0.2709  0.1909 -0.2145
   57MOL   C65741089   7.771   7.523   3.491 -0.5700 -0.2640  0.0124
   57MOL   O65841090   0.080   7.419   3.521 -0.4390  0.5133  0.2012
   57MOL   C65941091   0.030   7.296   3.566  0.1109  1.1851  0.1858
   57MOL   O66041092   7.690   7.269   3.575 -0.0874 -0.0118 -0.0112
   57MOL   C66141093   0.138   7.185   3.588 -0.1894  0.0451  0.1295
   57MOL   C66241094   0.061   7.050   3.612 -0.2214 -0.1908 -0.0988
   57MOL   C66341095   0.235   7.184   3.457 -0.3006  0.1234 -0.8754
   57MOL   H66441096   0.832   0.033   3.514 -0.5202 -1.8389  3.4078
   57MOL   H66541097   0.896   7.691   3.401 -0.0228  0.0146  1.0301
   57MOL   H66641098   0.751   7.659   3.489 -2.8441  1.8073 -0.4922
   57MOL   H66741099   0.682   7.740   3.251 -0.4256  1.4218 -2.0589
   57MOL   H66841100   0.738   0.117   3.305 -0.9703 -0.7258 -0.9515
   57MOL   H66941101   0.530   0.143   3.332 -1.3022 -0.6561 -0.6459
   57MOL   H67041102   0.581   0.108   3.483  0.1353  0.3017 -0.1322
   57MOL   H67141103   0.480   7.632   3.409 -0.6252 -0.6633 -1.5846
   57MOL   H67241104   0.429   7.717   3.265 -3.3011  0.8348 -0.0524
   57MOL   H67341105   0.284   0.083   3.422 -0.8842 -0.0546 -1.1622
   57MOL   H67441106   0.344   7.754   3.546  0.4125  0.4951  0.3285
   57MOL   H67541107   0.149   7.698   3.309  0.0897 -0.3052 -0.7857
   57MOL   H67641108   0.241   7.568   3.371 -0.0862  0.5363 -1.5039
   57MOL   H67741109   0.031   7.738   3.498  0.7360  0.7904 -0.5369
   57MOL   H67841110   0.145   7.648   3.597  0.6541  1.6842 -0.8105
   57MOL   H67941111   7.724   7.517   3.393 -2.2405  1.2151  0.6834
   57MOL   H68041112   7.691   7.542   3.563 -0.3975 -2.0265  0.6954
   57MOL   H68141113   7.760   7.040   3.539 -1.3674  0.8732  0.9906
   57MOL   H68241114   0.009   7.059   3.708  1.6411  2.1956  0.7555
   57MOL   H68341115   0.116   6.957   3.615  0.7791  0.4013  0.1687
   57MOL   H68441116   0.274   7.283   3.433 -1.0628  1.3746  2.7198
   57MOL   H68541117   0.325   7.135   3.494 -1.2468 -0.0619  1.3091
   57MOL   C68641118   0.812   6.789   3.900 -0.0903 -0.0265  0.5015
   57MOL   C68741119   0.819   6.793   3.745 -0.4827  0.6704  0.1326
   57MOL   C68841120   0.685   6.785   3.676  0.3684  0.3783  0.3152
   57MOL   C68941121   0.701   6.836   3.535 -0.4596  0.1293  0.3985
   57MOL   C69041122   0.565   6.838   3.462  0.4334  0.0461 -0.6238
   57MOL   C69141123   0.495   6.698   3.462 -0.1808  0.8594  0.9982
   57MOL   C69241124   0.393   6.697   3.354 -0.8405 -0.1860 -0.0049
   57MOL   C69341125   0.261   6.760   3.400 -0.1995  0.5492 -1.0358
   57MOL   O69441126   0.265   6.901   3.390  0.2867 -0.0710 -0.6362
   57MOL   C69541127   0.161   6.970   3.345  0.9215  0.2776 -0.3776
   57MOL   O69641128   0.049   6.925   3.322  0.8019 -0.0289  0.5554
   57MOL   C69741129   0.193   7.117   3.325 -0.0132 -0.5533 -0.5247
   57MOL   C69841130   0.313   7.135   3.233 -0.2476  0.2464 -0.3677
   57MOL   C69941131   0.076   7.197   3.255  0.1412  0.0092 -0.5329
   57MOL   H70041132   0.733   6.856   3.931 -2.0335 -1.9343 -0.1727
   57MOL   H70141133   0.904   6.818   3.950 -1.0258  2.1524  0.9754
   57MOL   H70241134   0.795   6.689   3.940  0.5952  0.1972  1.3503
   57MOL   H70341135   0.890   6.726   3.697 -2.4504 -2.4753  1.4003
   57MOL   H70441136   0.871   6.887   3.728 -0.8165  0.7220 -0.6167
   57MOL   H70541137   0.612   6.850   3.724 -0.7069  1.0703 -2.1815
   57MOL   H70641138   0.652   6.682   3.685 -2.6010  1.4446  2.5797
   57MOL   H70741139   0.771   6.776   3.476  2.5118  0.1831  3.6792
   57MOL   H70841140   0.749   6.934   3.534 -0.0394 -0.0748  0.7210
   57MOL   H70941141   0.590   6.874   3.362 -0.8327  3.0687  0.0813
   57MOL   H71041142   0.502   6.903   3.523  2.9516  0.3579  1.7733
   57MOL   H71141143   0.567   6.618   3.445  1.1738  2.2716 -0.0509
   57MOL   H71241144   0.449   6.666   3.556 -0.9076 -2.7205 -0.5073
   57MOL   H71341145   0.434   6.727   3.257 -1.1663 -3.0276 -1.0588
   57MOL   H71441146   0.381   6.591   3.333 -0.2316 -0.0025 -1.3229
   57MOL   H71541147   0.249   6.726   3.503 -0.1958  2.2255 -0.4570
   57MOL   H71641148   0.177   6.713   3.350  0.0003 -0.5709 -0.3407
   57MOL   H71741149   0.302   7.070   3.146  1.5867 -0.2625 -0.2425
   57MOL   H71841150   0.325   7.242   3.217  0.0859  0.3624  0.6503
   57MOL   H71941151   0.406   7.105   3.282  0.5832  0.1742 -1.9474
   57MOL   H72041152   7.761   7.193   3.310  0.7559  1.2420  0.6601
   57MOL   H72141153   0.054   7.151   3.159  0.4763 -0.8780 -0.1898
   57MOL   H72241154   0.094   7.302   3.231 -0.7269  0.6852  1.6085
   58MOL     C141155   5.153   1.708   3.732 -0.3599  0.1574  0.1526
   58MOL     C241156   5.192   1.764   3.867  0.6750 -0.3601 -1.1157
   58MOL     C341157   5.193   1.662   3.979 -0.1356 -0.7749 -0.2934
   58MOL     C441158   5.252   1.723   4.108 -0.4453 -0.1859 -0.4221
   58MOL     C541159   5.287   1.616   4.214 -0.7344 -0.2780  0.1683
   58MOL     C641160   5.338   1.676   4.345  0.5206  0.2314 -0.2771
   58MOL     C741161   5.238   1.762   4.430 -0.2880 -0.5067 -0.3814
   58MOL     C841162   5.243   1.911   4.401  0.5197  0.2386 -0.2258
   58MOL     O941163   5.154   1.983   4.484  0.2343  0.8100 -0.7080
   58MOL    C1041164   5.038   2.047   4.436 -0.2148  0.3971  0.4685
   58MOL    O1141165   4.999   2.039   4.320  0.0687  0.2771  0.1224
   58MOL    C1241166   4.954   2.114   4.548  0.2348 -0.2804 -0.1012
   58MOL    C1341167   4.893   2.007   4.628 -0.1952 -0.0577  0.4838
   58MOL    C1441168   5.046   2.200   4.649 -0.7754 -0.0696 -0.0083
   58MOL    H1541169   5.218   1.627   3.698  0.2442  0.9220 -0.5602
   58MOL    H1641170   5.158   1.793   3.664  0.6403 -0.3057 -0.3704
   58MOL    H1741171   5.051   1.672   3.735  0.3485 -2.2006 -1.8551
   58MOL    H1841172   5.129   1.851   3.888  0.9161 -0.7572  1.3813
   58MOL    H1941173   5.296   1.795   3.859  1.3821 -1.7257  2.1010
   58MOL    H2041174   5.099   1.611   3.995  0.0456 -0.9816  0.1268
   58MOL    H2141175   5.246   1.574   3.940  1.5533 -0.0197  0.2667
   58MOL    H2241176   5.341   1.782   4.087 -2.2227  1.9788 -2.1039
   58MOL    H2341177   5.178   1.789   4.153 -0.5640 -1.8761  1.9430
   58MOL    H2441178   5.354   1.542   4.171  1.0019  1.8516 -0.9283
   58MOL    H2541179   5.201   1.558   4.244 -0.4459 -0.6348  0.3074
   58MOL    H2641180   5.425   1.737   4.323 -0.0756  0.2637 -2.5997
   58MOL    H2741181   5.371   1.588   4.401 -0.9334 -0.1877 -0.0541
   58MOL    H2841182   5.255   1.749   4.537  0.1779 -0.8049 -0.4844
   58MOL    H2941183   5.137   1.722   4.442  0.0973 -0.9546  1.6557
   58MOL    H3041184   5.220   1.935   4.297 -1.4014  2.4197  0.6709
   58MOL    H3141185   5.348   1.937   4.414  1.1216 -2.3561  0.5188
   58MOL    H3241186   4.960   1.930   4.666 -0.0531 -0.2055 -0.0676
   58MOL    H3341187   4.840   2.050   4.713  2.7827  1.2427  1.7308
   58MOL    H3441188   4.823   1.947   4.569  1.1723  1.4538 -2.7671
   58MOL    H3541189   5.152   2.182   4.633 -0.4397  0.2749  1.7362
   58MOL    H3641190   5.022   2.170   4.751  1.4545  1.7924  1.1131
   58MOL    H3741191   4.881   2.180   4.501 -0.3606 -0.9683 -0.1364
   58MOL    C3841192   5.209   2.355   5.461 -0.1817 -0.1342  0.1420
   58MOL    C3941193   5.059   2.336   5.418 -0.5927  0.1902 -0.1798
   58MOL    C4041194   5.011   2.398   5.285 -0.2723  0.1667 -0.4136
   58MOL    C4141195   4.876   2.350   5.240 -0.1743 -0.5576 -0.4202
   58MOL    C4241196   4.845   2.410   5.102  0.5315  0.2949 -1.3054
   58MOL    C4341197   4.696   2.395   5.061 -0.1337 -0.1125 -0.1534
   58MOL    C4441198   4.673   2.459   4.925 -0.6645 -0.8052 -0.0272
   58MOL    C4541199   4.689   2.362   4.807 -0.6959 -0.0839 -0.7969
   58MOL    O4641200   4.829   2.330   4.781 -0.4205 -0.3905  0.2792
   58MOL    C4741201   4.885   2.397   4.679 -0.6407 -0.5253 -0.3660
   58MOL    O4841202   4.831   2.482   4.610  0.0151 -0.4272 -0.2116
   58MOL    C4941203   5.036   2.357   4.651 -0.2770  0.0405  0.4919
   58MOL    C5041204   5.082   2.394   4.504 -0.2095 -0.3188 -0.3786
   58MOL    C5141205   5.137   2.404   4.766  0.1306 -0.4235 -0.3965
   58MOL    H5241206   5.234   2.359   5.567  0.1698 -1.2352  0.1093
   58MOL    H5341207   5.235   2.453   5.423 -0.5794 -1.0459 -2.5884
   58MOL    H5441208   5.270   2.276   5.415  1.2720  1.2962 -0.4430
   58MOL    H5541209   4.999   2.380   5.497  0.7677  0.1279  0.8899
   58MOL    H5641210   5.038   2.228   5.416 -0.0019  0.0888 -1.8302
   58MOL    H5741211   4.992   2.498   5.326  0.1739 -0.0553  0.3468
   58MOL    H5841212   5.081   2.398   5.202  0.1159 -0.7347 -0.0832
   58MOL    H5941213   4.792   2.369   5.307  1.0906 -1.1072  1.3514
   58MOL    H6041214   4.876   2.241   5.235  2.5225 -0.5453 -1.2846
   58MOL    H6141215   4.889   2.509   5.093  0.7700  0.4705  1.2070
   58MOL    H6241216   4.909   2.356   5.032  3.6373  1.6168  0.3812
   58MOL    H6341217   4.670   2.289   5.056 -0.1985 -0.1899  1.6502
   58MOL    H6441218   4.634   2.451   5.131  1.0179  0.9778  0.0089
   58MOL    H6541219   4.708   2.559   4.900 -1.8967 -0.8952 -2.2240
   58MOL    H6641220   4.566   2.475   4.921 -0.5743  0.0141  0.7621
   58MOL    H6741221   4.637   2.390   4.715  1.1160  0.3314 -1.7210
   58MOL    H6841222   4.637   2.271   4.838 -1.5770  0.9542  0.8926
   58MOL    H6941223   5.186   2.369   4.484  0.4187  1.2662  0.8314
   58MOL    H7041224   5.019   2.363   4.421  0.1071  1.2987 -1.2606
   58MOL    H7141225   5.075   2.503   4.503 -1.1020 -0.3696 -1.7994
   58MOL    H7241226   5.219   2.336   4.741 -0.0553 -0.5016 -0.7988
   58MOL    H7341227   5.104   2.377   4.867  2.7832 -1.3592  0.2745
   58MOL    C7441228   5.604   1.905   3.975 -0.8576 -0.3066  0.0291
   58MOL    C7541229   5.685   1.925   4.098 -0.4164  0.4109 -0.8206
   58MOL    C7641230   5.632   2.046   4.189 -0.2008 -0.2616  0.0085
   58MOL    C7741231   5.723   2.071   4.310  0.1401  0.1210 -0.2991
   58MOL    C7841232   5.651   2.109   4.445 -0.3597 -0.0528  0.1304
   58MOL    C7941233   5.601   2.255   4.430 -0.0855 -0.7047 -0.3568
   58MOL    C8041234   5.516   2.293   4.550  0.2765  0.2046 -0.1230
   58MOL    C8141235   5.479   2.435   4.556 -0.6134 -0.4393 -0.4749
   58MOL    O8241236   5.409   2.467   4.672 -0.0519  0.0723 -0.4327
   58MOL    C8341237   5.306   2.559   4.674  0.1470 -0.5564  0.7924
   58MOL    O8441238   5.296   2.657   4.601  0.2156 -0.1110  0.3696
   58MOL    C8541239   5.203   2.539   4.788  0.1420  0.2629 -0.7587
   58MOL    C8641240   5.087   2.644   4.796  0.0330  0.8267  0.5220
   58MOL    C8741241   5.275   2.539   4.931 -0.0702  0.3305 -0.1446
   58MOL    H8841242   5.641   1.824   3.912 -0.8954  0.1800 -0.6186
   58MOL    H8941243   5.625   1.999   3.925  1.9874 -0.1555  1.4075
   58MOL    H9041244   5.497   1.885   3.979 -0.8765 -0.2180 -0.0277
   58MOL    H9141245   5.788   1.950   4.073 -0.5334  1.8570  0.0915
   58MOL    H9241246   5.676   1.838   4.162  0.1270  1.5508  0.8296
   58MOL    H9341247   5.601   2.131   4.128  1.9980  0.2308 -0.4630
   58MOL    H9441248   5.534   2.009   4.219  0.2813 -1.5565  0.0213
   58MOL    H9541249   5.792   2.154   4.289  0.0305  0.5819  1.1483
   58MOL    H9641250   5.785   1.986   4.338 -2.2857 -1.2895  0.9338
   58MOL    H9741251   5.564   2.047   4.468 -0.2703 -0.2066  0.0553
   58MOL    H9841252   5.717   2.101   4.532 -0.5165 -1.4196  0.1298
   58MOL    H9941253   5.694   2.311   4.439  0.0513 -1.1206  0.8843
   58MOL   H10041254   5.541   2.267   4.339  1.3415  0.4841 -1.1595
   58MOL   H10141255   5.421   2.241   4.557 -0.5378  1.2186 -2.7184
   58MOL   H10241256   5.562   2.283   4.648  1.0551  0.8376 -0.4143
   58MOL   H10341257   5.414   2.456   4.470  1.1091 -1.1201 -1.9815
   58MOL   H10441258   5.573   2.490   4.548  1.3673 -2.7063  5.2512
   58MOL   H10541259   5.003   2.629   4.864 -1.0005 -1.4180 -1.1880
   58MOL   H10641260   5.048   2.650   4.695  0.7621 -2.1043  0.0128
   58MOL   H10741261   5.137   2.741   4.800  0.6304  0.6010 -1.1380
   58MOL   H10841262   5.208   2.498   5.005  2.1292 -1.3195  0.9837
   58MOL   H10941263   5.352   2.463   4.914 -2.5209 -2.5279  1.1959
   58MOL   C11041264   5.143   2.593   5.918 -0.7453 -1.1989 -0.1775
   58MOL   C11141265   5.078   2.726   5.882 -0.2728  0.6476 -0.2083
   58MOL   C11241266   4.982   2.711   5.763  0.3183  0.5079  0.0223
   58MOL   C11341267   5.062   2.703   5.630  0.6387 -0.2732  0.6596
   58MOL   C11441268   4.981   2.763   5.516  0.0387 -0.0801  0.6733
   58MOL   C11541269   5.061   2.771   5.386  0.2245  0.1874 -0.0609
   58MOL   C11641270   4.977   2.798   5.263 -0.3146 -0.4174 -0.2144
   58MOL   C11741271   5.053   2.846   5.141  0.0233 -0.1634  0.5676
   58MOL   O11841272   5.148   2.747   5.114 -0.4881 -0.1105  0.2801
   58MOL   C11941273   5.250   2.777   5.027 -0.6367  0.3082  0.1145
   58MOL   O12041274   5.262   2.879   4.954  0.5317 -0.4764  0.2618
   58MOL   C12141275   5.352   2.662   5.001 -0.1224 -0.3908 -0.0065
   58MOL   C12241276   5.470   2.709   4.909 -0.7110  0.4129  0.3185
   58MOL   C12341277   5.413   2.608   5.138 -0.1054 -0.5303 -0.5956
   58MOL   H12441278   5.193   2.545   5.834  0.2222 -0.7354  0.1191
   58MOL   H12541279   5.226   2.621   5.984 -1.1964 -1.0815  0.3464
   58MOL   H12641280   5.079   2.532   5.982 -1.2967  2.0901  2.5130
   58MOL   H12741281   5.149   2.804   5.856 -0.7383  0.6788 -1.4012
   58MOL   H12841282   5.022   2.762   5.968 -1.4617  1.5958 -1.3689
   58MOL   H12941283   4.918   2.799   5.769 -0.2517  0.2558 -2.0089
   58MOL   H13041284   4.909   2.631   5.780  0.9531  0.0450  0.5832
   58MOL   H13141285   5.155   2.759   5.640 -0.8468  2.1269  1.3773
   58MOL   H13241286   5.099   2.602   5.609 -1.2493 -0.4701 -1.8556
   58MOL   H13341287   4.942   2.860   5.546  1.0531  1.2051 -2.0619
   58MOL   H13441288   4.887   2.709   5.501 -0.2595 -0.5089  3.7433
   58MOL   H13541289   5.125   2.856   5.408 -0.0662  0.2595  0.5296
   58MOL   H13641290   5.121   2.681   5.372  1.1961  1.1456 -2.3250
   58MOL   H13741291   4.898   2.869   5.289  0.2635 -0.8492  2.9243
   58MOL   H13841292   4.925   2.706   5.236 -0.1651 -1.0281  1.5362
   58MOL   H13941293   4.985   2.863   5.058 -0.8639  0.2923  1.3738
   58MOL   H14041294   5.112   2.936   5.157 -1.2074  0.7593 -0.0334
   58MOL   H14141295   5.439   2.743   4.811 -2.0366 -1.8336 -0.0661
   58MOL   H14241296   5.531   2.791   4.948  0.2113  0.0746 -0.3919
   58MOL   H14341297   5.528   2.620   4.888 -1.7957  0.1807 -1.7785
   58MOL   H14441298   5.472   2.520   5.113  0.6770  0.1904 -1.3580
   58MOL   H14541299   5.327   2.572   5.193 -0.6391  1.8984  0.2193
   58MOL   C14641300   6.588   2.983   5.143 -0.9371 -0.5065  0.1500
   58MOL   C14741301   6.516   3.108   5.082 -0.5990 -0.1753 -0.1417
   58MOL   C14841302   6.371   3.124   5.125  0.3046 -0.5270  0.2693
   58MOL   C14941303   6.291   2.996   5.119 -0.0051 -0.2673 -1.0481
   58MOL   C15041304   6.141   3.030   5.129  0.0428  0.0859  0.1423
   58MOL   C15141305   6.056   2.902   5.120 -0.4550  0.3444 -0.0930
   58MOL   C15241306   5.911   2.923   5.148 -0.1270  0.5551 -0.4374
   58MOL   C15341307   5.829   2.802   5.084 -0.6311 -0.0844 -0.2520
   58MOL   O15441308   5.710   2.795   5.149  0.5462 -0.4598 -0.5964
   58MOL   C15541309   5.643   2.677   5.156 -0.5200 -0.3455  0.8527
   58MOL   O15641310   5.694   2.576   5.108  0.2974 -0.2473 -0.0758
   58MOL   C15741311   5.505   2.687   5.231  0.0237  0.4581  1.1186
   58MOL   C15841312   5.464   2.829   5.255  0.0600 -0.0412 -0.0735
   58MOL   C15941313   5.507   2.608   5.364 -0.0255 -0.4525  0.0988
   58MOL   H16041314   6.571   2.980   5.250 -1.3888 -2.9056  0.0407
   58MOL   H16141315   6.695   2.986   5.120 -0.8950  1.5307  0.5478
   58MOL   H16241316   6.544   2.894   5.097 -1.0496 -0.5252  0.2945
   58MOL   H16341317   6.562   3.201   5.116  1.5741 -1.0802 -0.5464
   58MOL   H16441318   6.529   3.108   4.974 -1.6108  0.6558 -0.2825
   58MOL   H16541319   6.335   3.189   5.045 -1.4633 -1.1089  0.5729
   58MOL   H16641320   6.353   3.169   5.223  0.6905 -0.3504  0.2588
   58MOL   H16741321   6.298   2.944   5.024 -1.0373 -1.7853 -0.3181
   58MOL   H16841322   6.318   2.920   5.193  3.6114  1.4385 -0.5100
   58MOL   H16941323   6.104   3.086   5.043  1.3650 -1.5559 -1.5248
   58MOL   H17041324   6.132   3.083   5.223  1.5963  1.9498 -0.7392
   58MOL   H17141325   6.095   2.827   5.190  0.1457  0.2946 -0.4718
   58MOL   H17241326   6.065   2.856   5.021 -0.8931 -0.5226  0.2641
   58MOL   H17341327   5.900   2.930   5.256  0.8749 -1.7591 -0.1599
   58MOL   H17441328   5.870   3.019   5.118 -1.2840  0.1421 -0.2495
   58MOL   H17541329   5.823   2.819   4.976 -2.1683  0.1169 -0.1390
   58MOL   H17641330   5.891   2.716   5.107 -0.6952 -0.2490 -0.6870
   58MOL   H17741331   5.376   2.836   5.319  0.7975 -1.7377  1.1521
   58MOL   H17841332   5.449   2.895   5.170  0.8685 -0.0057 -0.1992
   58MOL   H17941333   5.540   2.887   5.308  0.3644 -0.4075 -0.1106
   58MOL   H18041334   5.518   2.505   5.330 -0.9578 -0.8945  1.1058
   58MOL   H18141335   5.405   2.611   5.402 -0.3663 -1.3206 -0.7375
   58MOL   C18241336   6.078   3.565   5.135 -0.3406 -0.5428  0.0445
   58MOL   C18341337   5.987   3.487   5.227 -0.2793 -0.0189  0.8291
   58MOL   C18441338   5.913   3.377   5.147  0.8746  0.5850 -0.1092
   58MOL   C18541339   5.797   3.322   5.234 -0.3327 -0.5713 -0.5155
   58MOL   C18641340   5.836   3.231   5.354  0.1376  0.5580  0.6478
   58MOL   C18741341   5.723   3.130   5.393 -0.4712 -0.0624  0.2346
   58MOL   C18841342   5.684   3.132   5.542 -0.2935 -0.3442  0.2384
   58MOL   C18941343   5.586   3.023   5.574 -0.2923  0.0550  0.0213
   58MOL   O19041344   5.634   2.897   5.529  0.0668  0.7179 -0.3481
   58MOL   C19141345   5.552   2.786   5.541  0.1157  0.0554 -0.7974
   58MOL   O19241346   5.439   2.793   5.592  0.5308 -0.0152  0.8655
   58MOL   C19341347   5.605   2.650   5.487 -1.1341 -0.1876 -0.1951
   58MOL   C19441348   5.751   2.650   5.452 -0.3121 -0.0593  0.2425
   58MOL   C19541349   5.570   2.535   5.590  0.3142 -0.0744 -0.0706
   58MOL   H19641350   6.141   3.646   5.173 -0.2094 -0.9449  0.6903
   58MOL   H19741351   6.155   3.499   5.096  1.2663  1.9535 -1.1545
   58MOL   H19841352   6.023   3.608   5.051  0.4150 -1.1987 -0.7991
   58MOL   H19941353   5.923   3.557   5.280 -0.9993 -0.1951  0.2068
   58MOL   H20041354   6.043   3.449   5.312 -3.1373 -3.6395  1.2468
   58MOL   H20141355   5.864   3.427   5.064  1.1660  1.0924  0.0230
   58MOL   H20241356   5.987   3.303   5.115 -1.2361 -1.1583 -1.0900
   58MOL   H20341357   5.728   3.398   5.270  0.3162  0.7145 -1.9346
   58MOL   H20441358   5.726   3.274   5.167  1.0379 -0.4557 -2.0912
   58MOL   H20541359   5.860   3.301   5.434  0.1009  0.5893  0.6316
   58MOL   H20641360   5.919   3.173   5.313 -1.2500 -1.7147  0.9622
   58MOL   H20741361   5.757   3.032   5.359  2.7522  1.2823 -0.4824
   58MOL   H20841362   5.632   3.145   5.335 -0.1162 -2.5515 -1.0271
   58MOL   H20941363   5.767   3.119   5.611 -1.1849  0.5465  1.5007
   58MOL   H21041364   5.643   3.231   5.561  3.9540  1.5262  0.0326
   58MOL   H21141365   5.492   3.042   5.523 -0.0036 -0.9734 -0.9025
   58MOL   H21241366   5.570   3.017   5.682 -0.1965 -0.8326 -0.0114
   58MOL   H21341367   5.774   2.743   5.401 -2.4895  1.1747  1.4162
   58MOL   H21441368   5.816   2.657   5.539  1.2352 -1.4471 -0.7718
   58MOL   H21541369   5.793   2.567   5.396  0.8720  1.5524 -1.3009
   58MOL   H21641370   5.467   2.551   5.622  0.2552 -1.6313  0.5853
   58MOL   H21741371   5.574   2.438   5.540  0.8774  0.4882 -1.1206
   58MOL   C21841372   5.070   1.530   5.803 -0.0655 -0.1076 -0.3962
   58MOL   C21941373   5.050   1.570   5.655 -0.3984 -0.4891 -0.0204
   58MOL   C22041374   5.161   1.674   5.625 -0.8947  0.2841 -0.3698
   58MOL   C22141375   5.163   1.813   5.692 -0.7606  0.2423 -0.1263
   58MOL   C22241376   5.267   1.912   5.655  0.2505  0.1367  0.2979
   58MOL   C22341377   5.269   2.040   5.738 -0.1052 -0.1825  0.8949
   58MOL   C22441378   5.382   2.131   5.698  0.0750  0.1319  0.5571
   58MOL   C22541379   5.389   2.238   5.800 -0.1693  0.0585  0.6170
   58MOL   O22641380   5.486   2.321   5.748 -0.0309 -0.6098  0.1614
   58MOL   C22741381   5.536   2.430   5.816  0.1594 -0.0529  0.5518
   58MOL   O22841382   5.508   2.453   5.937  0.1351 -0.1220 -0.2104
   58MOL   C22941383   5.639   2.509   5.733  1.0163 -0.3241  0.2145
   58MOL   C23041384   5.665   2.653   5.794 -0.0512  0.1917 -0.7937
   58MOL   C23141385   5.758   2.414   5.709  0.4423  0.8487  0.4629
   58MOL   H23241386   5.172   1.496   5.824 -0.3319 -0.2329  0.7182
   58MOL   H23341387   5.000   1.456   5.842  0.4706  0.2136  1.1844
   58MOL   H23441388   5.053   1.617   5.865  1.9973 -0.1917  0.3110
   58MOL   H23541389   4.949   1.607   5.641 -0.4117  0.0809  1.5272
   58MOL   H23641390   5.057   1.483   5.588 -0.7672  0.2659 -1.0550
   58MOL   H23741391   5.263   1.637   5.635 -0.8968  0.9113  2.1478
   58MOL   H23841392   5.135   1.693   5.520 -2.0987  4.2503  0.5762
   58MOL   H23941393   5.072   1.871   5.673 -0.9416  0.2359  0.6941
   58MOL   H24041394   5.166   1.790   5.799  1.1987  0.2861 -0.1478
   58MOL   H24141395   5.360   1.859   5.672  1.1864  1.5742 -0.2248
   58MOL   H24241396   5.261   1.936   5.549 -3.6864  0.3431  0.4886
   58MOL   H24341397   5.173   2.089   5.719  2.0822  3.3882 -1.4360
   58MOL   H24441398   5.271   2.018   5.845 -0.6315 -1.3420  0.6689
   58MOL   H24541399   5.369   2.162   5.594  1.5354  0.1073  0.3514
   58MOL   H24641400   5.477   2.079   5.703 -0.1440 -0.4113 -0.6532
   58MOL   H24741401   5.420   2.192   5.894 -1.1953 -0.7632  0.5717
   58MOL   H24841402   5.293   2.289   5.807 -1.8074 -2.8731  0.5159
   58MOL   H24941403   5.682   2.659   5.901 -1.3565  1.4938 -0.6431
   58MOL   H25041404   5.578   2.718   5.800  1.4268  2.0596  1.0468
   58MOL   H25141405   5.750   2.700   5.744  1.8601 -1.2275  1.0385
   58MOL   H25241406   5.726   2.310   5.702 -1.3155  1.1111  3.6841
   58MOL   H25341407   5.792   2.436   5.608  0.4620 -2.4844 -0.3372
   58MOL   C25441408   5.493   1.578   5.837 -0.4537 -0.4053 -0.2349
   58MOL   C25541409   5.463   1.573   5.987 -0.4243 -0.4703 -0.4429
   58MOL   C25641410   5.536   1.668   6.070  0.5521  0.9002 -0.1332
   58MOL   C25741411   5.533   1.808   6.014 -0.0753 -0.5798  0.3811
   58MOL   C25841412   5.601   1.900   6.123  0.4901 -0.4204 -0.5157
   58MOL   C25941413   5.612   2.048   6.085  0.0679  0.6651  0.3557
   58MOL   C26041414   5.703   2.133   6.167 -0.2524 -0.7195 -0.2289
   58MOL   C26141415   5.705   2.277   6.120  0.1612 -0.1938  0.1289
   58MOL   O26241416   5.756   2.296   5.988  0.5204  0.0306  0.2737
   58MOL   C26341417   5.843   2.400   5.954 -0.3879  0.8069 -0.7683
   58MOL   O26441418   5.900   2.476   6.036  0.1284 -0.6940 -0.1811
   58MOL   C26541419   5.886   2.397   5.808  0.1077  0.8653  0.0701
   58MOL   C26641420   5.968   2.524   5.782  0.5560  0.6326 -0.3909
   58MOL   C26741421   5.972   2.265   5.787  0.5108  0.0788  0.2805
   58MOL   H26841422   5.602   1.583   5.837 -0.4483  0.4106  2.4591
   58MOL   H26941423   5.469   1.484   5.788  0.6774 -1.5846  1.4558
   58MOL   H27041424   5.444   1.665   5.791  1.7435  2.5908  2.8775
   58MOL   H27141425   5.355   1.585   5.990 -0.3618 -0.1412  0.7766
   58MOL   H27241426   5.480   1.472   6.025 -2.6589 -0.3040  1.0797
   58MOL   H27341427   5.636   1.626   6.071  0.0156 -0.4254 -0.4232
   58MOL   H27441428   5.488   1.668   6.168 -0.0095  1.7549 -0.4023
   58MOL   H27541429   5.433   1.839   5.985 -0.2351 -1.5136 -0.0887
   58MOL   H27641430   5.591   1.811   5.922 -2.3368  0.4983 -1.0524
   58MOL   H27741431   5.533   1.899   6.208 -0.2955  1.0372 -1.1224
   58MOL   H27841432   5.695   1.856   6.159 -0.3911 -0.3773  1.9104
   58MOL   H27941433   5.510   2.083   6.070  0.8510  1.4767 -3.6308
   58MOL   H28041434   5.653   2.045   5.984 -0.6173  1.0592  0.0626
   58MOL   H28141435   5.677   2.131   6.273 -0.9144  0.3046 -0.3734
   58MOL   H28241436   5.802   2.087   6.159 -0.5361 -1.1856 -1.1560
   58MOL   H28341437   5.611   2.333   6.127 -1.4594 -2.6349 -1.2379
   58MOL   H28441438   5.784   2.319   6.182  0.4737 -2.3772  1.2392
   58MOL   H28541439   6.071   2.491   5.801  0.1537 -0.9702 -0.9663
   58MOL   H28641440   5.974   2.567   5.682  2.4600  0.2209 -0.4825
   58MOL   H28741441   5.933   2.600   5.851 -0.2988  0.9413 -1.1678
   58MOL   H28841442   5.919   2.177   5.823  0.9800 -0.1411  0.4292
   58MOL   H28941443   6.060   2.278   5.850 -1.3486  1.7204  2.6086
   58MOL   C29041444   5.444   1.529   5.005  0.0907  0.2382  0.1457
   58MOL   C29141445   5.340   1.552   5.121  0.0653  0.6710  0.6571
   58MOL   C29241446   5.389   1.612   5.249 -0.1103 -0.3641 -0.1287
   58MOL   C29341447   5.424   1.762   5.242  0.1053  0.3476  0.6440
   58MOL   C29441448   5.481   1.827   5.367 -0.6950  0.6206  0.1954
   58MOL   C29541449   5.549   1.966   5.345 -0.6392 -0.2367 -0.2891
   58MOL   C29641450   5.658   1.990   5.454  0.5911 -0.3879 -0.0767
   58MOL   C29741451   5.729   2.125   5.438 -0.1456 -0.0146 -0.0557
   58MOL   O29841452   5.828   2.133   5.533 -0.0012  0.5395 -0.0578
   58MOL   C29941453   5.930   2.227   5.523 -0.6105  0.5364 -0.1885
   58MOL   O30041454   5.946   2.297   5.423 -0.4464 -0.0904  0.4220
   58MOL   C30141455   6.028   2.216   5.647  0.2603  0.6200  0.0994
   58MOL   C30241456   6.150   2.298   5.615 -0.7822  0.7300  0.1620
   58MOL   C30341457   6.070   2.064   5.665 -0.3223  0.3133 -0.2169
   58MOL   H30441458   5.542   1.508   5.047  0.0127  0.9897  0.7287
   58MOL   H30541459   5.460   1.618   4.944 -0.5159  0.2207 -0.0444
   58MOL   H30641460   5.401   1.447   4.948 -1.5879  1.7403 -0.7928
   58MOL   H30741461   5.292   1.459   5.151  2.4315 -1.1783 -1.1148
   58MOL   H30841462   5.261   1.616   5.081 -1.9737 -1.7455  0.6717
   58MOL   H30941463   5.482   1.564   5.278 -0.8144 -0.8369  1.4059
   58MOL   H31041464   5.321   1.596   5.333 -0.8593  2.7025 -0.0765
   58MOL   H31141465   5.489   1.773   5.156  0.3797  0.9346  0.9186
   58MOL   H31241466   5.327   1.812   5.233  1.6799  2.9925 -2.5031
   58MOL   H31341467   5.396   1.842   5.433  0.5649  0.3529  1.9312
   58MOL   H31441468   5.545   1.759   5.422  0.4756 -0.3709 -2.3076
   58MOL   H31541469   5.485   2.055   5.346 -0.3333 -0.0069 -1.0401
   58MOL   H31641470   5.594   1.960   5.246  0.4903 -0.1400  0.2094
   58MOL   H31741471   5.734   1.913   5.453 -0.5531 -1.5115 -1.4162
   58MOL   H31841472   5.621   1.992   5.557  0.8060  0.7453 -0.0074
   58MOL   H31941473   5.656   2.206   5.444 -1.5096 -1.3433  2.0361
   58MOL   H32041474   5.762   2.144   5.336  0.5605 -0.9165 -0.0070
   58MOL   H32141475   6.197   2.254   5.527 -1.0533  1.9525 -0.6100
   58MOL   H32241476   6.228   2.290   5.690  1.0560 -0.6375 -1.8469
   58MOL   H32341477   6.137   2.400   5.579 -0.0348  0.6535 -0.3454
   58MOL   H32441478   6.113   2.042   5.763  1.3638 -1.1884 -1.2556
   58MOL   H32541479   5.982   1.999   5.660 -0.5756  0.7653 -1.9828
   58MOL   C32641480   5.934   1.278   4.898  0.7185  0.0246 -0.6849
   58MOL   C32741481   5.938   1.420   4.958  0.0580 -0.7877 -0.2476
   58MOL   C32841482   5.848   1.406   5.082  0.1311  0.3225 -0.6095
   58MOL   C32941483   5.875   1.512   5.180  0.4940  0.3045  0.0920
   58MOL   C33041484   5.816   1.644   5.128 -0.1965 -0.3301 -0.8994
   58MOL   C33141485   5.860   1.757   5.218 -0.3034  0.1823 -0.1756
   58MOL   C33241486   6.007   1.805   5.190 -0.0682  0.3240 -0.2820
   58MOL   C33341487   6.022   1.949   5.245  0.0751  0.4297  0.8730
   58MOL   O33441488   6.058   1.939   5.383 -0.4438  0.0664  0.8830
   58MOL   C33541489   6.164   2.009   5.425 -0.0471  0.0008 -0.1228
   58MOL   O33641490   6.236   2.077   5.356  0.0862  0.6116  0.2879
   58MOL   C33741491   6.184   1.989   5.581  0.6597  0.2819 -0.0846
   58MOL   C33841492   6.329   2.035   5.607 -0.3356  0.2331 -0.1343
   58MOL   C33941493   6.160   1.835   5.633 -0.2874  0.5416  0.8579
   58MOL   H34041494   5.989   1.217   4.969 -0.0569  1.3008  1.0602
   58MOL   H34141495   5.989   1.277   4.804  0.2361 -3.5145 -0.9628
   58MOL   H34241496   5.831   1.247   4.882  1.0459 -1.1845 -0.4945
   58MOL   H34341497   5.912   1.506   4.895  0.5205 -0.3374  0.1665
   58MOL   H34441498   6.044   1.429   4.982 -0.3192 -1.6613  1.8429
   58MOL   H34541499   5.861   1.312   5.136 -1.2636  0.5297  0.1139
   58MOL   H34641500   5.745   1.416   5.046 -0.2640 -1.8167 -0.1437
   58MOL   H34741501   5.984   1.513   5.187  0.4338 -0.6426  1.4354
   58MOL   H34841502   5.831   1.483   5.276 -0.5348  0.1956 -0.4096
   58MOL   H34941503   5.847   1.671   5.027 -0.3069  0.2964 -0.7659
   58MOL   H35041504   5.707   1.642   5.137 -0.2076  1.1316 -0.6495
   58MOL   H35141505   5.793   1.841   5.201  0.9208  0.7558 -2.4128
   58MOL   H35241506   5.845   1.725   5.321 -1.1104  1.4251  0.1022
   58MOL   H35341507   6.029   1.815   5.084 -0.8781 -0.0135 -0.4814
   58MOL   H35441508   6.090   1.744   5.225 -0.1464  1.3153  1.7141
   58MOL   H35541509   6.113   1.979   5.193 -0.2121 -1.1907 -0.5973
   58MOL   H35641510   5.934   2.011   5.228  0.7833  0.6582 -2.1720
   58MOL   H35741511   6.355   2.138   5.584  2.7700 -0.7949 -1.5761
   58MOL   H35841512   6.351   2.021   5.713 -0.8360 -1.8492 -0.2850
   58MOL   H35941513   6.397   1.971   5.550 -0.2739 -0.9339  1.2089
   58MOL   H36041514   6.148   1.839   5.742  2.2984  0.4024  1.1662
   58MOL   H36141515   6.066   1.805   5.587  1.0227 -0.6589 -1.0809
   58MOL   C36241516   6.751   1.172   6.414 -0.4615  0.9291  0.1271
   58MOL   C36341517   6.692   1.310   6.379  0.1263  0.9984  0.1574
   58MOL   C36441518   6.570   1.293   6.290  0.1111 -0.3896  0.5880
   58MOL   C36541519   6.530   1.429   6.236  0.2700 -0.9948  0.0953
   58MOL   C36641520   6.421   1.415   6.130 -0.4151  0.3542 -0.0533
   58MOL   C36741521   6.377   1.556   6.066 -0.6647  0.5254  0.2286
   58MOL   C36841522   6.487   1.613   5.983 -0.1086 -0.2913  0.5736
   58MOL   C36941523   6.450   1.755   5.931 -0.0387 -0.3257  0.0427
   58MOL   O37041524   6.346   1.757   5.833 -0.1221  0.0128  0.2771
   58MOL   C37141525   6.387   1.742   5.700  0.9828  0.0647  0.5289
   58MOL   O37241526   6.504   1.750   5.659  0.1113 -0.3820 -0.1595
   58MOL   C37341527   6.264   1.719   5.608  0.8483  0.2449 -0.1497
   58MOL   C37441528   6.309   1.704   5.461 -0.4012  0.1058  0.2618
   58MOL   C37541529   6.211   1.575   5.654 -0.2806  0.6596 -0.1437
   58MOL   H37641530   6.678   1.096   6.443  0.6179 -0.1779  0.0053
   58MOL   H37741531   6.805   1.125   6.331 -0.2434  0.1774  0.6868
   58MOL   H37841532   6.827   1.184   6.491 -0.0464 -0.4826 -0.0398
   58MOL   H37941533   6.773   1.360   6.325  2.5461 -2.4551  0.4294
   58MOL   H38041534   6.663   1.382   6.457  0.3034  0.3118  0.8671
   58MOL   H38141535   6.483   1.244   6.334  0.3445 -0.3189  1.1263
   58MOL   H38241536   6.591   1.216   6.215  1.9269  0.5344  0.1203
   58MOL   H38341537   6.612   1.481   6.187  2.3885 -2.1253  2.3207
   58MOL   H38441538   6.495   1.489   6.320  0.6100 -0.0943 -0.3999
   58MOL   H38541539   6.454   1.345   6.052 -0.0695 -0.5286  0.8716
   58MOL   H38641540   6.326   1.394   6.178 -1.3310  0.5918 -1.7071
   58MOL   H38741541   6.360   1.623   6.151  0.3858 -0.0080  0.8595
   58MOL   H38841542   6.286   1.549   6.007  0.3872  0.9105 -1.4569
   58MOL   H38941543   6.495   1.543   5.901 -1.0253  1.6791 -1.2555
   58MOL   H39041544   6.582   1.619   6.036 -0.3217 -0.7205  1.0125
   58MOL   H39141545   6.428   1.824   6.012  3.2388  0.2018  0.5562
   58MOL   H39241546   6.541   1.799   5.888 -1.3783  3.1923  0.6969
   58MOL   H39341547   6.382   1.775   5.421  1.8384 -2.5101 -0.4719
   58MOL   H39441548   6.344   1.605   5.429 -0.4192  1.1499 -3.2542
   58MOL   H39541549   6.228   1.711   5.389 -2.0380 -1.3532  1.9384
   58MOL   H39641550   6.277   1.498   5.616  0.6175  1.4670 -0.2475
   58MOL   H39741551   6.232   1.568   5.760  2.6073 -0.0107 -0.7227
   58MOL   C39841552   6.262   1.340   6.579  0.0550 -0.1226 -0.2563
   58MOL   C39941553   6.207   1.345   6.438  0.3652 -0.1813  0.6720
   58MOL   C40041554   6.056   1.339   6.436  0.3040 -0.3539  0.2109
   58MOL   C40141555   6.000   1.349   6.294 -0.5228  0.1291  0.1417
   58MOL   C40241556   6.003   1.492   6.235  1.0326 -0.0230 -0.3076
   58MOL   C40341557   5.927   1.516   6.105 -0.9500  0.0265 -1.2182
   58MOL   C40441558   5.964   1.653   6.046 -0.7575 -0.0912  0.1350
   58MOL   C40541559   5.906   1.677   5.906 -0.0621 -0.2675  0.4784
   58MOL   O40641560   5.972   1.593   5.818  0.2376  0.1777 -0.2324
   58MOL   C40741561   5.959   1.590   5.688  0.2600 -0.4920 -0.5827
   58MOL   O40841562   5.871   1.652   5.626 -0.2543  0.1728  0.0595
   58MOL   C40941563   6.065   1.507   5.618 -0.0605 -0.4671  0.2664
   58MOL   C41041564   6.043   1.507   5.466  0.2718 -0.0260 -0.2272
   58MOL   C41141565   6.061   1.366   5.682  0.2307 -0.0242  0.1567
   58MOL   H41241566   6.273   1.437   6.629 -0.6413  0.1749 -0.6679
   58MOL   H41341567   6.363   1.300   6.574  0.0844 -0.0244 -0.4602
   58MOL   H41441568   6.204   1.272   6.641  0.7014  0.4310  0.9761
   58MOL   H41541569   6.246   1.258   6.384  0.0210  1.0199 -1.5930
   58MOL   H41641570   6.237   1.437   6.387 -1.7268  0.9031  1.2989
   58MOL   H41741571   6.028   1.240   6.472 -1.3934  0.2139  0.5050
   58MOL   H41841572   6.006   1.411   6.500  0.3281 -0.6666  0.5855
   58MOL   H41941573   5.895   1.318   6.299 -0.9719  1.6967  1.1343
   58MOL   H42041574   6.063   1.280   6.240 -1.3356  0.2765 -1.0175
   58MOL   H42141575   5.946   1.543   6.312  1.1993 -0.2141 -0.0564
   58MOL   H42241576   6.106   1.527   6.232  0.5865  1.3867  0.7802
   58MOL   H42341577   5.820   1.506   6.122 -0.4703 -1.7565  0.9711
   58MOL   H42441578   5.962   1.440   6.035 -1.6939 -2.0365  0.6177
   58MOL   H42541579   5.920   1.729   6.110 -1.7593  1.4822 -2.3401
   58MOL   H42641580   6.072   1.665   6.042 -1.0517  2.3074 -1.9646
   58MOL   H42741581   5.797   1.666   5.907 -0.1882  0.4963 -1.4838
   58MOL   H42841582   5.914   1.783   5.881 -0.5511 -0.1772  0.7099
   58MOL   H42941583   5.956   1.447   5.441  1.2285 -2.4480  2.0421
   58MOL   H43041584   6.128   1.457   5.420 -0.0669 -1.7565  1.0110
   58MOL   H43141585   6.025   1.604   5.419  1.2052  0.3166  0.1022
   58MOL   H43241586   6.080   1.378   5.789 -0.7801  0.2211  0.3084
   58MOL   H43341587   6.153   1.314   5.655  0.0799 -0.4154  0.3925
   58MOL   C43441588   5.233   1.136   4.769 -0.2429  0.0397 -0.2680
   58MOL   C43541589   5.346   1.131   4.877  0.1590 -0.7219 -0.0761
   58MOL   C43641590   5.415   0.999   4.876 -0.1772  0.3233  0.1782
   58MOL   C43741591   5.547   0.996   4.950 -0.2295  0.2928  0.6587
   58MOL   C43841592   5.542   1.046   5.089 -0.0878  0.2211 -0.5091
   58MOL   C43941593   5.687   1.059   5.151  0.3709 -0.1891 -0.7132
   58MOL   C44041594   5.686   1.100   5.300 -0.2827 -0.5015  0.0836
   58MOL   C44141595   5.825   1.082   5.354  0.2918 -0.2187 -0.8251
   58MOL   O44241596   5.841   1.156   5.476  0.1087 -0.1174 -0.3012
   58MOL   C44341597   5.956   1.192   5.531  0.1934  0.3354  0.1710
   58MOL   O44441598   6.063   1.160   5.480  0.2289 -0.1651 -0.3585
   58MOL   C44541599   5.941   1.262   5.661 -0.1529 -0.7170  0.5954
   58MOL   C44641600   5.802   1.327   5.668 -0.1023  0.4006  0.5616
   58MOL   C44741601   5.968   1.160   5.776 -1.1283  0.1796 -0.0204
   58MOL   H44841602   5.172   1.045   4.779  1.1950 -0.7006  2.3175
   58MOL   H44941603   5.280   1.144   4.671 -0.4580 -0.9549 -0.4659
   58MOL   H45041604   5.157   1.212   4.790  0.7491  0.9121  0.1681
   58MOL   H45141605   5.317   1.153   4.979 -1.6120 -0.8596 -0.5420
   58MOL   H45241606   5.420   1.207   4.849 -0.3208 -0.6828 -1.2480
   58MOL   H45341607   5.434   0.966   4.774 -1.4860 -0.0248  0.0308
   58MOL   H45441608   5.345   0.924   4.914 -0.3077  0.2858 -0.1300
   58MOL   H45541609   5.624   1.048   4.892  0.7415  0.3073  1.9407
   58MOL   H45641610   5.585   0.893   4.949  1.5828  0.9416 -0.1035
   58MOL   H45741611   5.485   1.139   5.096 -1.3217 -0.6757  1.7825
   58MOL   H45841612   5.476   0.977   5.139 -1.7250  0.9733 -1.5884
   58MOL   H45941613   5.737   1.134   5.089 -2.0526  1.2379 -1.0170
   58MOL   H46041614   5.735   0.961   5.154  1.3975  0.3284  0.0322
   58MOL   H46141615   5.669   1.207   5.313 -2.3577 -0.6347 -1.2206
   58MOL   H46241616   5.618   1.039   5.359 -0.3493 -1.6821 -1.1756
   58MOL   H46341617   5.893   1.126   5.281 -1.7131  2.0777 -1.3410
   58MOL   H46441618   5.861   0.981   5.373  1.3804 -0.0906 -2.1262
   58MOL   H46541619   5.795   1.395   5.753  2.5935 -1.1599  2.1110
   58MOL   H46641620   5.793   1.396   5.584  0.5205 -0.7938 -0.5093
   58MOL   H46741621   5.715   1.262   5.680  0.0272  0.0537 -0.3362
   58MOL   H46841622   6.058   1.103   5.750  0.5815  2.2863  1.1185
   58MOL   H46941623   5.994   1.207   5.871 -2.0001  0.4022  0.1112
   58MOL   C47041624   5.238   1.136   5.324 -0.0215  0.0636  0.0066
   58MOL   C47141625   5.352   1.220   5.393  0.4685  0.4292 -0.2036
   58MOL   C47241626   5.370   1.163   5.535  0.3179  0.1839  0.5994
   58MOL   C47341627   5.273   1.223   5.641 -0.0667 -0.1868  0.5279
   58MOL   C47441628   5.283   1.136   5.765  0.3599  0.7457 -0.4218
   58MOL   C47541629   5.411   1.161   5.841 -0.1143  0.2056 -0.2711
   58MOL   C47641630   5.413   1.076   5.970 -0.5142  0.2580  0.3346
   58MOL   C47741631   5.544   1.095   6.049  0.2928  0.1641  0.0227
   58MOL   O47841632   5.643   1.056   5.955  0.3338  0.2793 -0.1622
   58MOL   C47941633   5.750   1.132   5.921 -0.6692 -0.8559  0.0007
   58MOL   O48041634   5.767   1.248   5.963 -0.7673 -0.0474 -0.7645
   58MOL   C48141635   5.859   1.063   5.835  0.1585 -0.3047 -0.4673
   58MOL   C48241636   5.783   0.997   5.716 -0.0451  0.2126 -0.1729
   58MOL   C48341637   5.935   0.945   5.915  0.0100 -0.0575 -0.1380
   58MOL   H48441638   5.227   1.038   5.371  1.3061  0.3504  0.9367
   58MOL   H48541639   5.250   1.119   5.217  0.0665  0.8450 -0.1123
   58MOL   H48641640   5.151   1.202   5.328 -0.4174 -0.5536  2.1002
   58MOL   H48741641   5.445   1.222   5.336  0.3010 -1.3961 -0.5715
   58MOL   H48841642   5.316   1.320   5.413 -1.5716 -0.3619  0.1835
   58MOL   H48941643   5.363   1.054   5.534 -1.0619  0.2529  1.6160
   58MOL   H49041644   5.473   1.190   5.561  0.1731 -1.7290  3.3804
   58MOL   H49141645   5.308   1.323   5.667 -1.3138 -0.1506  2.1372
   58MOL   H49241646   5.169   1.229   5.609 -0.1763 -1.8076  0.5501
   58MOL   H49341647   5.200   1.155   5.833  0.5957 -0.5997  0.2422
   58MOL   H49441648   5.260   1.031   5.750 -2.1101  1.3388 -1.0119
   58MOL   H49541649   5.489   1.127   5.774 -0.1415 -2.7289  1.1187
   58MOL   H49641650   5.428   1.264   5.871  0.8945  0.1020 -0.4948
   58MOL   H49741651   5.329   1.109   6.031  0.0647 -0.8241  1.7376
   58MOL   H49841652   5.402   0.971   5.945  1.3715  0.0762  0.2493
   58MOL   H49941653   5.545   1.036   6.140  0.3726  0.9939  0.5701
   58MOL   H50041654   5.574   1.198   6.072 -0.3576  0.6697 -1.3303
   58MOL   H50141655   5.709   1.060   5.668  0.3926  0.7139 -0.1924
   58MOL   H50241656   5.724   0.907   5.733  0.8293 -0.5321 -1.0665
   58MOL   H50341657   5.850   0.966   5.636  1.9121 -1.0673  1.8988
   58MOL   H50441658   5.860   0.867   5.926  1.4916 -1.4200  0.6040
   58MOL   H50541659   5.993   0.889   5.842 -1.3815 -0.5871 -0.8351
   58MOL   C50641660   6.977   0.724   5.654 -0.1556 -0.4133  0.1213
   58MOL   C50741661   6.860   0.781   5.724  0.0054  0.0242 -0.2656
   58MOL   C50841662   6.904   0.834   5.864  0.0061 -0.1346  0.4693
   58MOL   C50941663   6.824   0.947   5.932 -0.2015  0.0640 -0.3892
   58MOL   C51041664   6.688   0.896   5.968 -0.1513  0.5154  0.7735
   58MOL   C51141665   6.601   0.996   6.040 -0.0691 -0.5070  0.0780
   58MOL   C51241666   6.456   0.962   6.047  0.0020 -0.5472 -0.2882
   58MOL   C51341667   6.375   1.009   5.927 -0.5000 -0.8151  0.1081
   58MOL   O51441668   6.239   0.967   5.939 -0.3389  0.2014  0.3437
   58MOL   C51541669   6.149   1.037   6.020 -0.0563 -0.6281  0.0369
   58MOL   O51641670   6.169   1.150   6.069  0.2146  0.1308  0.1489
   58MOL   C51741671   6.015   0.958   6.047  0.2074  0.5501 -0.1012
   58MOL   C51841672   5.935   1.023   6.161  0.4936  0.0151 -0.5028
   58MOL   C51941673   6.045   0.808   6.087 -0.6389 -0.4520 -0.3489
   58MOL   H52041674   7.050   0.804   5.637 -0.5499  0.0332  0.5177
   58MOL   H52141675   6.953   0.685   5.556  2.8618 -0.9784 -0.4521
   58MOL   H52241676   7.019   0.644   5.714  0.2290 -0.5526 -0.3323
   58MOL   H52341677   6.773   0.716   5.733  0.1372 -0.2433 -0.9386
   58MOL   H52441678   6.820   0.869   5.676  0.1330 -1.3422 -2.9403
   58MOL   H52541679   6.909   0.744   5.924 -0.4371 -1.2938 -1.2121
   58MOL   H52641680   7.007   0.868   5.856 -0.3336  0.4979 -1.5633
   58MOL   H52741681   6.876   0.966   6.026  1.1934 -0.6802 -0.9923
   58MOL   H52841682   6.827   1.046   5.886  0.2177  0.5133  0.5902
   58MOL   H52941683   6.635   0.873   5.876  1.0937  0.0533  0.1584
   58MOL   H53041684   6.688   0.802   6.023 -2.7551 -0.0254 -0.0872
   58MOL   H53141685   6.617   1.089   5.985 -0.5484 -0.0442  0.7149
   58MOL   H53241686   6.641   1.011   6.140  2.9094  0.7337 -1.2325
   58MOL   H53341687   6.417   1.016   6.133 -0.3763 -0.9723 -0.1945
   58MOL   H53441688   6.448   0.854   6.043 -0.2625 -0.4688 -4.6945
   58MOL   H53541689   6.419   0.974   5.834 -1.8211 -1.3957 -0.2983
   58MOL   H53641690   6.385   1.118   5.929  1.2190 -0.9535  3.5078
   58MOL   H53741691   5.917   1.129   6.149  0.8924  0.0789 -0.5229
   58MOL   H53841692   5.996   1.017   6.251  1.1577 -0.0787 -0.9598
   58MOL   H53941693   5.844   0.967   6.185 -1.0570  1.4352 -2.9085
   58MOL   H54041694   5.969   0.740   6.048 -2.3732  1.9866 -1.3909
   58MOL   H54141695   6.116   0.778   6.011  0.0830  0.4523 -0.0545
   58MOL   C54241696   7.207   0.420   5.865 -0.2711 -0.3997  0.5837
   58MOL   C54341697   7.078   0.340   5.886  0.0601 -1.0168  0.4545
   58MOL   C54441698   6.950   0.419   5.885 -0.3170 -0.2266 -0.2889
   58MOL   C54541699   6.825   0.363   5.957  0.0610 -0.4762 -0.0939
   58MOL   C54641700   6.711   0.471   5.933  0.7750  0.3185 -0.1102
   58MOL   C54741701   6.579   0.432   6.011 -0.4826 -0.4519  0.4635
   58MOL   C54841702   6.489   0.554   6.036 -0.3888  0.5348 -0.5416
   58MOL   C54941703   6.343   0.508   6.070 -0.4131 -0.0899 -1.0957
   58MOL   O55041704   6.275   0.626   6.108  0.1928  0.2990  0.2886
   58MOL   C55141705   6.162   0.618   6.190  0.0504 -0.1148 -0.2112
   58MOL   O55241706   6.108   0.513   6.241 -0.0026  0.0384 -0.1660
   58MOL   C55341707   6.099   0.762   6.220  0.1837  0.1969 -0.4827
   58MOL   C55441708   5.973   0.740   6.311 -0.0467 -0.0438  0.3826
   58MOL   C55541709   6.214   0.850   6.280 -0.1323  0.6141 -0.4834
   58MOL   H55641710   7.297   0.364   5.889 -1.4202 -3.0171 -0.9077
   58MOL   H55741711   7.212   0.508   5.929  1.0468 -0.2538  0.2933
   58MOL   H55841712   7.214   0.462   5.764 -1.5245 -1.5952 -0.0214
   58MOL   H55941713   7.079   0.264   5.808 -2.6543  0.1047 -0.7305
   58MOL   H56041714   7.088   0.295   5.985 -0.5490  1.0505  1.4741
   58MOL   H56141715   6.920   0.434   5.781  1.1070  0.2763 -0.6477
   58MOL   H56241716   6.973   0.510   5.942 -2.4672 -0.0620  0.3743
   58MOL   H56341717   6.799   0.265   5.918 -2.3136  0.2654 -0.4516
   58MOL   H56441718   6.836   0.356   6.066  1.0213  1.4030 -0.0396
   58MOL   H56541719   6.701   0.498   5.827  0.3552  0.9681  0.0877
   58MOL   H56641720   6.746   0.570   5.963 -0.8110  0.6483  0.6817
   58MOL   H56741721   6.530   0.344   5.970 -1.5356 -0.6684  2.1598
   58MOL   H56841722   6.615   0.402   6.109 -0.4846 -2.0785 -0.0199
   58MOL   H56941723   6.530   0.625   6.107 -1.4467  0.5062  0.1004
   58MOL   H57041724   6.478   0.615   5.946 -1.2982  0.3441 -0.5620
   58MOL   H57141725   6.339   0.443   6.157  1.2678 -0.6263 -1.3833
   58MOL   H57241726   6.285   0.474   5.985  2.1837 -0.8622 -2.6062
   58MOL   H57341727   5.929   0.826   6.362 -0.1962  0.3995 -0.4970
   58MOL   H57441728   5.983   0.659   6.384 -2.3286 -1.6648 -0.9925
   58MOL   H57541729   5.880   0.720   6.257 -0.4826 -0.4732  1.2679
   58MOL   H57641730   6.187   0.956   6.277  0.6168  0.7877 -4.9827
   58MOL   H57741731   6.299   0.837   6.213  1.3943  0.4565  1.4718
   58MOL   C57841732   6.353   1.402   7.027 -0.1778 -0.0479  0.0210
   58MOL   C57941733   6.260   1.286   6.996 -0.1801 -0.5712  0.0863
   58MOL   C58041734   6.184   1.219   7.111 -0.3716 -0.1129 -0.4022
   58MOL   C58141735   6.052   1.153   7.056 -0.1047 -0.1356 -0.2495
   58MOL   C58241736   6.087   1.053   6.951  0.5263 -0.4055 -0.5163
   58MOL   C58341737   5.979   0.953   6.910  0.0337  0.3036 -0.1887
   58MOL   C58441738   6.020   0.853   6.799  0.1093 -0.2708 -1.0880
   58MOL   C58541739   5.990   0.888   6.652 -0.2132 -0.6772 -0.3929
   58MOL   O58641740   6.092   0.837   6.563  0.7650 -0.0570 -0.3787
   58MOL   C58741741   6.197   0.911   6.532 -0.2839 -0.0193  0.2232
   58MOL   O58841742   6.218   1.023   6.584 -0.1613  0.0514 -0.4298
   58MOL   C58941743   6.282   0.851   6.420 -0.3541 -0.6785 -0.3936
   58MOL   C59041744   6.405   0.945   6.401 -0.7234 -1.1518  0.1440
   58MOL   C59141745   6.324   0.701   6.455  0.3595  0.3167  0.7395
   58MOL   H59241746   6.422   1.380   7.109 -1.5137  1.2872  1.5176
   58MOL   H59341747   6.295   1.481   7.074  2.0034  0.1108  2.5854
   58MOL   H59441748   6.394   1.446   6.936  1.7241 -1.6753  0.0453
   58MOL   H59541749   6.310   1.211   6.934  0.3271 -0.5706  0.4947
   58MOL   H59641750   6.183   1.322   6.927  0.6053  0.0779 -0.4645
   58MOL   H59741751   6.156   1.284   7.194  0.7213 -0.1961  0.0368
   58MOL   H59841752   6.248   1.144   7.158 -0.7847 -0.7902 -0.9048
   58MOL   H59941753   5.991   1.230   7.009 -0.6934 -0.5548 -0.1894
   58MOL   H60041754   5.986   1.117   7.136  0.4926 -1.0960 -0.1837
   58MOL   H60141755   6.155   0.984   7.001 -0.3968  0.4461  1.9707
   58MOL   H60241756   6.131   1.098   6.862 -2.2348  1.7483 -0.8686
   58MOL   H60341757   5.892   1.007   6.871  0.0411  0.0781 -0.5227
   58MOL   H60441758   5.939   0.901   6.997 -0.4781 -0.0756 -0.6406
   58MOL   H60541759   5.973   0.759   6.825  0.9971 -0.0692  1.4141
   58MOL   H60641760   6.127   0.837   6.810  0.3901  1.8074 -0.5855
   58MOL   H60741761   5.896   0.840   6.622 -0.5931  1.4993 -2.8456
   58MOL   H60841762   5.982   0.996   6.642 -2.0033 -0.5896  1.5568
   58MOL   H60941763   6.480   0.907   6.331 -0.3277  1.4350 -0.8922
   58MOL   H61041764   6.380   1.045   6.366  2.1211 -0.3142  0.3580
   58MOL   H61141765   6.449   0.968   6.498  0.6377  0.7190 -0.8763
   58MOL   H61241766   6.360   0.647   6.367 -0.2574  0.0633  0.6415
   58MOL   H61341767   6.233   0.656   6.494  0.3717  1.1558  1.7717
   58MOL   C61441768   6.850   1.420   7.142 -0.7858  0.1314 -0.0550
   58MOL   C61541769   6.715   1.418   7.059  0.0957 -0.4879 -0.1739
   58MOL   C61641770   6.716   1.343   6.926 -0.1843  0.5473  0.1482
   58MOL   C61741771   6.758   1.197   6.943 -0.9621  0.2935  0.1088
   58MOL   C61841772   6.752   1.120   6.807 -0.3598 -0.3539  0.2842
   58MOL   C61941773   6.617   1.062   6.756  0.4149 -0.4773  0.1882
   58MOL   C62041774   6.534   0.990   6.869 -0.2447  0.2095 -0.1776
   58MOL   C62141775   6.400   0.938   6.815  0.6038 -0.3112 -0.5358
   58MOL   O62241776   6.434   0.852   6.707  0.7061 -0.5260 -0.5084
   58MOL   C62341777   6.405   0.722   6.698 -0.7931 -0.8101  0.3003
   58MOL   O62441778   6.364   0.657   6.795  0.0970 -0.3849  0.1087
   58MOL   C62541779   6.430   0.657   6.554  0.3170  0.1417  0.3889
   58MOL   C62641780   6.416   0.499   6.569 -0.1852 -0.1385 -0.2295
   58MOL   C62741781   6.576   0.690   6.500 -0.7331 -0.8932  0.1997
   58MOL   H62841782   6.922   1.471   7.078  0.0224  1.2447  1.6980
   58MOL   H62941783   6.885   1.323   7.177 -0.0422 -0.2738 -1.8598
   58MOL   H63041784   6.840   1.487   7.228 -0.1360  1.1163 -0.7285
   58MOL   H63141785   6.641   1.371   7.123 -1.8193  0.5884 -1.5445
   58MOL   H63241786   6.668   1.515   7.045  1.1407  0.6188  3.3947
   58MOL   H63341787   6.781   1.392   6.853  0.2966  1.2641  1.0559
   58MOL   H63441788   6.615   1.351   6.884 -1.0284 -0.3412  1.9610
   58MOL   H63541789   6.718   1.139   7.026  1.6080 -0.8371  0.6250
   58MOL   H63641790   6.864   1.198   6.970 -0.8776 -2.1384 -0.0102
   58MOL   H63741791   6.796   1.173   6.723 -0.4421  0.0057  0.4681
   58MOL   H63841792   6.824   1.039   6.819 -1.4520 -1.3739  0.1557
   58MOL   H63941793   6.556   1.142   6.713 -0.6796 -0.8561  1.0035
   58MOL   H64041794   6.633   0.986   6.679  4.3270  0.9392 -0.4837
   58MOL   H64141795   6.514   1.053   6.955 -1.6883  1.2827 -1.2761
   58MOL   H64241796   6.584   0.898   6.900 -1.1993 -0.7393 -1.3804
   58MOL   H64341797   6.355   0.886   6.899  1.5305  0.0843  0.2218
   58MOL   H64441798   6.337   1.018   6.776  1.7934  0.5766 -0.6616
   58MOL   H64541799   6.503   0.459   6.622 -2.9584 -1.9333  3.1126
   58MOL   H64641800   6.391   0.446   6.477 -0.8290  0.5560 -0.4528
   58MOL   H64741801   6.324   0.473   6.621  0.4321 -1.3981  0.2661
   58MOL   H64841802   6.592   0.797   6.510  0.0404 -0.7549 -2.2238
   58MOL   H64941803   6.578   0.672   6.393 -1.3340 -1.8777  0.3533
   58MOL   C65041804   7.190   0.526   6.920  0.4160  0.4027 -0.1122
   58MOL   C65141805   7.250   0.546   6.779 -0.2027 -0.2763  0.0630
   58MOL   C65241806   7.188   0.451   6.668 -0.0019  0.5359 -0.0509
   58MOL   C65341807   7.229   0.302   6.696  0.1985 -0.7424 -0.0273
   58MOL   C65441808   7.220   0.215   6.566 -0.8773  1.2121  0.2706
   58MOL   C65541809   7.089   0.240   6.488 -0.8530 -0.4719 -0.1024
   58MOL   C65641810   6.968   0.213   6.578 -0.5759 -0.1727 -0.2753
   58MOL   C65741811   6.834   0.255   6.520  0.0241  0.3718 -0.1275
   58MOL   O65841812   6.817   0.393   6.552 -0.2929 -0.2508  0.0605
   58MOL   C65941813   6.720   0.468   6.488  0.2791 -0.0027 -0.2304
   58MOL   O66041814   6.653   0.427   6.390 -0.2082 -0.8443  0.1839
   58MOL   C66141815   6.703   0.615   6.549 -0.2924 -0.5871  0.7629
   58MOL   C66241816   6.712   0.612   6.702 -0.1725  0.0239  0.5830
   58MOL   C66341817   6.828   0.714   6.524 -0.3279 -0.2036 -0.5806
   58MOL   H66441818   7.081   0.525   6.927  0.3929 -2.4534 -0.2641
   58MOL   H66541819   7.230   0.596   6.993  1.0082  1.4572 -1.4221
   58MOL   H66641820   7.219   0.426   6.953 -0.9383  0.2017  0.5056
   58MOL   H66741821   7.358   0.530   6.776 -0.3687 -1.3867 -0.0573
   58MOL   H66841822   7.228   0.649   6.753 -1.8984 -1.0840 -1.8248
   58MOL   H66941823   7.210   0.476   6.564  0.0772  0.0156 -0.1620
   58MOL   H67041824   7.081   0.468   6.667 -0.1395 -0.1444 -2.9147
   58MOL   H67141825   7.185   0.250   6.781  1.3293 -0.3786  0.7951
   58MOL   H67241826   7.333   0.312   6.728  0.2985 -0.6680 -0.3734
   58MOL   H67341827   7.229   0.109   6.588  1.2555  1.2044 -0.5400
   58MOL   H67441828   7.303   0.238   6.499 -0.4220 -0.2213  0.3370
   58MOL   H67541829   7.082   0.345   6.459 -2.6350 -0.4037  0.5537
   58MOL   H67641830   7.097   0.177   6.399  0.4220  0.4608 -0.6761
   58MOL   H67741831   6.988   0.253   6.677 -0.3587 -2.2369  0.5404
   58MOL   H67841832   6.957   0.105   6.590  0.9857 -0.2652  0.4898
   58MOL   H67941833   6.757   0.187   6.558  0.2870  0.4122  0.4876
   58MOL   H68041834   6.818   0.240   6.413  1.0765  0.5134 -0.3067
   58MOL   H68141835   6.813   0.588   6.735 -0.4160 -2.3879 -0.3892
   58MOL   H68241836   6.654   0.535   6.753 -1.3322  0.9907  0.7461
   58MOL   H68341837   6.691   0.713   6.739 -0.3789  0.8879 -1.8438
   58MOL   H68441838   6.791   0.814   6.548 -0.6493 -0.8473  1.6771
   58MOL   H68541839   6.910   0.688   6.591 -1.8060  0.4070  1.5133
   58MOL   C68641840   7.720   1.514   6.758  0.3526 -0.6172  0.5716
   58MOL   C68741841   7.574   1.478   6.766 -0.1288 -0.4297 -0.0087
   58MOL   C68841842   7.529   1.342   6.707 -0.0029 -0.1371  0.0330
   58MOL   C68941843   7.399   1.286   6.770  0.0869 -0.3394  0.1054
   58MOL   C69041844   7.349   1.159   6.703 -0.3729  0.2616  0.1199
   58MOL   C69141845   7.208   1.106   6.746 -0.2783  0.2806  0.0369
   58MOL   C69241846   7.176   0.970   6.680 -0.4241 -0.0513 -0.4381
   58MOL   C69341847   7.131   0.986   6.539 -0.3639 -0.4248  0.4796
   58MOL   O69441848   7.057   0.867   6.505  0.3074 -0.3611  0.0881
   58MOL   C69541849   6.980   0.860   6.390  0.3524 -0.4432  0.2760
   58MOL   O69641850   6.982   0.948   6.306  0.1392 -0.2755  0.4426
   58MOL   C69741851   6.889   0.735   6.380  0.6235  0.4986 -0.1611
   58MOL   C69841852   6.789   0.761   6.269  0.1540  0.5871  0.5814
   58MOL   C69941853   6.986   0.620   6.348  0.6338  0.3651 -0.4520
   58MOL   H70041854   7.738   1.619   6.784  0.6512 -0.5471  0.1007
   58MOL   H70141855   7.747   1.498   6.654  0.2607  1.0236  0.2820
   58MOL   H70241856   0.003   1.455   6.825 -0.4435 -0.5731  1.3640
   58MOL   H70341857   7.517   1.566   6.734  0.8896 -0.4303 -1.8654
   58MOL   H70441858   7.548   1.474   6.872  1.1210 -0.6319  0.2920
   58MOL   H70541859   7.603   1.269   6.741  0.2700 -0.0508 -0.3654
   58MOL   H70641860   7.534   1.338   6.598 -1.3678  0.5183 -0.0591
   58MOL   H70741861   7.323   1.358   6.742  0.7350 -0.3097 -1.6624
   58MOL   H70841862   7.406   1.266   6.877 -0.6064 -3.2819 -0.3580
   58MOL   H70941863   7.422   1.079   6.716  1.5751  1.8693 -0.7295
   58MOL   H71041864   7.353   1.193   6.600 -1.3710  0.5701  0.1807
   58MOL   H71141865   7.223   1.087   6.852  1.6102 -0.3052 -0.3093
   58MOL   H71241866   7.127   1.179   6.738  1.0791  1.6387 -1.9269
   58MOL   H71341867   7.265   0.909   6.689  0.5441  1.2984 -0.6698
   58MOL   H71441868   7.105   0.917   6.743  2.3680 -1.9429  1.2178
   58MOL   H71541869   7.206   1.022   6.468 -1.5779  0.2445 -0.4784
   58MOL   H71641870   7.051   1.059   6.554 -2.2338 -2.3081 -0.1475
   58MOL   H71741871   6.748   0.665   6.236  0.8391  0.1000  1.1384
   58MOL   H71841872   6.714   0.825   6.315 -1.6211 -1.0416  0.0083
   58MOL   H71941873   6.829   0.807   6.178  0.7157 -0.8557  0.0720
   58MOL   H72041874   6.940   0.522   6.341 -0.2809  0.6697  1.0977
   58MOL   H72141875   7.066   0.615   6.421 -0.6708 -2.1080  0.8539
   58MOL   H72241876   7.016   0.640   6.245 -2.7132 -1.5973 -1.8949
   59MOL     C141877   2.457   7.274   4.206  0.1370  0.5245 -0.1932
   59MOL     C241878   2.496   7.231   4.070  0.0512 -0.1825  0.8416
   59MOL     C341879   2.650   7.214   4.061 -0.2956  0.1904 -0.2813
   59MOL     C441880   2.690   7.167   3.920  0.1122  0.1164  0.5675
   59MOL     C541881   2.835   7.131   3.898  0.2198 -0.1686  0.5324
   59MOL     C641882   2.887   7.013   3.980  0.1126 -0.1173 -0.6470
   59MOL     C741883   2.814   6.878   3.960 -0.8981  0.4287 -0.0688
   59MOL     C841884   2.702   6.852   4.062  0.6006  0.2048 -0.1317
   59MOL     O941885   2.759   6.837   4.190  0.1829 -0.0950 -0.0459
   59MOL    C1041886   2.693   6.883   4.299 -0.5887 -0.1529  0.2711
   59MOL    O1141887   2.575   6.922   4.292  0.8940 -0.7940 -0.2624
   59MOL    C1241888   2.771   6.885   4.427 -0.4908  0.0777 -0.1470
   59MOL    C1341889   2.720   6.998   4.506 -0.4347  0.5319  0.3172
   59MOL    C1441890   2.787   6.752   4.501  0.3395  0.0290  0.1728
   59MOL    H1541891   2.503   7.209   4.280  2.3288  0.0006 -1.9549
   59MOL    H1641892   2.349   7.289   4.207 -0.2806 -2.1827 -0.1366
   59MOL    H1741893   2.501   7.372   4.222 -0.3464  0.8999 -1.1202
   59MOL    H1841894   2.448   7.286   3.989  2.2746 -0.2434 -0.5565
   59MOL    H1941895   2.448   7.136   4.052  0.7308 -0.2627 -0.6241
   59MOL    H2041896   2.710   7.300   4.091 -2.0156  1.5895 -0.7623
   59MOL    H2141897   2.682   7.134   4.128  0.1299 -0.1648 -0.9030
   59MOL    H2241898   2.619   7.092   3.888  0.2251  1.0442 -2.0384
   59MOL    H2341899   2.679   7.242   3.841 -0.8313  0.2956  0.8683
   59MOL    H2441900   2.905   7.214   3.907 -1.2137  1.3345 -1.6243
   59MOL    H2541901   2.843   7.090   3.797 -0.1111  0.4338  0.2603
   59MOL    H2641902   2.894   7.029   4.088 -0.2532  0.0290 -0.6449
   59MOL    H2741903   2.990   6.994   3.950  0.3260  1.1202 -0.7248
   59MOL    H2841904   2.879   6.792   3.975 -1.4541  0.2879  1.7048
   59MOL    H2941905   2.777   6.868   3.858 -0.4424 -3.1809  0.0842
   59MOL    H3041906   2.654   6.757   4.034 -0.2134  0.5710 -0.0042
   59MOL    H3141907   2.626   6.930   4.059  1.5225  1.2076  1.8297
   59MOL    H3241908   2.624   6.968   4.548  1.3400 -2.6344  2.3513
   59MOL    H3341909   2.782   7.015   4.594  0.1124 -0.0921  0.0604
   59MOL    H3441910   2.711   7.091   4.450  2.0225  1.2769  1.1143
   59MOL    H3541911   2.754   6.678   4.428 -1.2463  0.5537  0.3553
   59MOL    H3641912   2.710   6.738   4.577  1.1190 -1.5780  0.6948
   59MOL    H3741913   2.872   6.913   4.397 -0.6729  1.2264  0.2520
   59MOL    C3841914   3.435   6.398   4.114  0.3524 -0.6711  0.3265
   59MOL    C3941915   3.402   6.257   4.154  0.6562  0.3685 -0.3148
   59MOL    C4041916   3.291   6.265   4.254 -0.3536  0.1769  0.1138
   59MOL    C4141917   3.222   6.131   4.293 -0.0480 -0.0825 -0.4564
   59MOL    C4241918   3.085   6.133   4.366 -0.2150  0.2222 -0.3597
   59MOL    C4341919   3.053   6.241   4.473 -0.1040 -0.1933  0.1118
   59MOL    C4441920   2.909   6.228   4.526 -0.0347  0.7532 -0.2059
   59MOL    C4541921   2.883   6.332   4.632  0.0156 -0.5332 -0.3527
   59MOL    O4641922   2.868   6.472   4.577  0.3827 -0.1957 -0.2716
   59MOL    C4741923   2.907   6.586   4.638 -0.2764  0.0214 -0.0806
   59MOL    O4841924   2.929   6.592   4.757 -0.1307  0.8037 -0.2227
   59MOL    C4941925   2.922   6.710   4.558 -0.6286 -0.3681  1.0547
   59MOL    C5041926   2.966   6.828   4.652 -0.2477  0.2263 -0.7043
   59MOL    C5141927   3.039   6.689   4.447 -0.0780 -0.2792  0.1888
   59MOL    H5241928   3.485   6.447   4.197  0.6048  0.9044 -0.7277
   59MOL    H5341929   3.349   6.451   4.072  1.4048 -0.0721 -1.1071
   59MOL    H5441930   3.520   6.395   4.045  1.9940  0.4285  2.2399
   59MOL    H5541931   3.478   6.214   4.219 -0.2000 -0.3284  0.2299
   59MOL    H5641932   3.385   6.195   4.066 -0.6258 -1.5850  1.2558
   59MOL    H5741933   3.332   6.306   4.347  0.6017  0.5982 -0.4826
   59MOL    H5841934   3.217   6.326   4.203 -0.7364 -1.8993 -1.8396
   59MOL    H5941935   3.291   6.070   4.352 -1.6819 -1.9120 -0.3762
   59MOL    H6041936   3.218   6.061   4.209  1.0652  1.4723 -1.8391
   59MOL    H6141937   3.016   6.143   4.282 -1.5465  0.6601  0.7752
   59MOL    H6241938   3.072   6.033   4.409  1.4979 -0.7484 -2.0324
   59MOL    H6341939   3.129   6.232   4.551  1.5571  1.8293 -1.2391
   59MOL    H6441940   3.073   6.335   4.423 -2.7101  0.2291 -0.1891
   59MOL    H6541941   2.909   6.126   4.566  0.0598  1.1570  0.8514
   59MOL    H6641942   2.834   6.233   4.447 -2.8220  1.2843  2.3578
   59MOL    H6741943   2.961   6.350   4.706  0.6906  2.2696 -1.6406
   59MOL    H6841944   2.802   6.305   4.699  1.5302 -0.2754  1.6483
   59MOL    H6941945   2.882   6.855   4.716 -0.9101 -0.7508 -1.1472
   59MOL    H7041946   3.049   6.799   4.717 -0.0555  0.5986 -0.7821
   59MOL    H7141947   2.989   6.921   4.602  0.7783 -0.0738 -0.8108
   59MOL    H7241948   3.027   6.756   4.361  1.5658  1.6203  1.4085
   59MOL    H7341949   3.008   6.593   4.406 -1.8838  0.3195  0.0969
   59MOL    C7441950   3.898   6.955   5.293 -0.6014  0.4578 -0.2682
   59MOL    C7541951   3.834   6.828   5.229 -0.6471  0.7293 -0.6262
   59MOL    C7641952   3.692   6.847   5.196 -0.4039  0.7159 -0.0800
   59MOL    C7741953   3.640   6.729   5.114 -0.6086  0.1662  0.2702
   59MOL    C7841954   3.495   6.753   5.072  0.0067  0.1611  0.1516
   59MOL    C7941955   3.445   6.638   4.987 -0.0552 -0.6901 -0.4527
   59MOL    C8041956   3.302   6.658   4.944 -0.0156 -0.0190 -1.1890
   59MOL    C8141957   3.256   6.576   4.821 -0.0778  0.3819  0.3625
   59MOL    O8241958   3.241   6.651   4.703  0.4673 -0.3496 -0.2711
   59MOL    C8341959   3.224   6.588   4.590  0.2683 -0.1562  0.5484
   59MOL    O8441960   3.240   6.467   4.582  0.0636 -0.1321  0.1122
   59MOL    C8541961   3.187   6.684   4.472 -0.6293 -0.3098  0.7805
   59MOL    C8641962   3.242   6.618   4.342  0.4266 -0.3258  0.3380
   59MOL    C8741963   3.252   6.831   4.492  0.2607  0.1286  0.2350
   59MOL    H8841964   3.850   6.993   5.383 -0.7562  0.1673 -0.2273
   59MOL    H8941965   3.898   7.034   5.217  1.1331  0.4232 -0.3051
   59MOL    H9041966   4.000   6.922   5.312 -1.1804  0.5121  3.1359
   59MOL    H9141967   3.846   6.748   5.301 -1.7243  0.2690 -0.9531
   59MOL    H9241968   3.897   6.801   5.144 -1.4574  0.6208 -1.1985
   59MOL    H9341969   3.637   6.875   5.287 -1.0448  1.1949 -0.6078
   59MOL    H9441970   3.683   6.933   5.129  2.5256  1.4100  0.3444
   59MOL    H9541971   3.640   6.642   5.180 -0.1860 -1.2654 -1.5786
   59MOL    H9641972   3.708   6.714   5.030 -0.1551  1.2777  0.4407
   59MOL    H9741973   3.417   6.776   5.144 -0.2684 -3.6611  1.1918
   59MOL    H9841974   3.490   6.842   5.009  3.0808 -0.0356 -0.4315
   59MOL    H9941975   3.498   6.635   4.891  0.0273  0.1145 -0.4335
   59MOL   H10041976   3.465   6.544   5.038  1.1533 -0.4699 -0.5106
   59MOL   H10141977   3.246   6.606   5.022  3.3905 -2.8606 -0.4634
   59MOL   H10241978   3.277   6.763   4.931 -0.0535  0.3349  1.4994
   59MOL   H10341979   3.158   6.533   4.840 -0.5450  1.5895  0.7003
   59MOL   H10441980   3.327   6.495   4.805 -0.4472  0.5061 -2.0696
   59MOL   H10541981   3.219   6.667   4.247 -1.7953 -0.7637  0.6250
   59MOL   H10641982   3.194   6.524   4.318  0.4509  0.0933 -1.4305
   59MOL   H10741983   3.349   6.597   4.340  0.4836 -0.1454  1.3917
   59MOL   H10841984   3.189   6.898   4.434 -0.8817  0.6961  2.0961
   59MOL   H10941985   3.221   6.871   4.589  0.7349 -1.3458  1.0097
   59MOL   C11041986   3.585   6.603   3.434 -0.3603  0.2760  0.2205
   59MOL   C11141987   3.443   6.644   3.480  0.0594 -0.8119  0.0311
   59MOL   C11241988   3.424   6.667   3.628 -0.4425 -0.4960 -0.1009
   59MOL   C11341989   3.283   6.689   3.664  0.5636 -0.3475  0.0795
   59MOL   C11441990   3.254   6.699   3.814  0.1772 -0.5294  0.5557
   59MOL   C11541991   3.289   6.832   3.885 -0.5644 -0.1999  0.3407
   59MOL   C11641992   3.291   6.820   4.044 -0.1887  0.5707  0.2867
   59MOL   C11741993   3.337   6.949   4.111  0.5975  0.7426  0.5169
   59MOL   O11841994   3.334   6.948   4.248 -0.4317 -0.5209 -0.1320
   59MOL   C11941995   3.417   6.869   4.314 -0.0955  0.1615 -0.5440
   59MOL   O12041996   3.507   6.798   4.259  0.1858 -0.2814 -0.1455
   59MOL   C12141997   3.404   6.873   4.470 -0.2943 -1.0316  0.0701
   59MOL   C12241998   3.495   6.775   4.544  0.1908 -0.0787  0.1141
   59MOL   C12341999   3.410   7.024   4.523  0.4577 -0.2572  0.1263
   59MOL   H12442000   3.624   6.515   3.486 -0.8346  1.4914  2.6780
   59MOL   H12542001   3.583   6.575   3.328  0.8845 -0.9658  0.5124
   59MOL   H12642002   3.656   6.684   3.416 -0.5667  0.2136 -0.9506
   59MOL   H12742003   3.381   6.562   3.446 -0.7010 -0.3359  0.2562
   59MOL   H12842004   3.414   6.733   3.424 -3.2606 -0.4526  2.1881
   59MOL   H12942005   3.495   6.744   3.658 -0.7416 -0.3481  0.2207
   59MOL   H13042006   3.450   6.573   3.676  2.9307  0.8078  0.7533
   59MOL   H13142007   3.248   6.779   3.614 -0.3741 -1.3251 -1.0621
   59MOL   H13242008   3.231   6.603   3.622  2.1960 -2.2180  1.7195
   59MOL   H13342009   3.316   6.623   3.862  1.3082  0.4500  0.6715
   59MOL   H13442010   3.148   6.680   3.832  0.1930 -0.3823  0.8194
   59MOL   H13542011   3.389   6.867   3.859 -0.7023 -0.2718 -0.3062
   59MOL   H13642012   3.220   6.908   3.847  0.8303  1.1365  0.4563
   59MOL   H13742013   3.356   6.734   4.059 -0.8064 -0.1744 -1.1534
   59MOL   H13842014   3.193   6.798   4.086 -1.1348  0.8221 -1.7044
   59MOL   H13942015   3.441   6.955   4.080  0.8469  1.4528  1.4781
   59MOL   H14042016   3.275   7.028   4.070 -0.5268 -0.3122  0.1571
   59MOL   H14142017   3.476   6.670   4.523 -0.8614  0.2607 -0.7014
   59MOL   H14242018   3.597   6.763   4.508  0.0841 -3.3756  0.7525
   59MOL   H14342019   3.488   6.783   4.652 -1.6718 -2.0664  0.1818
   59MOL   H14442020   3.393   7.016   4.630 -0.0728 -1.3455 -0.0321
   59MOL   H14542021   3.321   7.073   4.482  0.4660 -0.8773 -0.6554
   59MOL   C14642022   4.082   7.542   5.144  0.1212  0.0246 -0.0529
   59MOL   C14742023   3.945   7.535   5.078  0.0580 -0.1839  0.2432
   59MOL   C14842024   3.945   7.425   4.978  0.3436 -0.1466 -0.0320
   59MOL   C14942025   3.951   7.282   5.038  0.3296 -0.0907 -0.6885
   59MOL   C15042026   3.963   7.169   4.947 -0.2399  0.3804 -0.8244
   59MOL   C15142027   3.828   7.106   4.901  0.3014 -0.2829  0.0075
   59MOL   C15242028   3.850   6.980   4.818  0.0057  0.0437 -0.1802
   59MOL   C15342029   3.727   6.911   4.757  0.0157 -0.2171 -0.2540
   59MOL   O15442030   3.644   7.006   4.693  0.2355  0.0786  0.2057
   59MOL   C15542031   3.656   7.039   4.561 -0.0385 -0.0018  0.0600
   59MOL   O15642032   3.751   7.005   4.498  0.2651 -0.1840  0.1759
   59MOL   C15742033   3.533   7.113   4.506  0.4708 -0.2449  0.7931
   59MOL   C15842034   3.564   7.143   4.361  0.8291 -0.1006 -0.0450
   59MOL   C15942035   3.497   7.240   4.586 -0.1940  0.2824  0.1655
   59MOL   H16042036   4.118   7.447   5.184  0.3472  0.5252  0.9394
   59MOL   H16142037   4.062   7.602   5.232  1.5830  1.2790 -0.5587
   59MOL   H16242038   4.160   7.587   5.083  0.2515  1.0313  0.8449
   59MOL   H16342039   3.872   7.506   5.153  1.4480 -0.6903  1.4403
   59MOL   H16442040   3.923   7.635   5.042  1.8286  0.1381 -0.0155
   59MOL   H16542041   4.019   7.430   4.899  0.3803 -1.5549 -0.0882
   59MOL   H16642042   3.843   7.424   4.939  1.0780  0.8232 -2.0185
   59MOL   H16742043   4.040   7.280   5.102 -0.7400 -3.1765  0.7942
   59MOL   H16842044   3.871   7.257   5.107 -1.6379 -0.0788 -2.9190
   59MOL   H16942045   4.023   7.095   5.000  0.3149  1.2702 -0.1815
   59MOL   H17042046   4.025   7.181   4.859 -0.9436 -2.1958 -1.6972
   59MOL   H17142047   3.776   7.173   4.833  1.5750  0.5489 -0.1727
   59MOL   H17242048   3.776   7.078   4.992 -0.8948  0.2591 -0.4904
   59MOL   H17342049   3.925   7.010   4.744 -0.3299 -1.8431 -1.3132
   59MOL   H17442050   3.897   6.901   4.876 -1.6712  0.4855  1.8167
   59MOL   H17542051   3.765   6.832   4.693 -1.1496 -0.6706 -0.3999
   59MOL   H17642052   3.661   6.868   4.832  1.0763 -0.0029  0.8210
   59MOL   H17742053   3.643   7.219   4.362  0.0800  0.7715  5.3049
   59MOL   H17842054   3.476   7.187   4.314 -0.4915  0.5198  2.9124
   59MOL   H17942055   3.603   7.061   4.300  2.6030  0.8688 -0.2594
   59MOL   H18042056   3.511   7.217   4.692  2.3488  2.5138  0.3613
   59MOL   H18142057   3.391   7.248   4.564 -0.4761 -3.3663 -0.2136
   59MOL   C18242058   2.841   7.389   4.681  0.3190 -0.3970  0.3956
   59MOL   C18342059   2.808   7.385   4.529 -0.0771  0.2380 -0.0403
   59MOL   C18442060   2.936   7.321   4.458 -0.5644 -0.3110 -0.8303
   59MOL   C18542061   2.927   7.323   4.313 -0.2008 -0.6628 -1.1364
   59MOL   C18642062   3.048   7.245   4.248 -0.1385 -0.2432  0.4346
   59MOL   C18742063   3.182   7.297   4.287 -0.1083 -0.0156  0.2396
   59MOL   C18842064   3.216   7.447   4.255  0.3506 -0.4530 -0.1698
   59MOL   C18942065   3.366   7.482   4.277  0.3760  0.5166 -0.1436
   59MOL   O19042066   3.407   7.431   4.407 -0.4032  0.0741 -0.3206
   59MOL   C19142067   3.528   7.454   4.440  0.2701 -0.0775 -0.1449
   59MOL   O19242068   3.601   7.525   4.373  0.1771 -0.7662 -0.1266
   59MOL   C19342069   3.563   7.387   4.572  0.4029 -0.2701  0.6212
   59MOL   C19442070   3.710   7.365   4.590  0.2740 -0.6355 -0.0303
   59MOL   C19542071   3.510   7.457   4.698 -0.0763 -0.1888  0.7258
   59MOL   H19642072   2.865   7.290   4.721 -0.7071 -1.5871 -1.8892
   59MOL   H19742073   2.922   7.454   4.714 -0.0359  0.3937 -0.2700
   59MOL   H19842074   2.751   7.422   4.734  1.8216  1.3598  1.9125
   59MOL   H19942075   2.788   7.479   4.476 -0.7481  0.5094  0.6878
   59MOL   H20042076   2.722   7.319   4.521  1.2981 -1.4683 -1.0689
   59MOL   H20142077   3.025   7.377   4.488 -1.8822  0.2433  2.3014
   59MOL   H20242078   2.941   7.223   4.504 -1.0014  0.5797  1.1861
   59MOL   H20342079   2.829   7.281   4.291 -0.6340 -0.8584  1.0335
   59MOL   H20442080   2.931   7.427   4.283  1.9396 -0.3011  0.2861
   59MOL   H20542081   3.050   7.251   4.139  1.3858  0.2966  0.4810
   59MOL   H20642082   3.040   7.142   4.281 -3.1037 -0.1287  0.2619
   59MOL   H20742083   3.255   7.246   4.225 -0.2417  0.7540 -0.5623
   59MOL   H20842084   3.210   7.271   4.389 -0.7281 -3.0713 -0.3464
   59MOL   H20942085   3.195   7.472   4.152  1.7124  1.1674 -0.0817
   59MOL   H21042086   3.153   7.516   4.311 -1.6975  0.1342 -3.1038
   59MOL   H21142087   3.388   7.589   4.274  1.5340  0.2735 -0.7297
   59MOL   H21242088   3.420   7.426   4.201 -0.5817  0.7097 -0.9733
   59MOL   H21342089   3.758   7.454   4.630 -2.6581  0.6095  0.9082
   59MOL   H21442090   3.736   7.286   4.660  0.1989 -0.6663 -0.0371
   59MOL   H21542091   3.768   7.333   4.503  0.3921 -1.8929  0.5030
   59MOL   H21642092   3.405   7.429   4.697 -0.4582  1.2396 -1.3892
   59MOL   H21742093   3.551   7.410   4.788 -1.2078 -2.8507 -0.1114
   59MOL   C21842094   3.458   0.651   3.842  0.6344  0.1094 -0.3163
   59MOL   C21942095   3.409   0.514   3.872 -0.0840  0.2969 -0.6862
   59MOL   C22042096   3.462   0.446   3.991 -0.5390  0.1476  0.7277
   59MOL   C22142097   3.361   0.344   4.060  0.6836  0.2247 -0.3604
   59MOL   C22242098   3.429   0.273   4.179  0.2008  0.3948 -0.0546
   59MOL   C22342099   3.343   0.191   4.274  0.2341 -0.3268  0.2499
   59MOL   C22442100   3.419   0.107   4.371  0.6355  0.1189 -1.0303
   59MOL   C22542101   3.331   0.021   4.460  0.2377 -0.9587  0.2861
   59MOL   O22642102   3.408   7.759   4.566  0.3193 -0.0097 -0.2010
   59MOL   C22742103   3.373   7.661   4.644  0.2615 -0.1619  0.0170
   59MOL   O22842104   3.256   7.620   4.650 -0.1240 -0.1507 -0.6815
   59MOL   C22942105   3.491   7.611   4.732  0.1125  0.3020 -0.1263
   59MOL   C23042106   3.629   7.670   4.696  0.1003 -0.1101 -0.1851
   59MOL   C23142107   3.458   7.606   4.892  0.2715 -1.2962  0.3410
   59MOL   H23242108   3.471   0.719   3.926 -2.7690  1.4593 -0.7851
   59MOL   H23342109   3.393   0.713   3.779 -0.9939  0.0594  1.2795
   59MOL   H23442110   3.557   0.647   3.797  1.8314  1.4716  2.1063
   59MOL   H23542111   3.390   0.446   3.790  0.4204 -0.3388 -0.2824
   59MOL   H23642112   3.306   0.534   3.902  0.4735 -0.1078  1.5930
   59MOL   H23742113   3.545   0.379   3.966 -0.1113  1.2776 -0.9478
   59MOL   H23842114   3.496   0.521   4.062  1.6075  0.8476 -0.9794
   59MOL   H23942115   3.294   0.417   4.106  1.7668  0.7392  0.4184
   59MOL   H24042116   3.308   0.278   3.991 -0.2807  0.4594  0.1492
   59MOL   H24142117   3.496   0.202   4.130 -3.6800 -1.7088 -2.5389
   59MOL   H24242118   3.489   0.338   4.244 -1.5223  1.7156  0.2678
   59MOL   H24342119   3.272   0.250   4.331 -1.4799  0.4542 -2.6208
   59MOL   H24442120   3.281   0.133   4.206  0.0051 -0.3629  0.4912
   59MOL   H24542121   3.465   0.181   4.438 -0.7347  0.1192 -0.0644
   59MOL   H24642122   3.497   0.044   4.328  1.5515 -0.1578  0.9538
   59MOL   H24742123   3.282   7.716   4.413 -2.6177  0.1308  1.1806
   59MOL   H24842124   3.256   0.091   4.497  1.2114 -1.1403  2.7210
   59MOL   H24942125   3.612   7.778   4.700 -0.7731 -0.2437 -0.0848
   59MOL   H25042126   3.661   7.646   4.594  0.9771 -2.5497  0.6289
   59MOL   H25142127   3.710   7.645   4.763  1.2291  0.6236 -1.2502
   59MOL   H25242128   3.351   7.588   4.903 -0.1371  0.3001 -0.9175
   59MOL   H25342129   3.507   7.521   4.940  1.2899 -1.9741 -1.8117
   59MOL   C25442130   2.589   0.167   5.518  0.0821 -0.2878 -0.0400
   59MOL   C25542131   2.663   0.110   5.394  0.2000  0.6241  0.0390
   59MOL   C25642132   2.779   0.201   5.357 -0.2925  0.1606  0.3078
   59MOL   C25742133   2.863   0.143   5.233  0.3736  0.0865  0.3060
   59MOL   C25842134   2.943   0.236   5.151 -0.7847 -0.2442  0.5120
   59MOL   C25942135   3.030   0.172   5.045 -0.5042  0.5280 -0.0286
   59MOL   C26042136   3.137   0.257   4.978 -0.3451  0.0438  0.6155
   59MOL   C26142137   3.212   0.180   4.864 -0.5098 -0.2020  0.2020
   59MOL   O26242138   3.285   0.069   4.916  0.0720 -0.0757 -0.6584
   59MOL   C26342139   3.421   0.077   4.927 -0.3688  0.2320  0.4918
   59MOL   O26442140   3.489   0.171   4.881 -0.3697 -0.7426 -0.0417
   59MOL   C26542141   3.481   7.732   4.990 -0.0890  0.4342 -0.3308
   59MOL   C26642142   3.634   7.765   5.007  0.6778  0.5140 -0.2589
   59MOL   C26742143   3.411   7.699   5.130  0.5116  0.2480  0.3954
   59MOL   H26842144   2.651   0.162   5.607 -0.6852 -0.7826  0.4710
   59MOL   H26942145   2.541   0.265   5.508  1.9102  0.9125  2.2501
   59MOL   H27042146   2.513   0.091   5.531  0.5377 -0.6051  0.8036
   59MOL   H27142147   2.701   0.012   5.421  0.5334  0.3524 -1.3721
   59MOL   H27242148   2.608   0.093   5.302  0.7760  1.3106 -0.4413
   59MOL   H27342149   2.843   0.213   5.445 -0.2346  0.2793  0.2520
   59MOL   H27442150   2.745   0.302   5.334  1.0727  0.3107 -1.1311
   59MOL   H27542151   2.793   0.084   5.174 -1.0200  1.1146  0.8677
   59MOL   H27642152   2.934   0.077   5.282 -1.3971 -0.8757  1.6398
   59MOL   H27742153   2.884   0.311   5.098 -1.7445 -0.9412  0.5864
   59MOL   H27842154   3.007   0.287   5.224  0.6626  0.2735 -1.0702
   59MOL   H27942155   2.959   0.147   4.966 -0.6202 -1.0409  0.5666
   59MOL   H28042156   3.069   0.079   5.085 -0.4675  1.0705  1.2249
   59MOL   H28142157   3.092   0.348   4.937 -1.7050 -0.4588  0.9544
   59MOL   H28242158   3.207   0.293   5.053 -0.6295 -0.4296  1.1034
   59MOL   H28342159   3.158   0.136   4.780 -0.7880 -0.3051  0.4332
   59MOL   H28442160   3.281   0.253   4.824  0.1693 -0.7417  0.3766
   59MOL   H28542161   3.659   0.049   5.091  0.1983  1.6101 -0.9314
   59MOL   H28642162   3.677   7.669   5.036 -0.7499 -0.2623 -0.6226
   59MOL   H28742163   3.684   0.016   4.915 -0.0224  0.4605 -0.6624
   59MOL   H28842164   3.441   7.597   5.153  2.2418  0.8933  1.0802
   59MOL   H28942165   3.308   7.671   5.107 -0.0255  0.5302  2.3730
   59MOL   C29042166   4.354   0.418   5.403  0.5518 -0.0560  0.6139
   59MOL   C29142167   4.216   0.479   5.417  0.1790 -0.4524 -0.3845
   59MOL   C29242168   4.145   0.443   5.542 -0.4227 -0.3367 -0.3937
   59MOL   C29342169   4.064   0.309   5.532  0.0515  0.2657  0.3763
   59MOL   C29442170   3.969   0.274   5.646 -0.5350  0.3935 -0.1972
   59MOL   C29542171   3.886   0.152   5.615 -0.2026 -0.1503 -0.4755
   59MOL   C29642172   3.759   0.183   5.528  0.3430  0.5263 -0.4881
   59MOL   C29742173   3.676   0.051   5.528 -0.3473 -0.1768  0.2654
   59MOL   O29842174   3.570   0.061   5.436 -0.2557  0.6168 -0.1134
   59MOL   C29942175   3.558   7.761   5.328 -0.3191 -0.1735 -0.6176
   59MOL   O30042176   3.638   7.676   5.298 -0.5247  0.2511 -0.3357
   59MOL   C30142177   3.420   0.009   5.257 -0.4118 -0.3019  1.0705
   59MOL   C30242178   3.427   0.157   5.221 -1.0253  0.4814  0.1335
   59MOL   C30342179   3.295   7.776   5.353  0.1050 -0.4192 -0.1036
   59MOL   H30442180   4.392   0.437   5.302  0.0041 -1.0881  0.2046
   59MOL   H30542181   4.344   0.310   5.400 -0.2140  0.0124  0.5595
   59MOL   H30642182   4.432   0.445   5.474 -0.1251  0.1053  1.3006
   59MOL   H30742183   4.154   0.456   5.331  0.1522  2.6201 -1.2615
   59MOL   H30842184   4.224   0.587   5.406 -0.2319 -0.0847  2.4434
   59MOL   H30942185   4.081   0.531   5.554  1.5148  1.2881 -1.6138
   59MOL   H31042186   4.203   0.446   5.635 -0.0587 -1.1127 -0.5968
   59MOL   H31142187   4.004   0.328   5.443 -0.4492  0.2285  0.6985
   59MOL   H31242188   4.130   0.226   5.507 -0.6710 -0.5372  1.0872
   59MOL   H31342189   4.027   0.258   5.736 -0.2898 -2.5528 -0.8498
   59MOL   H31442190   3.908   0.362   5.670  0.1285  0.4725  1.2674
   59MOL   H31542191   3.842   0.112   5.706 -1.4332 -0.3061 -1.1318
   59MOL   H31642192   3.954   0.079   5.572 -0.6224  0.0950 -1.5646
   59MOL   H31742193   3.777   0.212   5.425  0.0678 -1.1800 -1.0414
   59MOL   H31842194   3.688   0.255   5.568 -1.2092 -0.8960 -0.5811
   59MOL   H31942195   3.633   0.039   5.628  0.6058 -1.1276  0.5630
   59MOL   H32042196   3.746   7.753   5.499  0.3328  0.7060 -0.4805
   59MOL   H32142197   3.441   0.223   5.306 -0.7038  0.4357  0.1154
   59MOL   H32242198   3.327   0.185   5.185 -0.9723  0.7950  0.2299
   59MOL   H32342199   3.509   0.199   5.163 -1.5900 -0.6624 -1.5417
   59MOL   H32442200   3.291   0.087   5.413  0.9854  0.1566 -0.8828
   59MOL   H32542201   3.207   0.012   5.291  1.5568  4.2790 -1.1926
   59MOL   C32642202   3.089   0.779   5.700 -0.0789  0.2911 -0.1189
   59MOL   C32742203   2.984   0.757   5.811  0.3496  0.2616 -0.0841
   59MOL   C32842204   3.005   0.622   5.887  0.3785 -0.0239 -0.1667
   59MOL   C32942205   2.987   0.498   5.806  0.4846  0.3164  0.1549
   59MOL   C33042206   2.982   0.367   5.894  0.4220  0.4037  0.4023
   59MOL   C33142207   2.948   0.243   5.811  0.2783 -0.0408  0.4204
   59MOL   C33242208   3.038   0.202   5.703 -0.0781 -0.2681 -0.1290
   59MOL   C33342209   3.015   0.058   5.657 -0.0024 -0.8849 -0.5600
   59MOL   O33442210   3.120   0.021   5.569 -0.4972  0.2965  0.3257
   59MOL   C33542211   3.122   7.687   5.505  0.4048 -0.1293  0.6405
   59MOL   O33642212   3.021   7.613   5.500 -0.8099 -0.8230  0.0637
   59MOL   C33742213   3.260   7.653   5.440  0.3653  0.3353 -0.0073
   59MOL   C33842214   3.236   7.529   5.351  0.4458 -0.1882 -0.1038
   59MOL   C33942215   3.367   7.624   5.550  0.1077  0.3503  0.3891
   59MOL   H34042216   3.058   0.732   5.606  2.3439  0.7158 -1.1614
   59MOL   H34142217   3.184   0.735   5.728  0.3320  0.6423 -0.9620
   59MOL   H34242218   3.113   0.884   5.685  0.0160  0.3648  0.5159
   59MOL   H34342219   2.883   0.772   5.775 -0.2779 -1.8921  0.7050
   59MOL   H34442220   2.993   0.841   5.881  0.3161  1.7070 -1.7828
   59MOL   H34542221   2.949   0.633   5.980 -0.7547  0.3930 -0.8898
   59MOL   H34642222   3.108   0.627   5.922 -0.1083  1.7051  1.1232
   59MOL   H34742223   3.073   0.483   5.741 -1.0277 -0.5447 -1.6911
   59MOL   H34842224   2.904   0.500   5.735  1.9733 -1.7718 -1.6832
   59MOL   H34942225   3.078   0.358   5.945  0.1929  0.7925  0.8999
   59MOL   H35042226   2.911   0.381   5.975 -0.0144 -0.6337  0.2113
   59MOL   H35142227   2.938   0.166   5.887  0.9233 -0.3188  0.2239
   59MOL   H35242228   2.844   0.257   5.782  0.0445 -2.3099  0.1312
   59MOL   H35342229   3.139   0.211   5.742 -0.2398 -0.9541  0.4550
   59MOL   H35442230   3.041   0.275   5.622  0.2898  0.9359  0.9586
   59MOL   H35542231   3.009   0.002   5.751  1.1002 -1.4559 -0.8217
   59MOL   H35642232   2.913   0.051   5.618  0.3674 -2.1527 -1.3416
   59MOL   H35742233   3.167   7.456   5.393  0.3522  0.7112  1.3389
   59MOL   H35842234   3.196   7.558   5.254  3.3037  1.3637 -0.8811
   59MOL   H35942235   3.321   7.461   5.338  0.2614 -0.1466 -1.6004
   59MOL   H36042236   3.448   7.577   5.494 -1.6286 -2.5926  0.2245
   59MOL   H36142237   3.406   7.720   5.585  0.4137  0.2682  0.2766
   59MOL   C36242238   4.413   7.095   5.463  0.3078 -0.3484 -0.0736
   59MOL   C36342239   4.287   7.059   5.375  0.2629 -0.4501 -0.4393
   59MOL   C36442240   4.208   7.182   5.325 -0.6779  0.3509  0.5170
   59MOL   C36542241   4.138   7.255   5.442 -0.2079 -0.0896  0.3142
   59MOL   C36642242   4.002   7.328   5.422  0.8362  0.3408 -0.1054
   59MOL   C36742243   3.924   7.365   5.550  0.1097  0.0444  0.0258
   59MOL   C36842244   3.772   7.383   5.537  0.5408 -0.2657  0.7962
   59MOL   C36942245   3.704   7.418   5.669  0.6894 -0.0364  0.7873
   59MOL   O37042246   3.565   7.426   5.660  0.0915 -0.2946  0.0243
   59MOL   C37142247   3.499   7.509   5.738  0.1285  1.0670  0.1940
   59MOL   O37242248   3.550   7.571   5.833 -0.4968 -0.1922  0.3295
   59MOL   C37342249   3.354   7.536   5.686 -0.6373  0.0436 -0.3236
   59MOL   C37442250   3.288   7.400   5.636 -0.9861 -0.2834 -0.0260
   59MOL   C37542251   3.264   7.610   5.801 -0.1041 -0.2279 -0.5430
   59MOL   H37642252   4.467   7.178   5.417  0.1292 -0.5517 -0.6518
   59MOL   H37742253   4.381   7.130   5.561 -0.0825 -2.0202  0.4070
   59MOL   H37842254   4.478   7.010   5.481 -0.2969 -1.1907 -1.7961
   59MOL   H37942255   4.226   6.996   5.439  0.2156  2.1086  2.1835
   59MOL   H38042256   4.334   6.998   5.298 -0.9038  1.1564 -2.4724
   59MOL   H38142257   4.127   7.152   5.258  0.7393 -0.0670 -1.0605
   59MOL   H38242258   4.268   7.253   5.268  1.0300 -2.2180 -0.9929
   59MOL   H38342259   4.210   7.328   5.477  1.1213 -1.1420 -0.1482
   59MOL   H38442260   4.122   7.186   5.525 -3.0968 -0.6128 -0.6424
   59MOL   H38542261   4.001   7.414   5.356  0.2651 -0.6434 -1.4045
   59MOL   H38642262   3.936   7.257   5.374  0.6087 -1.3210  2.5223
   59MOL   H38742263   3.980   7.447   5.596 -0.3456  1.9728 -2.7470
   59MOL   H38842264   3.943   7.290   5.627 -0.5175  0.0081  0.1469
   59MOL   H38942265   3.730   7.297   5.484  0.2328  0.5466 -0.2962
   59MOL   H39042266   3.753   7.469   5.473 -2.8461 -1.5027  0.0051
   59MOL   H39142267   3.727   7.341   5.742  1.4593 -0.7333 -0.1769
   59MOL   H39242268   3.748   7.513   5.701 -0.5915  1.2653 -1.1994
   59MOL   H39342269   3.344   7.360   5.551 -1.0922  0.5536 -0.4926
   59MOL   H39442270   3.294   7.325   5.716 -2.8165  1.8848  2.2186
   59MOL   H39542271   3.186   7.411   5.600 -0.2165 -2.1937 -2.9780
   59MOL   H39642272   3.341   7.662   5.858 -0.6868 -0.5538  0.5648
   59MOL   H39742273   3.191   7.682   5.764  0.6522  1.9910  2.0995
   59MOL   C39842274   2.367   7.511   6.233  0.0167 -0.3547  0.1984
   59MOL   C39942275   2.460   7.606   6.158  0.0359 -0.4059 -0.1071
   59MOL   C40042276   2.397   7.659   6.024  0.3840  0.2233 -0.0885
   59MOL   C40142277   2.491   7.712   5.916 -0.5137  0.8889  1.0615
   59MOL   C40242278   2.590   7.608   5.875  0.5602 -0.2573  0.4769
   59MOL   C40342279   2.692   7.656   5.764  0.1061 -0.7568 -0.1489
   59MOL   C40442280   2.749   7.548   5.678  0.7601  0.6027  0.4242
   59MOL   C40542281   2.859   7.462   5.739 -0.4975 -0.5211  0.3128
   59MOL   O40642282   2.975   7.528   5.790 -0.2242  0.0955 -0.0163
   59MOL   C40742283   3.066   7.445   5.850 -0.8125  0.7439  0.1473
   59MOL   O40842284   3.068   7.320   5.844 -0.0672 -0.2607 -0.0272
   59MOL   C40942285   3.187   7.529   5.915  0.6134  0.9254  0.3598
   59MOL   C41042286   3.288   7.433   5.977  0.3477 -0.3051  0.3779
   59MOL   C41142287   3.131   7.633   6.017 -0.1192  0.1652  0.8376
   59MOL   H41242288   2.274   7.566   6.243  0.0217 -0.3222  0.0601
   59MOL   H41342289   2.408   7.476   6.328  1.1136 -0.2966 -0.2403
   59MOL   H41442290   2.355   7.420   6.174  0.5906 -0.8787  0.8701
   59MOL   H41542291   2.554   7.555   6.135  0.6984  1.0744 -0.6980
   59MOL   H41642292   2.481   7.692   6.220  2.7443 -1.6621  0.7867
   59MOL   H41742293   2.341   7.583   5.970  0.0223 -0.9155  1.8616
   59MOL   H41842294   2.327   7.740   6.047  1.4163  1.4309 -1.0731
   59MOL   H41942295   2.531   0.025   5.956  0.1388  1.0504  0.0360
   59MOL   H42042296   2.428   7.737   5.831 -1.1004 -1.7754  0.6422
   59MOL   H42142297   2.660   7.563   5.946  0.5918 -0.9348  0.0216
   59MOL   H42242298   2.527   7.530   5.833  1.1234 -1.0710  1.1284
   59MOL   H42342299   2.772   7.713   5.811  0.4592 -1.4476  0.0978
   59MOL   H42442300   2.633   7.724   5.703 -1.9143 -0.0404  2.4950
   59MOL   H42542301   2.666   7.481   5.652  0.5839  0.1324  2.1295
   59MOL   H42642302   2.766   7.591   5.579 -1.8514  2.0417  0.5346
   59MOL   H42742303   2.818   7.414   5.828 -0.0020 -0.7308  0.4309
   59MOL   H42842304   2.888   7.377   5.678  2.8650  1.1642 -0.5769
   59MOL   H42942305   3.343   7.377   5.902 -0.5287  1.5792 -1.7164
   59MOL   H43042306   3.244   7.357   6.043 -0.8749 -1.7655 -2.0498
   59MOL   H43142307   3.364   7.493   6.026 -0.6098  0.8769  0.4405
   59MOL   H43242308   3.072   7.704   5.958 -0.7029 -0.9464  0.0567
   59MOL   H43342309   3.216   7.693   6.049  0.1055 -0.6474  1.7427
   59MOL   C43442310   3.454   6.637   6.515 -0.2580  0.5077  0.3409
   59MOL   C43542311   3.343   6.625   6.418  0.0771  0.3131 -0.4580
   59MOL   C43642312   3.319   6.753   6.337 -0.9285  0.1836 -0.9889
   59MOL   C43742313   3.189   6.755   6.256  0.0492 -0.4285 -0.3137
   59MOL   C43842314   3.150   6.883   6.174 -0.0727 -0.4254 -0.5728
   59MOL   C43942315   3.140   7.002   6.272 -0.2228 -0.9776 -0.1837
   59MOL   C44042316   3.083   7.122   6.196 -0.1262 -0.0330 -0.5505
   59MOL   C44142317   3.105   7.249   6.274  0.3255  0.5013  0.2416
   59MOL   O44242318   3.046   7.368   6.213 -0.4527  0.4210 -0.6315
   59MOL   C44342319   3.110   7.487   6.225  0.2360 -0.8562 -0.4701
   59MOL   O44442320   3.202   7.509   6.301 -0.1714 -0.1245 -0.1925
   59MOL   C44542321   3.041   7.603   6.143  0.5712 -0.6208 -0.7434
   59MOL   C44642322   2.898   7.569   6.096 -1.1057  0.7412  0.0145
   59MOL   C44742323   3.040   7.741   6.207 -0.8899  0.1778  0.0836
   59MOL   H44842324   3.457   6.533   6.549  1.4028 -0.2342 -1.9837
   59MOL   H44942325   3.437   6.710   6.594 -0.7547  0.3248  0.4065
   59MOL   H45042326   3.550   6.667   6.475 -2.2577  0.6120 -4.7368
   59MOL   H45142327   3.253   6.606   6.476  0.3497 -0.1041 -0.1723
   59MOL   H45242328   3.356   6.542   6.349 -1.4393  0.5568 -1.0707
   59MOL   H45342329   3.402   6.754   6.266  0.5810  0.5383  0.7499
   59MOL   H45442330   3.329   6.847   6.391  0.6124  0.2847 -1.4093
   59MOL   H45542331   3.100   6.725   6.312  0.3936 -0.4702  0.2179
   59MOL   H45642332   3.201   6.679   6.179 -0.3993  0.0094 -0.8206
   59MOL   H45742333   3.224   6.896   6.095  0.7848 -0.5951  0.2018
   59MOL   H45842334   3.053   6.864   6.128 -0.2255 -1.1341  0.0490
   59MOL   H45942335   3.238   7.023   6.314 -0.2971  0.1474 -0.5554
   59MOL   H46042336   3.069   6.969   6.349 -0.7689  0.8696  0.1329
   59MOL   H46142337   3.147   7.135   6.108  1.3640 -0.9111  0.3895
   59MOL   H46242338   2.980   7.111   6.162 -0.2482 -0.6277  0.0168
   59MOL   H46342339   3.212   7.255   6.293  0.4163 -1.4436  0.3996
   59MOL   H46442340   3.054   7.253   6.370  0.7662  0.6149  0.4707
   59MOL   H46542341   2.857   7.643   6.028 -1.8145 -0.3602 -0.7552
   59MOL   H46642342   2.881   7.473   6.048  2.1977  0.6838 -1.1900
   59MOL   H46742343   2.826   7.553   6.176 -0.5876  0.3411  0.4084
   59MOL   H46842344   3.141   7.757   6.244 -0.6707  0.3227 -0.5688
   59MOL   H46942345   3.027   0.037   6.129 -2.3882 -2.2275 -2.0787
   59MOL   C47042346   1.956   0.076   6.576  0.4543 -0.1952  0.2501
   59MOL   C47142347   2.066   0.094   6.472 -0.2224  0.3475 -0.2182
   59MOL   C47242348   2.054   0.223   6.392  0.3349 -0.2239 -0.3807
   59MOL   C47342349   2.154   0.222   6.266  0.5378 -0.3290  0.3158
   59MOL   C47442350   2.296   0.174   6.301  0.4748  0.4834 -0.4269
   59MOL   C47542351   2.375   0.263   6.403  0.4783 -0.3402  0.3012
   59MOL   C47642352   2.514   0.205   6.444 -0.2614 -0.0404  0.4728
   59MOL   C47742353   2.606   0.186   6.329 -0.4242 -0.6971  0.6308
   59MOL   O47842354   2.731   0.123   6.368 -0.5208 -0.0451  0.8736
   59MOL   C47942355   2.802   0.051   6.274 -0.3011 -0.3523 -0.0174
   59MOL   O48042356   2.760   0.027   6.162  0.1718 -0.3299  0.2590
   59MOL   C48142357   2.940   0.003   6.323 -0.2998 -0.2964 -0.2232
   59MOL   C48242358   2.912   7.669   6.424 -0.0870 -0.2973 -0.3797
   59MOL   C48342359   3.014   0.110   6.415  0.5963 -0.2546  0.4507
   59MOL   H48442360   1.953   0.161   6.643 -2.0720  0.8501 -1.1267
   59MOL   H48542361   1.963   7.770   6.644  1.3310  0.6506  1.2472
   59MOL   H48642362   1.855   0.063   6.538  1.0713  0.8188 -1.7632
   59MOL   H48742363   2.162   0.096   6.524  0.2559  0.5426 -1.0899
   59MOL   H48842364   2.073   0.006   6.408 -0.5883 -1.2541  1.9038
   59MOL   H48942365   1.950   0.237   6.362  0.0087  1.1209  1.3384
   59MOL   H49042366   2.072   0.309   6.456 -3.3223  0.7389 -0.5502
   59MOL   H49142367   2.114   0.155   6.189  1.3564 -0.7195  0.2181
   59MOL   H49242368   2.144   0.318   6.215 -0.6888  0.5362  2.1530
   59MOL   H49342369   2.293   0.074   6.344  0.4699  0.7340  0.1586
   59MOL   H49442370   2.359   0.163   6.213 -1.0101  1.6928 -1.6799
   59MOL   H49542371   2.398   0.361   6.361  1.8299  0.1336  2.1306
   59MOL   H49642372   2.313   0.269   6.492 -2.1075  0.0290 -1.4437
   59MOL   H49742373   2.559   0.282   6.505 -0.5631  1.9248 -1.7272
   59MOL   H49842374   2.502   0.123   6.515 -2.9231  2.6487  3.3213
   59MOL   H49942375   2.630   0.284   6.287  0.6317 -0.7936  0.9862
   59MOL   H50042376   2.559   0.127   6.250 -0.6242  2.5944 -1.8563
   59MOL   H50142377   2.876   7.702   6.522 -1.0911 -1.0851 -0.4753
   59MOL   H50242378   3.001   7.612   6.450 -0.2090 -0.7360 -0.9370
   59MOL   H50342379   2.842   7.595   6.387  0.0886  0.2578 -1.8608
   59MOL   H50442380   2.941   0.128   6.494 -3.1692  0.5198 -3.0086
   59MOL   H50542381   3.093   0.051   6.461  0.1204 -0.2500  1.2867
   59MOL   C50642382   3.509   7.120   6.174 -0.0459 -0.1257  0.3587
   59MOL   C50742383   3.607   7.219   6.243 -0.4160  0.5156 -0.1378
   59MOL   C50842384   3.537   7.325   6.315  0.3300  0.1044 -0.6786
   59MOL   C50942385   3.628   7.414   6.400  0.6865  0.3714 -0.6130
   59MOL   C51042386   3.549   7.529   6.475 -0.9272  0.5213  0.2059
   59MOL   C51142387   3.528   7.653   6.383  0.1214  0.7854 -0.3290
   59MOL   C51242388   3.431   7.751   6.431  0.6005  0.0265 -0.5408
   59MOL   C51342389   3.390   0.067   6.313  0.3265 -0.2267  0.5716
   59MOL   O51442390   3.294   0.153   6.371  0.1726  0.3524  0.3230
   59MOL   C51542391   3.211   0.222   6.288  0.3397  0.2017  0.4859
   59MOL   O51642392   3.219   0.245   6.165  0.7874  0.2965 -0.1551
   59MOL   C51742393   3.072   0.249   6.357  0.4133 -0.3918 -0.4371
   59MOL   C51842394   2.978   0.321   6.254  0.3818 -0.0068  0.1965
   59MOL   C51942395   3.091   0.339   6.485  0.4452  0.4990  0.0449
   59MOL   H52042396   3.449   7.072   6.252  0.0565  0.0179  0.5274
   59MOL   H52142397   3.567   7.035   6.139  1.0820 -0.9704  4.0590
   59MOL   H52242398   3.451   7.174   6.099  0.7627  0.0826 -0.1184
   59MOL   H52342399   3.672   7.262   6.166  1.2762 -0.3396  0.7921
   59MOL   H52442400   3.669   7.161   6.311 -1.2074 -0.4355 -0.2128
   59MOL   H52542401   3.486   7.392   6.246 -0.9096  1.5333  1.5387
   59MOL   H52642402   3.463   7.281   6.383 -0.2473  0.4173 -1.0991
   59MOL   H52742403   3.684   7.353   6.472  0.7064  0.6782 -0.3665
   59MOL   H52842404   3.703   7.465   6.341  1.9478  1.5624  1.9326
   59MOL   H52942405   3.458   7.495   6.525 -0.3851  0.6589  1.3026
   59MOL   H53042406   3.603   7.568   6.562 -2.2272  4.4164 -0.6142
   59MOL   H53142407   3.501   7.615   6.284  0.3834  0.0693 -0.1252
   59MOL   H53242408   3.625   7.701   6.368  1.3484 -1.3443  0.6060
   59MOL   H53342409   3.470   0.027   6.517  0.9686 -0.7972 -0.1710
   59MOL   H53442410   3.340   7.701   6.464  0.8893 -0.9333 -1.1974
   59MOL   H53542411   3.353   0.009   6.229 -0.6377 -1.1421  1.6143
   59MOL   H53642412   3.475   0.126   6.280  1.7193 -3.3262 -1.6257
   59MOL   H53742413   2.949   0.252   6.175 -1.0561 -0.0221  0.7326
   59MOL   H53842414   3.022   0.411   6.212 -0.6050 -0.2852 -1.4772
   59MOL   H53942415   2.884   0.336   6.308 -0.1957 -1.9284 -0.2518
   59MOL   H54042416   2.999   0.334   6.544  1.2784  1.0551  1.4200
   59MOL   H54142417   3.159   0.290   6.555 -0.9938 -0.7870  0.5785
   59MOL   C54242418   2.085   0.586   6.152 -0.6533 -0.3191 -0.2231
   59MOL   C54342419   2.153   0.686   6.249  0.0303  0.9731  0.5439
   59MOL   C54442420   2.246   0.617   6.348 -0.5809  0.7850  0.9181
   59MOL   C54542421   2.351   0.712   6.410 -0.1382  0.2863 -0.4861
   59MOL   C54642422   2.468   0.656   6.496 -0.1372 -0.2754  0.3522
   59MOL   C54742423   2.577   0.757   6.551 -0.7409  0.2398 -0.2383
   59MOL   C54842424   2.709   0.674   6.584  0.3072 -0.0872  0.2589
   59MOL   C54942425   2.783   0.633   6.459 -0.4210  0.0743  0.3128
   59MOL   O55042426   2.902   0.563   6.499 -0.6615  0.4026 -0.8935
   59MOL   C55142427   3.021   0.576   6.434  0.5805 -0.2506 -0.2504
   59MOL   O55242428   3.043   0.659   6.347  0.1393 -0.0871 -0.7594
   59MOL   C55342429   3.135   0.489   6.483 -0.0748 -0.9593  0.3799
   59MOL   C55442430   3.262   0.504   6.404  0.2006  0.1373  0.3264
   59MOL   C55542431   3.157   0.528   6.637  0.2887 -0.6897 -0.5022
   59MOL   H55642432   2.064   0.635   6.057  1.7546 -1.8636 -1.5800
   59MOL   H55742433   1.987   0.555   6.191 -0.1443 -2.2347 -0.4404
   59MOL   H55842434   2.149   0.498   6.144  0.6911  0.5016  1.1874
   59MOL   H55942435   2.211   0.759   6.192 -1.0258  0.8883 -0.6680
   59MOL   H56042436   2.079   0.753   6.294  0.9661  3.0460 -0.9126
   59MOL   H56142437   2.288   0.531   6.295 -3.6300  0.9215 -1.8902
   59MOL   H56242438   2.189   0.568   6.428  1.5450  1.6999  3.0394
   59MOL   H56342439   2.400   0.776   6.337  0.2675  2.3478  1.5076
   59MOL   H56442440   2.293   0.782   6.471  0.3132 -0.1537  0.4627
   59MOL   H56542441   2.508   0.569   6.443 -1.6313 -0.6815 -0.1607
   59MOL   H56642442   2.413   0.613   6.580  1.7748  0.2175  1.8645
   59MOL   H56742443   2.596   0.831   6.473 -0.4774  1.5924  1.1035
   59MOL   H56842444   2.539   0.796   6.645 -1.4002 -1.9433  0.4424
   59MOL   H56942445   2.779   0.729   6.647  0.1731 -0.1381  0.4522
   59MOL   H57042446   2.697   0.581   6.640  0.5689  1.6797  3.3914
   59MOL   H57142447   2.797   0.717   6.392 -0.2022 -1.9355 -2.2218
   59MOL   H57242448   2.720   0.570   6.397  1.1006 -1.7064  0.5404
   59MOL   H57342449   3.335   0.433   6.442  0.6887  1.5082  2.0166
   59MOL   H57442450   3.297   0.607   6.401 -0.8423  0.5039  0.4497
   59MOL   H57542451   3.247   0.490   6.297 -1.8891  2.0575  0.3267
   59MOL   H57642452   3.217   0.461   6.699  1.9312  1.6034  0.4639
   59MOL   H57742453   3.064   0.521   6.694  0.0086 -1.8719 -1.0820
   59MOL   C57842454   3.336   1.578   6.132 -0.2330  0.1777  1.0265
   59MOL   C57942455   3.347   1.433   6.167 -0.1354  0.1705 -0.0016
   59MOL   C58042456   3.474   1.380   6.234  1.0360  0.3969 -0.4826
   59MOL   C58142457   3.490   1.231   6.247 -0.2550  0.5689  0.2919
   59MOL   C58242458   3.598   1.174   6.339 -0.0208  0.0385  0.1920
   59MOL   C58342459   3.590   1.026   6.365 -0.5949 -0.5935 -0.6343
   59MOL   C58442460   3.461   0.979   6.436  0.3107 -0.1028 -0.6165
   59MOL   C58542461   3.478   0.848   6.514  0.2800  0.7155 -0.2909
   59MOL   O58642462   3.351   0.797   6.561  0.4849  0.4695 -0.2521
   59MOL   C58742463   3.347   0.699   6.652 -0.2098  0.3693 -0.9641
   59MOL   O58842464   3.439   0.635   6.698  0.1797 -0.2467  0.1590
   59MOL   C58942465   3.206   0.668   6.703  0.0609  0.3366  0.0794
   59MOL   C59042466   3.205   0.646   6.854  0.3358 -0.9315  0.3763
   59MOL   C59142467   3.101   0.781   6.662  0.5823  0.3021 -0.0370
   59MOL   H59242468   3.357   1.642   6.217  3.1316 -0.8447  1.0505
   59MOL   H59342469   3.236   1.588   6.089  0.7426 -2.0934 -1.8860
   59MOL   H59442470   3.419   1.607   6.067  0.1701  0.7993  1.8105
   59MOL   H59542471   3.356   1.367   6.081  2.2961  1.7127 -0.9859
   59MOL   H59642472   3.261   1.403   6.226  0.9022 -1.8335  0.5152
   59MOL   H59742473   3.471   1.423   6.334  0.0725  2.7352 -1.4623
   59MOL   H59842474   3.552   1.438   6.183  0.5064  0.1629 -1.5629
   59MOL   H59942475   3.507   1.197   6.145  0.3157 -0.5444  0.7518
   59MOL   H60042476   3.388   1.195   6.263 -0.9871  2.2617 -0.4600
   59MOL   H60142477   3.596   1.219   6.438 -0.7737  1.3533 -0.4062
   59MOL   H60242478   3.699   1.186   6.300 -0.2838  2.2496  0.1424
   59MOL   H60342479   3.673   1.005   6.434  1.2370  2.7224 -1.7319
   59MOL   H60442480   3.608   0.971   6.273 -3.0633 -0.3593 -1.2713
   59MOL   H60542481   3.377   0.960   6.369  0.0801 -0.9832 -0.1019
   59MOL   H60642482   3.430   1.047   6.515  4.0086 -0.1744  0.9870
   59MOL   H60742483   3.538   0.777   6.457 -0.6206 -0.8199  0.6501
   59MOL   H60842484   3.544   0.877   6.597  1.1769 -1.3487 -0.2471
   59MOL   H60942485   3.223   0.737   6.911 -0.5895 -1.3342  1.3316
   59MOL   H61042486   3.107   0.624   6.896  0.0234 -1.1878 -0.4728
   59MOL   H61142487   3.262   0.557   6.879 -0.7736 -1.6786  0.2881
   59MOL   H61242488   3.006   0.729   6.661  0.7493 -0.0029 -2.9546
   59MOL   H61342489   3.113   0.805   6.556 -0.3027 -1.7707 -0.6313
   59MOL   C61442490   2.669   7.748   6.775  0.7711  0.8362  0.3226
   59MOL   C61542491   2.706   0.119   6.755  0.3490  0.6966  0.2229
   59MOL   C61642492   2.810   0.162   6.867 -0.0904  0.1985 -0.8323
   59MOL   C61742493   2.863   0.306   6.868 -0.0205 -0.6525 -0.0658
   59MOL   C61842494   2.759   0.421   6.883 -0.0543  0.6927  0.1487
   59MOL   C61942495   2.826   0.557   6.904 -0.9105  0.2957 -0.0224
   59MOL   C62042496   2.731   0.679   6.942  0.3610 -0.0215 -0.6937
   59MOL   C62142497   2.806   0.809   6.959  0.1025  0.4147 -0.1229
   59MOL   O62242498   2.887   0.848   6.847  0.1411 -0.1669 -0.0159
   59MOL   C62342499   3.006   0.916   6.856  0.1620  0.6430  0.2338
   59MOL   O62442500   3.040   0.974   6.959  0.4023 -0.2198 -0.4172
   59MOL   C62542501   3.087   0.921   6.728 -0.3516  0.4455 -1.0754
   59MOL   C62642502   3.224   0.978   6.759  0.2219 -0.4476  0.2935
   59MOL   C62742503   3.021   1.016   6.626  0.2218  0.3337 -0.4442
   59MOL   H62842504   2.746   7.685   6.732 -0.3880  2.2793 -4.1792
   59MOL   H62942505   2.575   7.717   6.730  1.0265  0.5451 -0.0109
   59MOL   H63042506   2.661   7.732   6.883 -0.0766  0.3000  0.1852
   59MOL   H63142507   2.760   0.138   6.663 -0.2666  0.2415 -0.2335
   59MOL   H63242508   2.622   0.189   6.753 -0.2105  0.0327  0.3480
   59MOL   H63342509   2.891   0.090   6.861  0.7606  1.0553  0.2997
   59MOL   H63442510   2.777   0.146   6.969 -2.3022  1.5303 -1.2890
   59MOL   H63542511   2.920   0.319   6.776  0.2149 -0.5480  0.0948
   59MOL   H63642512   2.932   0.316   6.952  0.2842 -2.5815 -0.0597
   59MOL   H63742513   2.690   0.426   6.799  0.4102  0.5899 -0.2387
   59MOL   H63842514   2.703   0.418   6.977 -0.1189  2.9966  0.2027
   59MOL   H63942515   2.897   0.556   6.987 -0.1812  1.5623 -0.6246
   59MOL   H64042516   2.886   0.572   6.815  0.4888 -0.1400  0.8267
   59MOL   H64142517   2.658   0.665   7.022 -0.3049  1.3213 -1.0363
   59MOL   H64242518   2.664   0.693   6.857  1.4062  1.2887 -1.3249
   59MOL   H64342519   2.743   0.894   6.987  2.2221  2.1909 -0.5576
   59MOL   H64442520   2.877   0.783   7.037 -0.3414  0.0571  0.1639
   59MOL   H64542521   3.221   1.068   6.820  0.2133  0.1412 -0.5775
   59MOL   H64642522   3.266   1.006   6.663 -0.4277 -0.4450  0.0062
   59MOL   H64742523   3.295   0.915   6.813 -1.2950 -1.5146  1.0884
   59MOL   H64842524   2.939   0.950   6.600 -1.2722  1.2202  1.8989
   59MOL   H64942525   3.082   1.034   6.537 -0.9458 -1.5816 -1.6586
   59MOL   C65042526   2.837   1.813   6.128  0.4333 -0.4090 -0.1815
   59MOL   C65142527   2.889   1.672   6.140  0.4548 -0.4128  0.3855
   59MOL   C65242528   2.958   1.635   6.271  0.2871 -0.0608  0.8526
   59MOL   C65342529   3.055   1.735   6.322 -0.2600 -0.7361  0.0189
   59MOL   C65442530   3.098   1.712   6.468 -0.2001 -0.5182 -0.2626
   59MOL   C65542531   3.169   1.576   6.493 -0.6448 -0.1025  0.1636
   59MOL   C65642532   3.194   1.533   6.639  0.2283  0.6131 -0.1477
   59MOL   C65742533   3.246   1.390   6.659  1.0116  0.4926  0.0849
   59MOL   O65842534   3.156   1.285   6.621  0.2645  0.0381 -0.0529
   59MOL   C65942535   3.052   1.248   6.706 -0.2462  0.7292 -0.2568
   59MOL   O66042536   3.039   1.299   6.816  0.4452 -0.7505 -0.0272
   59MOL   C66142537   2.948   1.155   6.649  0.2540 -0.0170  0.1120
   59MOL   C66242538   2.827   1.139   6.737  0.5542  0.9426  0.0297
   59MOL   C66342539   2.899   1.226   6.515 -0.1936 -0.1741  0.2132
   59MOL   H66442540   2.791   1.832   6.031  2.5559 -0.4505 -1.2142
   59MOL   H66542541   2.929   1.871   6.137  1.0451 -1.4453  0.3642
   59MOL   H66642542   2.765   1.847   6.203  0.6566  0.7616 -0.4944
   59MOL   H66742543   2.958   1.656   6.057  1.2026  0.4577  0.8386
   59MOL   H66842544   2.807   1.605   6.114  0.4459  0.2203 -1.2707
   59MOL   H66942545   3.007   1.538   6.261  0.0394  0.0386 -1.6692
   59MOL   H67042546   2.882   1.609   6.345  0.0955 -2.7669 -0.2316
   59MOL   H67142547   3.020   1.838   6.325  1.9945  0.0754 -0.7031
   59MOL   H67242548   3.145   1.732   6.260 -0.5140 -0.6589 -0.3523
   59MOL   H67342549   3.025   1.728   6.548  1.8907  2.9461  1.0827
   59MOL   H67442550   3.177   1.783   6.493  1.8694 -3.0405  0.6024
   59MOL   H67542551   3.102   1.496   6.462  1.0858 -1.4134 -0.3072
   59MOL   H67642552   3.258   1.561   6.432 -0.3733  1.4301  0.1796
   59MOL   H67742553   3.112   1.549   6.710  0.7581 -3.7926  1.6556
   59MOL   H67842554   3.273   1.595   6.682  1.8400 -1.5637  0.0959
   59MOL   H67942555   3.281   1.374   6.761  0.5730  0.8842  0.2956
   59MOL   H68042556   3.341   1.381   6.606 -0.1868 -1.2565 -1.8801
   59MOL   H68142557   2.752   1.218   6.737  0.1813  0.5928  0.2902
   59MOL   H68242558   2.861   1.120   6.839  0.6766  2.2785  0.2440
   59MOL   H68342559   2.778   1.046   6.710  1.2056  0.4600  0.4962
   59MOL   H68442560   2.805   1.277   6.534 -0.6392 -1.0122  0.2953
   59MOL   H68542561   2.964   1.310   6.491 -0.5602 -0.0714 -0.4388
   59MOL   C68642562   3.772   0.693   5.873 -0.0348 -0.4113  0.1450
   59MOL   C68742563   3.641   0.615   5.891  0.8450  0.4479 -0.3723
   59MOL   C68842564   3.549   0.705   5.979 -0.5710  0.4572  0.0242
   59MOL   C68942565   3.411   0.642   6.007  0.2251  0.2577 -0.1900
   59MOL   C69042566   3.322   0.722   6.098  0.0439  0.6199 -0.2571
   59MOL   C69142567   3.269   0.856   6.038 -0.4281 -0.1094 -0.5508
   59MOL   C69242568   3.162   0.910   6.129  0.2424  0.1204 -0.2248
   59MOL   C69342569   3.104   1.046   6.093 -0.1907 -0.1641 -0.6018
   59MOL   O69442570   2.998   1.079   6.180 -0.2295 -0.0540 -0.2471
   59MOL   C69542571   3.020   1.146   6.298 -0.3523 -1.4701  0.2678
   59MOL   O69642572   3.128   1.191   6.340 -0.1488 -0.9951  0.2901
   59MOL   C69742573   2.882   1.160   6.377  0.1810  0.1380  0.0382
   59MOL   C69842574   2.794   1.258   6.293  0.2230  0.5398  0.5044
   59MOL   C69942575   2.804   1.029   6.380 -1.0583 -0.4206 -0.4590
   59MOL   H70042576   3.822   0.714   5.967 -1.1803  0.2710  0.6040
   59MOL   H70142577   3.763   0.792   5.830  2.0544 -0.3520 -0.2370
   59MOL   H70242578   3.837   0.631   5.810  1.4438  1.7502 -0.4970
   59MOL   H70342579   3.654   0.518   5.937 -1.2963  0.4304  0.2482
   59MOL   H70442580   3.592   0.587   5.797  1.1217 -0.6804 -0.1866
   59MOL   H70542581   3.538   0.802   5.932 -1.0282  0.0060 -0.8191
   59MOL   H70642582   3.602   0.729   6.071 -0.8536  2.4698 -0.3219
   59MOL   H70742583   3.430   0.545   6.053 -3.2823 -0.4089 -0.0148
   59MOL   H70842584   3.346   0.618   5.923 -0.2944  2.6742 -0.4951
   59MOL   H70942585   3.374   0.737   6.193  0.8513 -0.1292 -0.5652
   59MOL   H71042586   3.234   0.661   6.117  0.5108 -0.0746 -0.2806
   59MOL   H71142587   3.347   0.932   6.035 -0.5728  0.0761  0.2629
   59MOL   H71242588   3.224   0.842   5.940 -1.1682 -1.4899 -0.0302
   59MOL   H71342589   3.087   0.835   6.152  1.5281 -0.5668  1.9089
   59MOL   H71442590   3.214   0.920   6.224 -0.5872 -1.1034  0.3677
   59MOL   H71542591   3.053   1.043   5.997  0.9687 -3.8268 -1.1552
   59MOL   H71642592   3.185   1.118   6.101 -1.1266  1.0099 -1.3557
   59MOL   H71742593   2.832   1.360   6.281 -0.7275  0.9609  1.0535
   59MOL   H71842594   2.790   1.242   6.185 -1.5368  2.7587  0.2101
   59MOL   H71942595   2.694   1.257   6.336  0.2295 -0.3492  0.5124
   59MOL   H72042596   2.749   1.028   6.286  0.4682  0.2205 -1.3807
   59MOL   H72142597   2.739   1.022   6.467  0.6140  0.0873  0.8693
   59MOL   H72242598   2.877   0.949   6.395 -1.5032 -0.5662  1.0225
   60MOL     C142599   6.497   0.212   0.948 -0.5400 -0.4447 -0.0940
   60MOL     C242600   6.509   0.236   0.795 -0.1214  0.9946 -0.2281
   60MOL     C342601   6.531   0.383   0.752 -0.0962 -1.1649 -0.0088
   60MOL     C442602   6.403   0.465   0.768  0.5565 -0.5412 -0.2867
   60MOL     C542603   6.297   0.436   0.658  0.5783  0.2907  0.1423
   60MOL     C642604   6.164   0.524   0.649  0.1393  0.2447 -0.6445
   60MOL     C742605   6.092   0.521   0.516 -0.1498  0.6943  0.4411
   60MOL     C842606   5.978   0.620   0.511  1.0922 -0.2069 -0.0218
   60MOL     O942607   5.871   0.578   0.599 -0.4565  0.1956 -0.7992
   60MOL    C1042608   5.763   0.510   0.549  0.5607  0.1840 -0.0388
   60MOL    O1142609   5.713   0.530   0.438  0.1974 -0.1024  0.7206
   60MOL    C1242610   5.692   0.416   0.642  0.3945  0.0930 -1.1289
   60MOL    C1342611   5.638   0.503   0.758 -0.1153  0.2262 -0.0050
   60MOL    C1442612   5.582   0.330   0.574  0.1975 -0.4454 -0.3852
   60MOL    H1542613   6.448   0.117   0.975  0.0963 -1.1914 -1.5271
   60MOL    H1642614   6.438   0.290   0.997 -0.3932 -1.4268  1.6914
   60MOL    H1742615   6.593   0.224   0.998  0.4010  0.2431 -2.0577
   60MOL    H1842616   6.421   0.197   0.744  0.1585 -1.5904  1.1732
   60MOL    H1942617   6.584   0.164   0.762 -2.4246 -0.5843 -2.1400
   60MOL    H2042618   6.620   0.422   0.800 -2.4588  1.0129  2.8552
   60MOL    H2142619   6.555   0.372   0.647 -1.8069 -0.8163 -0.4601
   60MOL    H2242620   6.369   0.454   0.871 -0.7699 -2.6699 -0.9388
   60MOL    H2342621   6.441   0.568   0.768 -2.1529  0.5042 -1.7861
   60MOL    H2442622   6.270   0.331   0.667  1.4944  0.1655  1.6212
   60MOL    H2542623   6.348   0.445   0.563  1.0770 -2.2356  0.1394
   60MOL    H2642624   6.189   0.622   0.689 -0.4548 -0.5336  1.7013
   60MOL    H2742625   6.097   0.493   0.730 -0.7004  0.9655 -1.0560
   60MOL    H2842626   6.063   0.416   0.507  1.8725  0.1052  0.4634
   60MOL    H2942627   6.161   0.539   0.434  0.7543 -0.1505  0.9968
   60MOL    H3042628   5.954   0.628   0.405 -0.7949  1.5751  0.5024
   60MOL    H3142629   6.019   0.716   0.540 -1.1822  0.2301  1.8995
   60MOL    H3242630   5.600   0.438   0.836  3.5072  0.3907  1.9882
   60MOL    H3342631   5.700   0.581   0.804 -2.2896  1.8835  0.2047
   60MOL    H3442632   5.561   0.571   0.720 -2.0643 -1.5512  0.7104
   60MOL    H3542633   5.524   0.389   0.502  0.3834 -1.0944 -1.0821
   60MOL    H3642634   5.505   0.312   0.648  0.6751 -0.1737  0.1818
   60MOL    H3742635   5.770   0.353   0.683 -0.4912  0.0226  0.4752
   60MOL    C3842636   5.498   0.009   1.741 -0.2263 -0.3617 -0.5773
   60MOL    C3942637   5.546   7.730   1.610 -0.3432  0.5730 -0.6536
   60MOL    C4042638   5.554   0.052   1.492 -0.1659  0.4596  0.6848
   60MOL    C4142639   5.603   7.767   1.361  0.4086 -0.3966  0.0966
   60MOL    C4242640   5.572   0.075   1.234  0.3058 -0.1736 -0.5787
   60MOL    C4342641   5.620   0.002   1.110 -0.0276  0.5156 -0.2838
   60MOL    C4442642   5.591   0.082   0.989  0.3507  0.0763 -0.0187
   60MOL    C4542643   5.646   0.020   0.858  0.1807 -0.4432  0.3280
   60MOL    O4642644   5.600   0.092   0.747 -0.0162  0.1623 -0.0138
   60MOL    C4742645   5.684   0.115   0.642  0.8499  0.4909 -0.1710
   60MOL    O4842646   5.807   0.083   0.639  0.4020  0.2991 -0.2239
   60MOL    C4942647   5.619   0.188   0.519 -0.4446  0.5264 -0.1521
   60MOL    C5042648   5.731   0.207   0.407  0.0256 -0.0496 -0.4436
   60MOL    C5142649   5.488   0.107   0.480 -0.4325 -0.5740  0.8644
   60MOL    H5242650   5.584   0.058   1.788  1.6221 -2.5293 -1.6190
   60MOL    H5342651   5.463   7.713   1.811  1.7209  0.1532  0.9859
   60MOL    H5442652   5.420   0.086   1.744 -0.7061 -0.8537 -0.4609
   60MOL    H5542653   5.464   7.668   1.575 -0.4026  0.9187 -1.1305
   60MOL    H5642654   5.634   7.668   1.629 -0.6695  0.8294  1.9440
   60MOL    H5742655   5.451   0.088   1.486 -0.4116 -0.1813  0.9825
   60MOL    H5842656   5.622   0.133   1.517 -1.2249  1.0771  1.6107
   60MOL    H5942657   5.554   7.669   1.359 -2.2584  0.8974  0.2378
   60MOL    H6042658   5.710   7.748   1.372  0.3905 -0.0966  0.8000
   60MOL    H6142659   5.472   0.111   1.209  0.0702 -0.1951  0.3037
   60MOL    H6242660   5.619   0.172   1.250  2.6654 -1.4171  0.2137
   60MOL    H6342661   5.724   7.759   1.134 -0.6700 -0.2432  1.9200
   60MOL    H6442662   5.568   7.686   1.100  5.1962 -2.3433 -2.3116
   60MOL    H6542663   5.625   0.185   0.995  1.5869 -0.2701 -0.9189
   60MOL    H6642664   5.483   0.087   0.975  0.5210 -1.5080 -2.2412
   60MOL    H6742665   5.620   7.697   0.836  1.3234 -0.3194 -1.6658
   60MOL    H6842666   5.755   0.018   0.864  0.2373  1.1010 -0.0731
   60MOL    H6942667   5.810   0.274   0.441  0.2212 -1.8262  2.8074
   60MOL    H7042668   5.775   0.113   0.378  0.9624  0.7974 -1.7925
   60MOL    H7142669   5.689   0.241   0.312  0.0600 -1.2280 -0.8878
   60MOL    H7242670   5.423   0.184   0.440  0.4427  0.2667  1.0499
   60MOL    H7342671   5.423   0.100   0.567  1.4688  0.8446  2.4435
   60MOL    C7442672   5.245   0.960   0.326 -0.0968  0.1708 -0.2326
   60MOL    C7542673   5.292   0.814   0.319 -0.0608  0.1234  0.3414
   60MOL    C7642674   5.407   0.790   0.221 -0.6510  0.0956 -0.3989
   60MOL    C7742675   5.446   0.641   0.230 -0.4865  0.6691  0.1511
   60MOL    C7842676   5.363   0.545   0.150  0.1654 -0.5807  0.5473
   60MOL    C7942677   5.412   0.398   0.172  0.3966 -0.3161 -0.1995
   60MOL    C8042678   5.363   0.296   0.074 -0.1557  0.3132 -0.3362
   60MOL    C8142679   5.438   0.164   0.079 -0.3944 -0.2197  0.4757
   60MOL    O8242680   5.427   0.111   0.203  0.1406 -0.1030  0.1912
   60MOL    C8342681   5.522   0.029   0.251 -0.3097  0.1017 -0.6154
   60MOL    O8442682   5.626   7.775   0.193  0.5963  0.2060  0.1789
   60MOL    C8542683   5.486   7.763   0.394  0.0631  0.4257 -0.1392
   60MOL    C8642684   5.596   7.660   0.439  0.1684  0.3108 -0.0277
   60MOL    C8742685   5.346   7.694   0.391  0.7220 -0.1827 -0.7015
   60MOL    H8842686   5.209   0.992   0.228  0.7530 -2.1958 -1.3506
   60MOL    H8942687   5.324   1.030   0.354 -0.0432 -1.2333  3.4473
   60MOL    H9042688   5.159   0.976   0.392  1.9091  0.2366  2.4244
   60MOL    H9142689   5.213   0.753   0.274  1.7555 -2.8750  1.0709
   60MOL    H9242690   5.310   0.761   0.412 -0.7482 -2.7762 -1.1193
   60MOL    H9342691   5.385   0.824   0.120 -0.5427  0.7511 -0.2063
   60MOL    H9442692   5.495   0.841   0.262 -2.5603  2.3653  1.0100
   60MOL    H9542693   5.453   0.600   0.331  1.7081 -1.4341 -0.8083
   60MOL    H9642694   5.544   0.627   0.185 -1.4538 -0.4265 -1.6960
   60MOL    H9742695   5.255   0.547   0.163 -0.1227 -4.6569 -0.3324
   60MOL    H9842696   5.381   0.568   0.045  0.6956  2.2290  1.2400
   60MOL    H9942697   5.518   0.380   0.159 -0.0080 -1.3038 -2.4423
   60MOL   H10042698   5.371   0.365   0.268 -1.6084  2.8234  0.1051
   60MOL   H10142699   5.256   0.275   0.078  0.2029 -1.3130  2.5117
   60MOL   H10242700   5.370   0.347   7.757  2.4959 -1.0495 -0.9323
   60MOL   H10342701   5.540   0.172   0.042  0.2967  0.3069  2.4574
   60MOL   H10442702   5.389   0.100   0.005  1.5623 -0.1496 -0.9357
   60MOL   H10542703   5.598   7.572   0.375  2.7399  2.0073 -2.4082
   60MOL   H10642704   5.585   7.631   0.543 -0.8010 -0.9452 -0.4689
   60MOL   H10742705   5.697   7.697   0.420  0.9500 -2.1047 -0.7222
   60MOL   H10842706   5.337   7.685   0.499  0.6801  0.8468 -0.6149
   60MOL   H10942707   5.274   7.770   0.363 -0.7376 -0.5647  1.8775
   60MOL   C11042708   4.606   6.921   0.946  0.0337 -0.0355 -0.0801
   60MOL   C11142709   4.685   6.986   0.833  0.7966  0.3233 -0.4081
   60MOL   C11242710   4.822   7.044   0.860 -0.7375  0.8703 -0.2935
   60MOL   C11342711   4.893   7.102   0.735  0.3493  0.5695  0.2882
   60MOL   C11442712   5.022   7.167   0.783 -0.1757  0.3198 -0.2464
   60MOL   C11542713   5.111   7.224   0.670 -0.2720  0.1693  0.0598
   60MOL   C11642714   5.233   7.292   0.724 -1.0103 -0.4201  0.4103
   60MOL   C11742715   5.342   7.321   0.619  0.1350  0.1180 -0.4537
   60MOL   O11842716   5.315   7.436   0.534  0.0910  0.2633 -0.1454
   60MOL   C11942717   5.361   7.441   0.415 -0.3423 -0.1458  0.6076
   60MOL   O12042718   5.434   7.351   0.373  0.2923 -0.2427 -1.0085
   60MOL   C12142719   5.311   7.556   0.327 -1.5842  0.0388  0.2161
   60MOL   C12242720   5.377   7.545   0.184  0.3104 -0.4362  0.2326
   60MOL   C12342721   5.153   7.548   0.312 -0.1314 -0.9967 -0.8468
   60MOL   H12442722   4.671   6.864   1.012  1.8225  0.4560 -1.3770
   60MOL   H12542723   4.562   6.996   1.012  0.5499 -1.1119  1.5276
   60MOL   H12642724   4.523   6.863   0.907 -0.0032 -0.1742  0.2020
   60MOL   H12742725   4.624   7.065   0.790  0.3785  1.7139  2.5991
   60MOL   H12842726   4.699   6.912   0.755 -2.0711 -0.2938 -0.4016
   60MOL   H12942727   4.878   6.975   0.924 -1.1045  1.7014  0.9359
   60MOL   H13042728   4.799   7.126   0.928  1.5659  1.0436  0.3171
   60MOL   H13142729   4.908   7.021   0.664 -0.9716 -0.2652  0.9335
   60MOL   H13242730   4.828   7.170   0.680  0.7221  1.6791  1.1889
   60MOL   H13342731   5.081   7.102   0.848 -0.6119 -0.1458 -0.3146
   60MOL   H13442732   4.992   7.255   0.841  1.4595  0.7504 -0.0122
   60MOL   H13542733   5.148   7.134   0.622  1.4308  0.9433 -0.1051
   60MOL   H13642734   5.064   7.292   0.600  0.5850  0.1429 -0.5484
   60MOL   H13742735   5.280   7.216   0.787 -0.9034 -0.8885 -0.2315
   60MOL   H13842736   5.203   7.377   0.786  0.0908 -1.0917  1.8843
   60MOL   H13942737   5.436   7.338   0.672 -1.0399 -1.0110  2.1154
   60MOL   H14042738   5.363   7.233   0.559  0.0258  0.6771 -1.3141
   60MOL   H14142739   5.357   7.449   0.136  0.0752 -0.6051  0.6688
   60MOL   H14242740   5.337   7.624   0.120  2.5649  1.8315  1.5273
   60MOL   H14342741   5.485   7.559   0.182  0.1744  0.6093  0.2210
   60MOL   H14442742   5.122   7.648   0.283  0.5138 -0.8486 -1.0550
   60MOL   H14542743   5.114   7.542   0.414  0.2902 -1.9750 -0.7341
   60MOL   C14642744   5.069   0.629   7.660  0.2486 -0.4730  0.2917
   60MOL   C14742745   5.104   0.484   7.659  0.5140  0.7948 -0.7305
   60MOL   C14842746   5.025   0.404   7.553 -0.8457  0.0867  0.0054
   60MOL   C14942747   5.048   0.260   7.551  0.4420 -0.4230  0.6263
   60MOL   C15042748   5.000   0.188   7.675  0.2549 -0.3997  0.2550
   60MOL   C15142749   4.987   0.037   7.664 -0.7087  0.4388 -0.6888
   60MOL   C15242750   5.126   7.752   7.643  0.0665  0.9200  0.1683
   60MOL   C15342751   5.134   7.611   7.689  0.1438  0.3779  0.4201
   60MOL   O15442752   5.097   7.583   0.044  0.0045 -0.1715 -0.2982
   60MOL   C15542753   5.098   7.454   0.082 -0.0456  0.9470  0.0767
   60MOL   O15642754   5.096   7.360   0.003  0.3994  0.2372 -0.1239
   60MOL   C15742755   5.075   7.429   0.234 -0.1215  0.2031  0.6994
   60MOL   C15842756   5.115   7.285   0.272  0.3263  0.8425 -0.2083
   60MOL   C15942757   4.925   7.463   0.267  0.6476  0.4685  0.1433
   60MOL   H16042758   4.966   0.638   7.693 -0.2063  0.4454 -1.3133
   60MOL   H16142759   5.073   0.668   7.558 -1.2886 -0.2485  0.3144
   60MOL   H16242760   5.131   0.684   7.731  0.6590 -1.1375  0.4513
   60MOL   H16342761   5.209   0.466   7.637  1.4512  3.5695  1.1832
   60MOL   H16442762   5.086   0.448   7.760  0.6019  1.7605 -0.3708
   60MOL   H16542763   5.050   0.447   7.455 -1.5530  3.4577  1.2136
   60MOL   H16642764   4.919   0.420   7.573 -0.8601  2.1035 -1.5225
   60MOL   H16742765   4.993   0.224   7.465  1.9471  2.1427 -1.4672
   60MOL   H16842766   5.150   0.229   7.528  0.5326  1.2179 -1.2464
   60MOL   H16942767   4.905   0.231   7.705 -0.2505  2.3421 -4.8725
   60MOL   H17042768   5.069   0.226   7.750  1.0869  1.3723 -1.3904
   60MOL   H17142769   4.914   0.003   7.590 -0.1365 -1.1566 -0.5390
   60MOL   H17242770   4.953   0.005   7.763  0.4790 -1.0152 -0.7368
   60MOL   H17342771   5.158   7.746   7.539  2.4124  0.7360  0.8638
   60MOL   H17442772   5.196   0.040   7.693 -0.4609  1.6212 -0.0413
   60MOL   H17542773   5.065   7.556   7.626  0.3710 -0.5595  0.9796
   60MOL   H17642774   5.240   7.588   7.673  0.4332  1.9175  0.0463
   60MOL   H17742775   5.067   7.220   0.198 -0.8111  1.3852  0.0560
   60MOL   H17842776   5.089   7.264   0.375 -1.6322  0.8165 -0.6952
   60MOL   H17942777   5.218   7.252   0.253  0.2557  0.9243 -0.7462
   60MOL   H18042778   4.912   7.571   0.259  0.2211  0.5039  1.2668
   60MOL   H18142779   4.914   7.439   0.372  0.3257  1.8708  0.4432
   60MOL   C18242780   5.257   7.750   0.753  0.5698 -0.6245  0.0386
   60MOL   C18342781   5.158   7.750   0.876  0.1396  0.2009  0.0783
   60MOL   C18442782   5.040   7.660   0.845 -0.1460  0.3042 -0.2275
   60MOL   C18542783   4.965   7.695   0.726 -0.0404 -0.0746  0.3078
   60MOL   C18642784   4.830   7.620   0.713  0.3472  0.0253 -0.3537
   60MOL   C18742785   4.757   7.640   0.581 -0.0721 -0.5138  0.1686
   60MOL   C18842786   4.623   7.558   0.569  0.0617  0.2848  0.1706
   60MOL   C18942787   4.564   7.582   0.434 -0.2210  0.3194 -0.1531
   60MOL   O19042788   4.654   7.547   0.330 -0.2548  0.1381  0.0767
   60MOL   C19142789   4.677   7.416   0.292 -0.7899 -0.2173 -0.6334
   60MOL   O19242790   4.602   7.328   0.324 -0.1603  0.7007 -0.9548
   60MOL   C19342791   4.798   7.407   0.195  0.4375 -0.4674  0.5228
   60MOL   C19442792   4.819   7.257   0.157 -0.2051 -0.6710  0.7115
   60MOL   C19542793   4.767   7.492   0.071 -0.3015  0.8010 -0.4159
   60MOL   H19642794   5.341   0.035   0.777 -1.1212  0.7516  2.4302
   60MOL   H19742795   5.297   7.649   0.740  0.7124 -0.5915  0.2294
   60MOL   H19842796   5.208   0.008   0.663 -0.9539 -1.8155  0.3371
   60MOL   H19942797   5.115   0.070   0.875 -1.3421 -0.4216 -2.7762
   60MOL   H20042798   5.210   7.730   0.970  1.7886  0.5461 -0.7506
   60MOL   H20142799   5.062   7.554   0.832 -2.5449 -0.1143 -1.2701
   60MOL   H20242800   4.961   7.668   0.920 -1.8127  0.5328 -1.9770
   60MOL   H20342801   4.950   0.023   0.719 -2.1753 -0.3493  0.5172
   60MOL   H20442802   5.019   7.684   0.632  2.2691  1.7847  1.3538
   60MOL   H20542803   4.768   7.650   0.797 -2.6001 -0.2676 -2.3812
   60MOL   H20642804   4.841   7.513   0.732 -0.7448  0.0563  0.4776
   60MOL   H20742805   4.825   7.614   0.500 -0.0536  0.3856 -0.1098
   60MOL   H20842806   4.734   7.744   0.559 -3.1978 -0.7835  1.9089
   60MOL   H20942807   4.645   7.454   0.592  1.5122  0.8278  1.3205
   60MOL   H21042808   4.548   7.589   0.643 -0.6153 -0.9130 -0.0041
   60MOL   H21142809   4.536   7.685   0.410  1.0513  0.6495 -0.2991
   60MOL   H21242810   4.465   7.537   0.428 -0.1568 -0.0208  1.2064
   60MOL   H21342811   4.723   7.218   0.125 -1.4357  1.1087  2.1225
   60MOL   H21442812   4.898   7.241   0.083 -0.6920 -2.6817  0.6122
   60MOL   H21542813   4.844   7.196   0.244  1.5615  0.2932  0.9107
   60MOL   H21642814   4.808   7.592   0.086  1.7608 -0.0184 -0.5114
   60MOL   H21742815   4.819   7.442   7.769 -1.3273 -0.3515 -0.3698
   60MOL   C21842816   5.169   0.502   0.593 -0.2887 -0.3667  0.0588
   60MOL   C21942817   5.101   0.376   0.559 -0.1093 -0.8968 -0.5657
   60MOL   C22042818   5.006   0.377   0.448 -0.0306 -0.0967 -0.2663
   60MOL   C22142819   4.928   0.249   0.423  0.0220 -0.0180  0.2240
   60MOL   C22242820   4.810   0.279   0.325 -0.3724 -0.5438 -0.2323
   60MOL   C22342821   4.739   0.153   0.273 -0.4233  0.2896  0.2183
   60MOL   C22442822   4.651   0.193   0.156  0.1911  0.3866 -0.5554
   60MOL   C22542823   4.538   0.093   0.128  0.5630  0.2657  0.1147
   60MOL   O22642824   4.599   7.744   0.088  0.5339  0.2610 -0.0792
   60MOL   C22742825   4.535   7.630   0.071  0.1978  0.0080  0.5703
   60MOL   O22842826   4.417   7.619   0.104  0.2090 -0.4695 -0.5705
   60MOL   C22942827   4.622   7.520   7.779  0.1643 -0.2290 -0.3597
   60MOL   C23042828   4.536   7.386   7.761  0.1127  0.1209  0.1020
   60MOL   C23142829   4.677   7.572   7.631  0.2330 -0.2785  0.0860
   60MOL   H23242830   5.115   0.590   0.628 -1.6628 -1.6410  1.1988
   60MOL   H23342831   5.228   0.538   0.509 -1.3749 -0.5384 -0.7878
   60MOL   H23442832   5.233   0.489   0.680 -1.1609  0.4955  0.8350
   60MOL   H23542833   5.058   0.348   0.655 -0.1262  1.6125  0.2052
   60MOL   H23642834   5.182   0.303   0.547  0.9522  0.1433  0.0856
   60MOL   H23742835   4.939   0.457   0.479  1.2965  0.5264  1.0098
   60MOL   H23842836   5.052   0.417   0.357  3.7353 -1.1696  1.0826
   60MOL   H23942837   4.982   0.178   0.360 -0.5604 -0.6940  0.4730
   60MOL   H24042838   4.893   0.196   0.512  1.3212  0.1660  0.8584
   60MOL   H24142839   4.743   0.350   0.374  1.3482  1.3423 -0.4972
   60MOL   H24242840   4.849   0.333   0.238 -0.9967  0.9653  0.4068
   60MOL   H24342841   4.812   0.081   0.236 -1.2685  0.3833 -1.7026
   60MOL   H24442842   4.679   0.100   0.347  1.1111 -2.6813 -0.6028
   60MOL   H24542843   4.718   0.191   0.070 -0.9822 -2.9608 -1.4754
   60MOL   H24642844   4.618   0.296   0.165 -2.7568 -0.6531  1.1246
   60MOL   H24742845   4.476   0.129   0.046  0.7439 -0.9727 -0.5809
   60MOL   H24842846   4.478   0.065   0.216  0.0655 -0.0602 -0.3219
   60MOL   H24942847   4.599   7.310   7.714 -1.7248 -1.4565  0.0680
   60MOL   H25042848   4.445   7.411   7.705 -1.3997 -2.0803  1.4825
   60MOL   H25142849   4.518   7.335   0.076 -0.3104  0.2569  0.0967
   60MOL   H25242850   4.716   7.673   7.642  1.8038 -1.0775  1.9683
   60MOL   H25342851   4.762   7.515   7.595 -0.2828 -0.9845 -0.0417
   60MOL   C25442852   3.642   6.957   7.222 -0.4012 -0.1307  0.7484
   60MOL   C25542853   3.729   7.037   7.318 -0.0943 -0.5808  0.0927
   60MOL   C25642854   3.874   7.048   7.257  0.8050 -0.3152 -0.1759
   60MOL   C25742855   3.965   7.130   7.349 -0.4461  0.2413  0.5533
   60MOL   C25842856   4.095   7.166   7.266  0.1557 -0.4709 -0.1247
   60MOL   C25942857   4.201   7.221   7.359 -0.3217 -0.5957  0.3210
   60MOL   C26042858   4.342   7.248   7.299 -0.2792 -0.0713 -0.0834
   60MOL   C26142859   4.466   7.248   7.395  0.6048  0.0064  0.1359
   60MOL   O26242860   4.493   7.372   7.470 -0.3608 -0.0101 -0.3341
   60MOL   C26342861   4.579   7.468   7.416 -0.3636 -0.6009  0.1450
   60MOL   O26442862   4.652   7.446   7.316  0.2287  0.4246  0.4949
   60MOL   C26542863   4.599   7.603   7.499 -0.0761 -0.0058 -0.5258
   60MOL   C26642864   4.684   7.693   7.409  1.1014 -0.0289  0.0947
   60MOL   C26742865   4.459   7.671   7.532  0.6037 -0.3038 -0.3000
   60MOL   H26842866   3.547   6.930   7.269  0.2105  0.3103  2.2690
   60MOL   H26942867   3.641   7.013   7.128 -1.3636  1.7708  1.8758
   60MOL   H27042868   3.693   6.864   7.196  1.6874  1.1467  0.1529
   60MOL   H27142869   3.681   7.134   7.328  1.9411  0.4509 -0.0715
   60MOL   H27242870   3.728   7.009   7.424 -2.2155  0.5475  0.4031
   60MOL   H27342871   3.865   7.091   7.157 -1.7888  0.6601  0.4352
   60MOL   H27442872   3.910   6.950   7.224  0.1431 -0.7793  0.4403
   60MOL   H27542873   3.981   7.065   7.434 -1.5661 -1.7078 -0.6883
   60MOL   H27642874   3.919   7.224   7.378  1.8320  2.5544 -2.8839
   60MOL   H27742875   4.130   7.080   7.209  0.4510 -0.6260  0.2900
   60MOL   H27842876   4.067   7.236   7.188 -1.5796  0.7358  1.5298
   60MOL   H27942877   4.205   7.152   7.443 -1.3116 -0.5754  0.3882
   60MOL   H28042878   4.176   7.310   7.417 -1.7984 -0.0947 -1.0366
   60MOL   H28142879   4.360   7.170   7.224  0.5533 -1.5462  1.6210
   60MOL   H28242880   4.333   7.344   7.247  0.2281  0.5963  1.0577
   60MOL   H28342881   4.456   7.173   7.473 -0.2377  0.9886  0.9903
   60MOL   H28442882   4.548   7.226   7.327 -1.1381  0.9994 -2.3439
   60MOL   H28542883   4.775   7.649   7.368  2.0740  2.8514 -0.9112
   60MOL   H28642884   4.635   7.703   7.313  0.5663 -0.6429  0.2936
   60MOL   H28742885   4.705   0.013   7.447  0.5998  0.0980  0.0393
   60MOL   H28842886   4.463   7.738   7.618 -1.5969  0.8813 -1.0612
   60MOL   H28942887   4.405   7.582   7.565  1.9553 -0.5830  1.1949
   60MOL   C29042888   4.523   0.610   0.355 -0.3803 -0.4030  0.0100
   60MOL   C29142889   4.590   0.709   0.251  0.6790 -0.5203 -0.2885
   60MOL   C29242890   4.679   0.643   0.144  0.4772 -0.4238  0.2092
   60MOL   C29342891   4.585   0.565   0.051 -0.1690 -0.1461 -0.0708
   60MOL   C29442892   4.661   0.475   7.732  0.0497  0.1910  0.2048
   60MOL   C29542893   4.557   0.418   7.630  0.1432  0.2332  0.1240
   60MOL   C29642894   4.623   0.362   7.511 -0.0361 -0.3034 -0.6201
   60MOL   C29742895   4.541   0.288   7.410  0.3115 -0.1100  0.1450
   60MOL   O29842896   4.480   0.171   7.452 -0.1151 -0.9739 -0.4462
   60MOL   C29942897   4.433   0.093   7.357 -0.3484  0.3285 -0.1182
   60MOL   O30042898   4.454   0.110   7.237  0.3698  0.7208 -0.2573
   60MOL   C30142899   4.364   7.748   7.425  0.0508 -0.3956  0.7991
   60MOL   C30242900   4.323   7.651   7.311  0.0011  0.1982  0.0704
   60MOL   C30342901   4.238   0.013   7.507 -0.5108 -0.3911  0.1380
   60MOL   H30442902   4.465   0.539   0.296 -0.6300  0.5787 -0.9429
   60MOL   H30542903   4.459   0.662   0.427 -0.9870  0.2981 -1.0176
   60MOL   H30642904   4.595   0.553   0.413  0.6544  1.0252  0.1669
   60MOL   H30742905   4.651   0.786   0.300 -0.8646  0.9038 -0.5460
   60MOL   H30842906   4.508   0.758   0.198  0.8853  1.2560  0.9706
   60MOL   H30942907   4.757   0.587   0.197 -1.2410 -2.0191  1.1188
   60MOL   H31042908   4.734   0.714   0.083 -1.9376  1.1374 -0.2032
   60MOL   H31142909   4.502   0.507   0.092  0.3186  0.1432  1.3683
   60MOL   H31242910   4.535   0.640   7.770  3.2296 -0.0664 -2.9333
   60MOL   H31342911   4.723   0.552   7.684 -0.1172  1.8953  2.6245
   60MOL   H31442912   4.719   0.399   0.003  1.8799  0.9769 -0.6498
   60MOL   H31542913   4.500   0.504   7.595  1.8434  1.0020 -0.8141
   60MOL   H31642914   4.486   0.347   7.672  0.4658 -1.6767 -2.4648
   60MOL   H31742915   4.692   0.286   7.547 -0.3662 -0.1395  0.4034
   60MOL   H31842916   4.685   0.440   7.466  0.8139 -0.1275  0.7971
   60MOL   H31942917   4.608   0.256   7.330  0.8183  0.9054  0.1553
   60MOL   H32042918   4.470   0.361   7.370 -0.7071 -1.6841 -0.9956
   60MOL   H32142919   4.278   7.710   7.230 -0.5211 -0.5704 -0.2027
   60MOL   H32242920   4.261   7.568   7.343  1.8383 -1.7964 -1.3940
   60MOL   H32342921   4.411   7.604   7.267  0.5903  0.6843  0.7112
   60MOL   H32442922   4.199   7.706   7.560 -1.0478 -0.7194 -0.7895
   60MOL   H32542923   4.272   0.078   7.588 -1.6274 -0.2014  0.4768
   60MOL   C32642924   3.492   7.565   0.244  0.3486  0.3663  0.2280
   60MOL   C32742925   3.483   7.503   0.108 -0.7153 -0.0049 -0.7145
   60MOL   C32842926   3.516   7.597   7.764 -0.5211  0.3934 -0.2381
   60MOL   C32942927   3.512   7.521   7.626  0.4261  0.0553 -0.1667
   60MOL   C33042928   3.586   7.588   7.511 -0.4959 -0.4418  0.9756
   60MOL   C33142929   3.729   7.549   7.498  0.5580 -0.6261  0.4420
   60MOL   C33242930   3.779   7.582   7.351 -0.5751  0.3604 -0.0152
   60MOL   C33342931   3.930   7.557   7.341 -0.0139  1.0041 -0.4910
   60MOL   O33442932   4.003   7.657   7.406 -0.5218  0.0087 -0.4076
   60MOL   C33542933   4.037   7.770   7.348 -0.3033  0.5624 -0.0398
   60MOL   O33642934   4.037   0.000   7.225 -0.3865 -0.1738  0.1468
   60MOL   C33742935   4.107   0.084   7.447  0.6246 -0.3785 -0.5339
   60MOL   C33842936   4.016   0.106   7.573 -0.9069  0.1691  0.9432
   60MOL   C33942937   4.154   0.215   7.387 -0.4825 -0.2198  0.2722
   60MOL   H34042938   3.577   7.632   0.258  0.6728 -0.0713  0.3537
   60MOL   H34142939   3.501   7.481   0.313  1.8423 -1.3018 -1.9195
   60MOL   H34242940   3.389   7.591   0.267  0.3043  0.3239  0.0761
   60MOL   H34342941   3.397   7.439   0.088 -1.6404  1.2177 -0.7105
   60MOL   H34442942   3.567   7.434   0.104 -0.9222 -0.3903  1.0856
   60MOL   H34542943   3.603   7.662   7.771 -0.7795  0.6122  1.2384
   60MOL   H34642944   3.431   7.664   7.753 -0.0428  0.9333 -0.6861
   60MOL   H34742945   3.406   7.520   7.600  0.1283  1.5712  0.8962
   60MOL   H34842946   3.542   7.420   7.655  2.7312 -0.0219 -2.6398
   60MOL   H34942947   3.533   7.570   7.418  2.9412  0.8996 -1.3461
   60MOL   H35042948   3.586   7.695   7.530  2.5525 -0.4459  1.3078
   60MOL   H35142949   3.776   7.623   7.562 -1.3962 -0.5210  1.8293
   60MOL   H35242950   3.757   7.450   7.534  0.8313 -0.0250  1.9174
   60MOL   H35342951   3.740   7.671   7.302 -0.6227  0.3211 -0.0482
   60MOL   H35442952   3.734   7.504   7.290 -0.3909 -0.2244  0.5833
   60MOL   H35542953   3.957   7.461   7.386  0.5931  0.7040 -1.4737
   60MOL   H35642954   3.969   7.544   7.240  2.4293  1.0116  0.4139
   60MOL   H35742955   4.066   0.183   7.632 -1.9227  2.0677 -0.6351
   60MOL   H35842956   3.917   0.130   7.534 -1.0190 -0.5411  0.7811
   60MOL   H35942957   4.008   0.014   7.631  0.3675 -1.4857 -1.4181
   60MOL   H36042958   4.234   0.258   7.448  0.1045 -2.7025  1.3156
   60MOL   H36142959   4.201   0.196   7.290  1.7165  0.1308  1.2325
   60MOL   C36242960   3.774   0.051   0.222  0.0568 -0.3595  0.3787
   60MOL   C36342961   3.895   0.092   0.142  0.4168  0.2195  0.5004
   60MOL   C36442962   4.030   0.065   0.209  0.0159  0.6669  0.7822
   60MOL   C36542963   4.142   0.112   0.132  0.1616 -0.1948 -0.0768
   60MOL   C36642964   4.141   0.280   0.134 -0.3120  0.7134  0.9261
   60MOL   C36742965   4.242   0.344   0.048  0.7532 -0.6963 -0.5767
   60MOL   C36842966   4.213   0.488   0.004  0.7724 -0.2326 -0.5014
   60MOL   C36942967   4.088   0.493   7.695 -0.7399 -0.4920  0.0000
   60MOL   O37042968   4.118   0.460   7.563  0.1256  0.7903  0.0758
   60MOL   C37142969   4.014   0.412   7.485  0.2200  0.2705  0.9958
   60MOL   O37242970   3.896   0.422   7.511  0.2642  0.0286 -0.7493
   60MOL   C37342971   4.068   0.345   7.355 -0.6236 -0.4535 -0.6297
   60MOL   C37442972   3.957   0.315   7.262  0.2351 -0.4741  0.4578
   60MOL   C37542973   4.173   0.449   7.291  0.0403  0.4267 -0.4840
   60MOL   H37642974   3.775   0.104   0.317 -0.7664  1.7475 -0.7399
   60MOL   H37742975   3.687   0.083   0.165  2.6763  1.0976 -3.0181
   60MOL   H37842976   3.759   7.724   0.239  1.7377 -0.2766  2.5355
   60MOL   H37942977   3.876   0.191   0.103 -0.9475 -1.0651 -2.2278
   60MOL   H38042978   3.905   0.029   0.054 -0.8187  0.6324  0.0518
   60MOL   H38142979   4.044   7.737   0.217 -1.2812  0.5093  1.0055
   60MOL   H38242980   4.030   0.108   0.309 -0.5668 -0.0061  1.0785
   60MOL   H38342981   4.147   0.076   0.030  2.0163  0.2267 -0.1500
   60MOL   H38442982   4.241   0.091   0.173  0.6885 -0.8473 -1.6827
   60MOL   H38542983   4.041   0.323   0.124  0.4891  2.6743  1.2594
   60MOL   H38642984   4.167   0.304   0.236  2.9670  3.2810 -0.4323
   60MOL   H38742985   4.233   0.281   7.738  2.1519  0.2632 -1.4093
   60MOL   H38842986   4.340   0.334   0.093  0.6034  1.8701  0.3806
   60MOL   H38942987   4.293   0.525   7.719  1.3351  0.4601  0.5728
   60MOL   H39042988   4.208   0.546   0.096  0.9896  1.2958 -1.4198
   60MOL   H39142989   4.000   0.442   7.734 -1.4864 -0.0930 -1.1361
   60MOL   H39242990   4.048   0.595   7.698  1.1560  0.3041 -1.0523
   60MOL   H39342991   3.882   0.243   7.295 -0.8750 -0.4180 -1.8979
   60MOL   H39442992   3.897   0.401   7.235 -0.8179 -0.7335  1.9116
   60MOL   H39542993   3.991   0.278   7.165  0.0839 -0.2089  0.3038
   60MOL   H39642994   4.245   0.473   7.370 -0.2213 -0.0867 -0.0852
   60MOL   H39742995   4.242   0.393   7.228 -1.5098 -1.3813 -0.6275
   60MOL   C39842996   4.702   7.580   6.928 -0.3350 -0.2027 -0.2182
   60MOL   C39942997   4.581   7.651   6.973 -0.6020 -0.0384 -0.1740
   60MOL   C40042998   4.473   7.678   6.870 -0.0212  0.8951 -0.1280
   60MOL   C40142999   4.378   0.015   6.928  0.0326 -0.3289  0.0539
   60MOL   C40243000   4.243   0.038   6.859  0.0664 -0.7671  0.1740
   60MOL   C40343001   4.165   0.152   6.922 -0.0127 -0.2040 -0.4506
   60MOL   C40443002   4.189   0.281   6.841 -0.3355  0.0851 -0.0017
   60MOL   C40543003   4.118   0.410   6.894  0.6303 -0.6052  0.2370
   60MOL   O40643004   4.153   0.463   7.024  0.0043  0.0975 -0.0474
   60MOL   C40743005   4.069   0.546   7.081 -0.3054  0.5058 -0.2876
   60MOL   O40843006   3.963   0.589   7.039 -0.4799  0.4880  0.4180
   60MOL   C40943007   4.131   0.578   7.219 -0.0454 -0.9629 -0.3990
   60MOL   C41043008   4.024   0.659   7.294 -0.0489 -0.1922 -0.6246
   60MOL   C41143009   4.263   0.663   7.209  0.4427  0.2402  0.0601
   60MOL   H41243010   4.679   7.479   6.894 -0.7246  0.3427 -1.6047
   60MOL   H41343011   4.775   7.570   7.010  1.1122 -2.2257 -1.6971
   60MOL   H41443012   4.738   7.627   6.837  0.7739  0.2768  0.4561
   60MOL   H41543013   4.615   7.750   7.002  1.1673 -0.4148 -0.9227
   60MOL   H41643014   4.542   7.606   7.064 -0.8293  0.9162  0.2127
   60MOL   H41743015   4.523   7.711   6.778 -0.6096  1.5826 -0.2028
   60MOL   H41843016   4.425   7.583   6.847 -0.4358  0.8466  0.9050
   60MOL   H41943017   4.434   0.107   6.940 -1.0555  0.5763 -1.6350
   60MOL   H42043018   4.362   0.000   7.035  1.1813  1.4411  0.4835
   60MOL   H42143019   4.270   0.072   6.758 -1.3021  1.1690  0.4329
   60MOL   H42243020   4.191   7.722   6.861  1.0918 -1.4260 -2.1101
   60MOL   H42343021   4.184   0.166   7.028 -0.8647  1.9506 -0.5591
   60MOL   H42443022   4.057   0.137   6.918 -0.1487 -0.3230  2.6731
   60MOL   H42543023   4.297   0.294   6.830 -0.6658  1.7740 -1.3745
   60MOL   H42643024   4.142   0.253   6.747 -1.8216 -1.3724  1.1657
   60MOL   H42743025   4.105   0.485   6.815  0.2170 -0.2305  0.6555
   60MOL   H42843026   4.015   0.375   6.900  0.7370 -1.2305 -1.2730
   60MOL   H42943027   4.007   0.756   7.246  0.3647 -0.1554 -0.6966
   60MOL   H43043028   4.054   0.671   7.398 -0.8352  3.6183 -0.7488
   60MOL   H43143029   3.929   0.606   7.293 -0.5901  0.7291  0.5021
   60MOL   H43243030   4.325   0.601   7.145 -0.4097  0.1744 -0.7105
   60MOL   H43343031   4.317   0.661   7.303  0.1914 -2.0435  0.1808
   60MOL   C43443032   4.586   1.900   7.497 -0.1650  0.2066  0.4940
   60MOL   C43543033   4.458   1.819   7.522 -0.7541 -0.0981  0.0908
   60MOL   C43643034   4.463   1.684   7.436  0.1946  0.7852  0.3083
   60MOL   C43743035   4.339   1.589   7.440  0.3807  0.0576  0.3736
   60MOL   C43843036   4.348   1.491   7.325  1.1462  0.5174  0.1714
   60MOL   C43943037   4.240   1.379   7.332 -0.1773  0.6065 -0.0618
   60MOL   C44043038   4.294   1.256   7.253 -0.6512  0.2371  0.8533
   60MOL   C44143039   4.199   1.137   7.272  0.3709 -0.5681  0.0909
   60MOL   O44243040   4.248   1.030   7.192 -0.0513  0.0885 -0.1059
   60MOL   C44343041   4.246   0.914   7.240 -0.1019 -0.2571 -0.3745
   60MOL   O44443042   4.219   0.897   7.359  0.1052 -0.3330  0.6686
   60MOL   C44543043   4.287   0.806   7.140  0.8200  0.1542  0.8272
   60MOL   C44643044   4.202   0.828   7.013  0.0959  0.4095 -0.4555
   60MOL   C44743045   4.446   0.834   7.125 -0.7442 -0.4052  0.1357
   60MOL   H44843046   4.605   1.981   7.568 -0.7890 -1.3416  2.4594
   60MOL   H44943047   4.586   1.942   7.396  2.0721  0.9225  0.7600
   60MOL   H45043048   4.670   1.832   7.481 -1.2779 -1.1127  0.2126
   60MOL   H45143049   4.371   1.879   7.493  2.0766  3.5694 -1.2339
   60MOL   H45243050   4.448   1.797   7.628  2.4544  0.5947  0.5699
   60MOL   H45343051   4.547   1.620   7.465 -1.1274 -1.5348 -0.8048
   60MOL   H45443052   4.487   1.713   7.334  0.0194  2.3307  0.7017
   60MOL   H45543053   4.249   1.647   7.422  0.9352  0.6697 -0.4267
   60MOL   H45643054   4.320   1.543   7.537  1.1603  0.0059  0.5090
   60MOL   H45743055   4.332   1.534   7.226 -1.1891  0.0217  0.3001
   60MOL   H45843056   4.448   1.449   7.323  1.5436  1.4597 -1.6929
   60MOL   H45943057   4.141   1.416   7.306  0.2683  0.8586 -1.4377
   60MOL   H46043058   4.229   1.355   7.438  0.6381  0.8848  0.0938
   60MOL   H46143059   4.303   1.279   7.147  0.2661  0.7536  1.0362
   60MOL   H46243060   4.393   1.223   7.287 -0.4740 -0.1384 -0.0358
   60MOL   H46343061   4.096   1.157   7.242  0.9566 -0.3330 -1.8420
   60MOL   H46443062   4.193   1.116   7.379  1.2044 -1.3848 -0.0214
   60MOL   H46543063   4.233   0.922   6.967  1.1879  0.7113  0.8819
   60MOL   H46643064   4.211   0.750   6.937 -2.0996 -1.7622  1.4112
   60MOL   H46743065   4.098   0.830   7.046  0.1815 -1.9449  0.0733
   60MOL   H46843066   4.466   0.939   7.145 -1.0728 -0.3628  0.2440
   60MOL   H46943067   4.486   0.776   7.209 -1.0914  0.6251  1.0285
   60MOL   C47043068   5.217   0.361   6.717 -0.0382  0.4508 -0.1840
   60MOL   C47143069   5.161   0.278   6.829  0.4346  0.0999  0.2793
   60MOL   C47243070   5.026   0.213   6.794 -0.1312  0.3303  0.1172
   60MOL   C47343071   4.906   0.304   6.835 -0.3696  0.6217  0.4159
   60MOL   C47443072   4.765   0.235   6.833 -0.7021 -0.2922 -0.0240
   60MOL   C47543073   4.643   0.325   6.878  0.4401 -0.0051  0.1963
   60MOL   C47643074   4.613   0.335   7.036  0.5228 -0.3271 -0.0931
   60MOL   C47743075   4.501   0.433   7.065  0.1821  0.5072  0.3536
   60MOL   O47843076   4.543   0.566   7.061 -0.2638 -0.4548  0.4384
   60MOL   C47943077   4.511   0.642   6.965 -0.5564 -0.5922 -0.1051
   60MOL   O48043078   4.461   0.616   6.855  0.1376  0.3589 -0.8616
   60MOL   C48143079   4.534   0.791   7.003  0.3613 -0.5382 -0.0566
   60MOL   C48243080   4.490   0.882   6.886 -0.4271 -0.4593 -0.4944
   60MOL   C48343081   4.687   0.836   7.024 -0.4921  0.3707  0.1727
   60MOL   H48443082   5.131   0.425   6.697 -2.1514 -3.1060 -3.1257
   60MOL   H48543083   5.231   0.293   6.633 -0.5376 -0.1564  0.2203
   60MOL   H48643084   5.310   0.415   6.738  1.7885 -1.6468 -2.5667
   60MOL   H48743085   5.230   0.196   6.846 -0.1956 -0.3080  0.8831
   60MOL   H48843086   5.162   0.333   6.923  1.4756  1.0021 -0.2447
   60MOL   H48943087   5.022   0.175   6.692 -0.8250 -0.0881  0.3003
   60MOL   H49043088   5.022   0.122   6.854 -0.3593  1.2972  1.5877
   60MOL   H49143089   4.934   0.334   6.936  0.7677  1.7407 -0.2094
   60MOL   H49243090   4.892   0.397   6.780  2.3602 -0.0265 -1.4671
   60MOL   H49343091   4.765   0.206   6.728 -0.3195 -2.2228  0.4809
   60MOL   H49443092   4.764   0.140   6.887 -0.6411  0.5471  1.4721
   60MOL   H49543093   4.645   0.428   6.842  0.0564  0.4024  1.3127
   60MOL   H49643094   4.560   0.282   6.823  1.1243 -0.7900 -0.2255
   60MOL   H49743095   4.596   0.232   7.068 -1.5845 -1.2027 -3.7048
   60MOL   H49843096   4.701   0.373   7.087  0.7397 -1.5034  0.4296
   60MOL   H49943097   4.477   0.436   7.171 -1.9112 -1.4294 -0.0359
   60MOL   H50043098   4.411   0.400   7.014  1.4115 -1.2442 -0.7677
   60MOL   H50143099   4.397   0.847   6.841 -0.8044  0.4023 -0.3953
   60MOL   H50243100   4.553   0.888   6.796 -0.5529 -0.0471 -0.5574
   60MOL   H50343101   4.479   0.986   6.916  1.4451  0.0934 -1.5931
   60MOL   H50443102   4.731   0.835   6.924 -2.3816  1.6585 -0.7131
   60MOL   H50543103   4.687   0.936   7.069 -1.2133  0.9036 -0.9697
   60MOL   C50643104   4.411   1.439   0.064  0.2808  0.0556 -0.0670
   60MOL   C50743105   4.457   1.288   0.051 -0.2028 -0.2866  0.3999
   60MOL   C50843106   4.363   1.209   7.739 -0.2464  0.6288 -0.2897
   60MOL   C50943107   4.412   1.079   7.658 -0.3364 -0.1124 -0.2843
   60MOL   C51043108   4.515   1.115   7.548  0.5457 -0.0009  0.4969
   60MOL   C51143109   4.553   0.996   7.463 -0.1725 -0.0025  0.3676
   60MOL   C51243110   4.665   0.909   7.527  0.4865 -0.1901  0.7347
   60MOL   C51343111   4.681   0.772   7.457 -0.4176 -0.0080 -0.4640
   60MOL   O51443112   4.714   0.803   7.325  0.6742  0.0693  0.0671
   60MOL   C51543113   4.764   0.704   7.241  0.1860  0.1304  0.2677
   60MOL   O51643114   4.780   0.582   7.267 -0.0163 -0.6045 -0.4685
   60MOL   C51743115   4.806   0.760   7.100 -0.3616 -0.2167 -0.5435
   60MOL   C51843116   4.855   0.642   6.999  0.2417  0.0186  0.5557
   60MOL   C51943117   4.926   0.863   7.129 -0.3895  0.3762  0.1437
   60MOL   H52043118   4.391   1.492   7.750 -1.9591  0.4469  0.6117
   60MOL   H52143119   4.484   1.500   0.117  1.9582 -2.1808  0.2485
   60MOL   H52243120   4.320   1.443   0.123 -0.4303  1.6298 -1.2235
   60MOL   H52343121   4.469   1.245   0.150 -0.2652  1.2643  1.0970
   60MOL   H52443122   4.559   1.283   0.011  0.2292  0.1107  1.4329
   60MOL   H52543123   4.275   1.186   0.019 -0.0449  0.0639 -0.2104
   60MOL   H52643124   4.328   1.276   7.661 -0.3357  0.9957  0.0638
   60MOL   H52743125   4.465   1.009   7.724 -0.0983  0.6147  0.3002
   60MOL   H52843126   4.336   1.024   7.602 -1.2234 -0.0839  0.8923
   60MOL   H52943127   4.471   1.197   7.490 -0.1332  0.8682  2.1971
   60MOL   H53043128   4.606   1.155   7.592  0.8337  0.7927 -0.8096
   60MOL   H53143129   4.579   1.032   7.363  0.9444  0.3199  0.7629
   60MOL   H53243130   4.470   0.927   7.448 -1.4334  1.5616  0.1055
   60MOL   H53343131   4.650   0.879   7.631 -0.2001 -1.9903  0.1515
   60MOL   H53443132   4.763   0.957   7.534  0.9818 -1.0832  0.0784
   60MOL   H53543133   4.587   0.718   7.463  0.3637 -1.2384  1.2082
   60MOL   H53643134   4.765   0.714   7.494 -0.9356 -1.9123 -2.1984
   60MOL   H53743135   4.778   0.597   6.936 -0.4197  2.0341 -0.1055
   60MOL   H53843136   4.905   0.558   7.046  0.7514 -1.6049 -2.7012
   60MOL   H53943137   4.922   0.681   6.922 -0.4511  0.0012 -0.0655
   60MOL   H54043138   4.939   0.916   7.035  0.7274  0.5919  0.4103
   60MOL   H54143139   4.893   0.936   7.202  1.4687  1.1175  0.2776
   60MOL   C54243140   5.363   1.338   6.254  0.1869 -0.6796  0.0651
   60MOL   C54343141   5.335   1.303   6.402 -0.1882 -0.0030  0.0334
   60MOL   C54443142   5.271   1.169   6.412 -0.2763  0.1286 -0.0848
   60MOL   C54543143   5.243   1.140   6.556 -0.4471  0.2235 -0.3025
   60MOL   C54643144   5.180   1.005   6.575  0.0979 -0.0340  0.5327
   60MOL   C54743145   5.192   0.949   6.708  0.5353  0.2245  0.0011
   60MOL   C54843146   5.154   0.801   6.695  0.4710  0.0412 -0.3766
   60MOL   C54943147   5.187   0.722   6.821  0.2431 -0.3563  0.2477
   60MOL   O55043148   5.156   0.790   6.940  0.0815 -0.2725 -0.0302
   60MOL   C55143149   5.143   0.721   7.057 -0.1084 -0.6129 -0.5555
   60MOL   O55243150   5.193   0.608   7.071 -0.2049  0.0471 -0.1492
   60MOL   C55343151   5.067   0.802   7.173  0.4968 -0.4797  0.2744
   60MOL   C55443152   5.061   0.703   7.290  0.5085 -0.8456 -0.1726
   60MOL   C55543153   5.159   0.926   7.206  0.8967  0.8889  0.3212
   60MOL   H55643154   5.375   1.447   6.258 -1.6649 -0.3675 -1.8133
   60MOL   H55743155   5.275   1.318   6.193  1.0416 -0.4477 -1.2627
   60MOL   H55843156   5.441   1.287   6.199  1.7259  1.3796  0.2708
   60MOL   H55943157   5.426   1.319   6.460  2.6584 -0.9595 -3.9739
   60MOL   H56043158   5.279   1.385   6.448 -4.0517 -3.1720  1.2443
   60MOL   H56143159   5.343   1.095   6.376 -0.0353  0.8139 -1.0197
   60MOL   H56243160   5.178   1.177   6.356  0.1665 -0.0457 -0.8416
   60MOL   H56343161   5.332   1.140   6.620 -1.2950 -1.6414  0.9329
   60MOL   H56443162   5.189   1.224   6.600 -0.7701  0.1785 -0.6157
   60MOL   H56543163   5.235   0.936   6.510  3.7793  1.9228  1.4170
   60MOL   H56643164   5.078   1.008   6.537  0.4871  1.3565 -0.4286
   60MOL   H56743165   5.293   0.959   6.747  2.2500 -1.1020 -3.8238
   60MOL   H56843166   5.134   1.008   6.779  3.1857  2.2609  0.5516
   60MOL   H56943167   5.046   0.794   6.686  0.2913 -1.7102  2.5114
   60MOL   H57043168   5.194   0.757   6.604 -1.8731 -2.0085 -0.4767
   60MOL   H57143169   5.293   0.701   6.835  0.0520 -1.5057  0.0254
   60MOL   H57243170   5.139   0.624   6.821 -1.2090  0.3368 -0.6358
   60MOL   H57343171   5.015   0.611   7.253 -1.4543  0.7383 -1.7596
   60MOL   H57443172   5.003   0.736   7.377 -0.1065 -1.6856 -0.2569
   60MOL   H57543173   5.160   0.671   7.323  0.6548 -1.3970 -1.1475
   60MOL   H57643174   5.139   0.995   7.124 -0.2221 -1.4423 -1.4016
   60MOL   H57743175   5.260   0.894   7.184 -0.1152 -0.7227 -2.1083
   60MOL   C57843176   6.198   0.774   0.160 -0.3673 -0.3564  0.2540
   60MOL   C57943177   6.054   0.735   0.127 -0.2106  0.8874  0.6187
   60MOL   C58043178   5.993   0.818   0.015  0.3858 -0.6290  0.4042
   60MOL   C58143179   5.846   0.787   0.009  0.7173  0.0922 -0.0584
   60MOL   C58243180   5.784   0.877   7.679 -0.4504  0.9519  0.3970
   60MOL   C58343181   5.650   0.816   7.645  0.3844 -0.1202 -0.4354
   60MOL   C58443182   5.584   0.884   7.519  0.6718 -0.2009 -0.0420
   60MOL   C58543183   5.426   0.856   7.531  0.3833 -0.1896  1.2393
   60MOL   O58643184   5.358   0.926   7.430 -0.2091 -0.1263  0.6426
   60MOL   C58743185   5.227   0.940   7.439  0.1628 -0.0754  0.3124
   60MOL   O58843186   5.155   0.893   7.527  0.2715 -0.5226  0.2611
   60MOL   C58943187   5.160   1.023   7.330 -0.3644  0.1450 -0.3624
   60MOL   C59043188   5.018   1.063   7.374 -0.0251  0.1955 -0.5601
   60MOL   C59143189   5.237   1.147   7.292 -0.0202  0.1234  0.9914
   60MOL   H59243190   6.216   0.870   0.208  1.8974 -1.7512  2.2953
   60MOL   H59343191   6.247   0.761   0.064  1.1443  1.1605  0.8137
   60MOL   H59443192   6.252   0.705   0.226  2.2150  1.8894  0.5570
   60MOL   H59543193   5.981   0.743   0.208 -0.4493 -3.3391  0.9199
   60MOL   H59643194   6.053   0.630   0.101 -0.3068  1.0283  0.0388
   60MOL   H59743195   6.039   0.805   7.697 -0.0907  0.4002  0.0326
   60MOL   H59843196   6.024   0.919   0.042 -1.4845  0.3302 -0.9876
   60MOL   H59943197   5.788   0.810   0.098  0.8975 -1.0418  0.3609
   60MOL   H60043198   5.835   0.679   7.772  0.3212 -0.3813  3.0452
   60MOL   H60143199   5.842   0.884   7.587 -1.0236  0.5185 -0.0023
   60MOL   H60243200   5.782   0.981   7.712 -1.9245  1.2190 -0.5081
   60MOL   H60343201   5.578   0.821   7.727  1.4331  0.2535  0.4767
   60MOL   H60443202   5.674   0.712   7.627  1.3331 -0.2227  1.3033
   60MOL   H60543203   5.627   0.840   7.429  1.4866 -2.0674  1.2119
   60MOL   H60643204   5.607   0.990   7.507 -0.3931 -0.1398 -1.6425
   60MOL   H60743205   5.412   0.750   7.509  4.3295 -0.2855 -1.4072
   60MOL   H60843206   5.379   0.884   7.625  1.6620 -2.0069  2.4564
   60MOL   H60943207   5.028   1.124   7.463 -2.4275 -0.3046  0.0922
   60MOL   H61043208   4.965   1.116   7.295  0.9252  0.4180 -1.0577
   60MOL   H61143209   4.962   0.970   7.386 -1.2442  1.0565  0.6395
   60MOL   H61243210   5.202   1.183   7.195  0.7600  1.4758  1.2017
   60MOL   H61343211   5.331   1.101   7.262 -1.1797 -0.3997 -2.0650
   60MOL   C61443212   5.666   1.065   6.411 -0.1083  0.1542  0.1673
   60MOL   C61543213   5.697   1.140   6.546  0.3208  0.0910 -0.0215
   60MOL   C61643214   5.652   1.065   6.672  0.3284 -0.7687 -0.6734
   60MOL   C61743215   5.655   1.157   6.798 -0.1330 -0.0163  0.2638
   60MOL   C61843216   5.624   1.085   6.929  0.2057 -0.1970 -0.4800
   60MOL   C61943217   5.656   1.159   7.069 -0.2585 -0.0374  0.1209
   60MOL   C62043218   5.596   1.300   7.093 -0.4623 -0.3410  0.4147
   60MOL   C62143219   5.596   1.349   7.241  0.5605 -0.0891  0.5965
   60MOL   O62243220   5.484   1.292   7.303  0.1025  0.1809 -0.0708
   60MOL   C62343221   5.368   1.356   7.303  0.1627  0.7938  0.0563
   60MOL   O62443222   5.348   1.456   7.238 -0.0263  0.4092  0.4561
   60MOL   C62543223   5.263   1.277   7.382  0.3989  0.4622  0.2784
   60MOL   C62643224   5.130   1.360   7.380 -0.1464 -0.4742  0.3145
   60MOL   C62743225   5.318   1.243   7.534 -0.2966 -0.3417  0.1593
   60MOL   H62843226   5.671   1.133   6.326 -2.0593  0.3092  0.1506
   60MOL   H62943227   5.566   1.025   6.402  0.4873 -0.6803 -3.1185
   60MOL   H63043228   5.741   0.990   6.387  0.9939  1.2508  0.0734
   60MOL   H63143229   5.796   1.184   6.549  1.2318 -1.9815  1.7782
   60MOL   H63243230   5.640   1.233   6.549  0.7420  0.4173 -1.8031
   60MOL   H63343231   5.707   0.973   6.691 -0.3891 -1.2367 -0.8235
   60MOL   H63443232   5.551   1.030   6.652 -0.6630  0.4262  1.9504
   60MOL   H63543233   5.594   1.247   6.785 -1.1200 -0.5857  0.9435
   60MOL   H63643234   5.756   1.197   6.809 -1.0426  1.6077  3.3073
   60MOL   H63743235   5.522   1.049   6.931  0.4900 -0.9680  0.0841
   60MOL   H63843236   5.660   0.983   6.934 -0.0574 -0.2914 -0.5374
   60MOL   H63943237   5.610   1.093   7.142  1.6565 -0.7860  0.6820
   60MOL   H64043238   5.764   1.169   7.079 -0.2029  0.8996 -1.2751
   60MOL   H64143239   5.500   1.317   7.044  0.5381  1.2182 -1.0680
   60MOL   H64243240   5.662   1.366   7.037  0.4011 -0.3081  1.4407
   60MOL   H64343241   5.681   1.319   7.303  0.7584 -0.7081  0.0368
   60MOL   H64443242   5.584   1.457   7.247  0.0134 -0.2891  4.6283
   60MOL   H64543243   5.132   1.460   7.422  2.1322  0.3489 -1.6098
   60MOL   H64643244   5.058   1.314   7.448 -1.1585  0.2834 -0.2209
   60MOL   H64743245   5.093   1.367   7.277 -0.2053 -0.5542  0.3304
   60MOL   H64843246   5.407   1.183   7.516  1.2820  1.2411  2.4230
   60MOL   H64943247   5.251   1.173   7.584 -0.2044 -1.0801 -0.7468
   60MOL   C65043248   4.839   2.265   7.482  0.5387 -0.4287  0.4333
   60MOL   C65143249   4.960   2.171   7.491  0.0135 -0.3532  0.0433
   60MOL   C65243250   4.930   2.045   7.564 -0.2768  0.2798  0.2950
   60MOL   C65343251   5.062   1.967   7.607 -0.3797 -0.2647 -0.3412
   60MOL   C65443252   5.148   1.912   7.487  0.5382 -0.1483 -0.4796
   60MOL   C65543253   5.262   1.818   7.532  0.4291 -0.7909  0.3323
   60MOL   C65643254   5.342   1.763   7.414  0.0629 -0.3888 -0.0726
   60MOL   C65743255   5.456   1.675   7.472  0.0995 -0.2607  0.1682
   60MOL   O65843256   5.381   1.573   7.539  0.0165 -0.2165 -0.0573
   60MOL   C65943257   5.447   1.465   7.599 -0.2074  0.4315  0.3907
   60MOL   O66043258   5.569   1.460   7.602 -0.1061 -0.1369  0.2855
   60MOL   C66143259   5.357   1.350   7.648 -0.1535 -0.5929 -0.4789
   60MOL   C66243260   5.442   1.270   7.744  0.1906 -0.3801 -0.3648
   60MOL   C66343261   5.220   1.400   7.717  0.0194 -1.0237  0.2016
   60MOL   H66443262   4.756   2.196   7.469  0.7207 -0.1856 -2.1596
   60MOL   H66543263   4.830   2.332   7.397 -0.6468 -1.2885 -0.1265
   60MOL   H66643264   4.819   2.321   7.573 -0.1103  2.5076 -1.4626
   60MOL   H66743265   5.038   2.230   7.540 -0.9961  0.4698  0.7022
   60MOL   H66843266   5.007   2.147   7.396 -0.7636 -1.0059 -0.1721
   60MOL   H66943267   4.858   1.980   7.514 -0.5198  1.2579 -0.6493
   60MOL   H67043268   4.878   2.082   7.653 -0.5785  1.5743 -0.4053
   60MOL   H67143269   5.036   1.885   7.674  0.1628  0.1337  0.3649
   60MOL   H67243270   5.126   2.029   7.671  1.0193 -2.6790  0.6538
   60MOL   H67343271   5.180   1.997   7.426  1.8326 -0.2974 -0.0342
   60MOL   H67443272   5.069   1.853   7.441 -0.2124 -0.3597  1.0343
   60MOL   H67543273   5.324   1.878   7.598 -0.0998  1.3607 -1.0836
   60MOL   H67643274   5.217   1.737   7.589  1.8803 -0.3813  2.1006
   60MOL   H67743275   5.383   1.839   7.348 -3.8103  1.7321 -0.1783
   60MOL   H67843276   5.278   1.699   7.353 -1.5260 -0.2585  1.4023
   60MOL   H67943277   5.523   1.732   7.536 -1.6948  1.4276  0.6258
   60MOL   H68043278   5.509   1.635   7.386 -2.2172 -1.9102 -0.5328
   60MOL   H68143279   5.517   1.212   7.692  0.7649 -0.7056  0.8097
   60MOL   H68243280   5.382   1.187   0.000  0.2314 -1.1414 -2.0399
   60MOL   H68343281   5.493   1.328   0.042  0.0361  0.2721 -0.7457
   60MOL   H68443282   5.168   1.449   7.634 -0.2974  0.7781  1.4422
   60MOL   H68543283   5.170   1.305   7.738 -1.3302 -0.5109 -0.6057
   60MOL   C68643284   4.733   1.196   7.000  0.5053  0.9382  1.0594
   60MOL   C68743285   4.704   1.194   7.152  0.3566  0.3198 -0.4041
   60MOL   C68843286   4.771   1.324   7.214 -0.0718 -0.8270 -0.0246
   60MOL   C68943287   4.744   1.333   7.361  0.3186  0.1278 -0.1826
   60MOL   C69043288   4.795   1.462   7.423 -0.0621 -0.6778  0.2369
   60MOL   C69143289   4.791   1.451   7.569  0.1737  0.3193  0.4684
   60MOL   C69243290   4.830   1.590   7.629  0.2097 -0.0218  0.2217
   60MOL   C69343291   4.856   1.568   7.778  0.2701 -0.5519 -0.5774
   60MOL   O69443292   4.979   1.501   0.030  0.0916  0.1013 -0.0494
   60MOL   C69543293   5.090   1.576   0.057 -0.2997  0.4621  0.2904
   60MOL   O69643294   5.096   1.701   0.063  0.5287  0.1324 -0.1189
   60MOL   C69743295   5.213   1.484   0.071 -0.4735 -0.5127 -0.2328
   60MOL   C69843296   5.331   1.569   0.105  0.0517  0.0696  0.4591
   60MOL   C69943297   5.188   1.380   0.197  0.1313 -0.0419 -0.8507
   60MOL   H70043298   4.840   1.188   6.982  0.7297  0.7300  2.4363
   60MOL   H70143299   4.700   1.289   6.954  0.2674 -1.2871 -3.5380
   60MOL   H70243300   4.694   1.109   6.947  0.2665  1.8088 -0.2148
   60MOL   H70343301   4.742   1.106   7.203  2.1423  0.6555 -1.1236
   60MOL   H70443302   4.596   1.199   7.168  0.2441 -0.5503 -0.8351
   60MOL   H70543303   4.734   1.423   7.185 -1.4100 -1.0179  0.9789
   60MOL   H70643304   4.880   1.325   7.203 -0.0622  0.1336  0.1291
   60MOL   H70743305   4.778   1.244   7.414  1.4805  0.7230  0.0889
   60MOL   H70843306   4.636   1.333   7.371  0.2834 -0.3166 -0.5656
   60MOL   H70943307   4.725   1.538   7.388 -1.8721 -1.3564  2.3145
   60MOL   H71043308   4.888   1.505   7.385 -0.7589  0.2920 -0.3864
   60MOL   H71143309   4.691   1.433   7.608  0.7509 -1.1074  1.3500
   60MOL   H71243310   4.857   1.368   7.596  0.2134 -0.0372 -0.6960
   60MOL   H71343311   4.925   1.618   7.584 -2.0899  1.5042 -3.9018
   60MOL   H71443312   4.765   1.674   7.609  0.4488 -0.0965 -0.8796
   60MOL   H71543313   4.772   1.517   0.047 -0.1058  0.7966  0.2127
   60MOL   H71643314   4.851   1.667   0.045  0.3956 -0.5432 -0.5839
   60MOL   H71743315   5.337   1.635   0.018 -1.3386  0.4936  0.6788
   60MOL   H71843316   5.308   1.619   0.199  2.3569  3.5015 -0.6982
   60MOL   H71943317   5.419   1.508   0.127 -0.0276  0.0724  0.7885
   60MOL   H72043318   5.241   1.410   0.288  0.4404 -1.4236 -0.5761
   60MOL   H72143319   5.233   1.282   0.186  2.6009  0.9700 -0.0895
   60MOL   H72243320   5.088   1.362   0.235  0.8717 -1.7100  0.3349
   61MOL     C143321   2.635   0.892   1.555 -0.1499  0.6517  0.0779
   61MOL     C243322   2.765   0.967   1.599 -0.3451 -0.0107 -0.6111
   61MOL     C343323   2.782   1.110   1.543  0.1564 -0.0951 -0.4059
   61MOL     C443324   2.892   1.189   1.601 -0.6905  0.6258  0.4600
   61MOL     C543325   2.912   1.332   1.544  0.1111  0.5781  0.5349
   61MOL     C643326   3.060   1.387   1.568 -0.1333 -0.7132 -0.0389
   61MOL     C743327   3.163   1.330   1.472  0.3682 -0.4396  0.0779
   61MOL     C843328   3.304   1.392   1.496 -0.2075  0.2998  0.1180
   61MOL     O943329   3.401   1.343   1.399 -0.1141  0.7160  0.7488
   61MOL    C1043330   3.533   1.335   1.429  0.3027 -0.7861 -0.3514
   61MOL    O1143331   3.574   1.358   1.542  0.0568  0.0749 -0.2598
   61MOL    C1243332   3.621   1.302   1.314 -0.6747  0.2380 -0.1720
   61MOL    C1343333   3.584   1.174   1.250  0.1674 -0.0091  0.0272
   61MOL    C1443334   3.632   1.421   1.216 -0.4455 -0.3551  0.3440
   61MOL    H1543335   2.613   0.812   1.625 -1.3885 -0.1890 -1.2504
   61MOL    H1643336   2.634   0.848   1.456 -0.9312 -0.8011  0.7261
   61MOL    H1743337   2.554   0.965   1.550 -1.5040 -0.8441 -0.1361
   61MOL    H1843338   2.847   0.902   1.570 -1.0049 -1.8203  1.4526
   61MOL    H1943339   2.774   0.965   1.707 -0.9075  0.0970 -0.5568
   61MOL    H2043340   2.780   1.122   1.434 -1.8346 -0.6339 -0.4475
   61MOL    H2143341   2.693   1.162   1.579 -0.0812 -0.2156 -0.8042
   61MOL    H2243342   2.862   1.205   1.704  0.5269  0.5201  0.8430
   61MOL    H2343343   2.988   1.137   1.592 -1.3545 -0.6530  0.7475
   61MOL    H2443344   2.836   1.392   1.593 -0.5591 -0.4320  0.7325
   61MOL    H2543345   2.885   1.332   1.439 -1.2470 -4.3644  0.7648
   61MOL    H2643346   3.083   1.364   1.672 -0.7246  2.3000  0.8043
   61MOL    H2743347   3.057   1.496   1.561 -1.6872 -0.7161  0.3699
   61MOL    H2843348   3.121   1.355   1.374  1.3372 -0.6475 -0.3970
   61MOL    H2943349   3.162   1.222   1.475 -1.1402 -0.4881 -1.1540
   61MOL    H3043350   3.333   1.382   1.601  1.0704  0.7471 -0.1792
   61MOL    H3143351   3.298   1.501   1.500  2.7494  0.4754  1.1448
   61MOL    H3243352   3.613   1.091   1.315  0.1275 -0.9027 -1.0908
   61MOL    H3343353   3.479   1.162   1.225  0.6688  0.7548 -2.6301
   61MOL    H3443354   3.646   1.166   1.162  1.2479  0.5107  0.7249
   61MOL    H3543355   3.534   1.467   1.204  0.0249  0.7938  0.8910
   61MOL    H3643356   3.659   1.387   1.115  0.9157  1.8113 -0.0602
   61MOL    H3743357   3.720   1.278   1.352 -0.9529  1.8643  1.6501
   61MOL    C3843358   4.188   2.193   1.907 -0.9353  0.3750 -0.5225
   61MOL    C3943359   4.088   2.080   1.947  0.0166  0.9831 -0.2503
   61MOL    C4043360   3.942   2.120   1.927  0.9027  0.2063  0.4063
   61MOL    C4143361   3.836   2.006   1.932  0.4458 -0.0756  0.2081
   61MOL    C4243362   3.824   1.941   1.784 -0.1440  0.6049 -0.1019
   61MOL    C4343363   3.731   1.832   1.760  0.5090 -0.3995 -0.2575
   61MOL    C4443364   3.747   1.802   1.605 -0.2983  0.7869 -0.3463
   61MOL    C4543365   3.651   1.691   1.557 -0.3916 -0.0280  0.3860
   61MOL    O4643366   3.666   1.652   1.426 -0.1421  0.2156 -0.2549
   61MOL    C4743367   3.757   1.567   1.388  0.1484  0.3670  0.1364
   61MOL    O4843368   3.854   1.537   1.461 -0.1761  0.2218 -0.3490
   61MOL    C4943369   3.750   1.523   1.243  0.5767 -0.0508 -0.8887
   61MOL    C5043370   3.724   1.647   1.150 -0.5738 -0.4540 -1.2012
   61MOL    C5143371   3.877   1.444   1.202 -0.6140  0.0253 -0.1321
   61MOL    H5243372   4.193   2.286   1.964  2.1399  0.2546 -0.4934
   61MOL    H5343373   4.166   2.220   1.804 -0.5037 -0.6695 -0.8984
   61MOL    H5443374   4.289   2.154   1.917 -1.2768 -0.0652  1.2865
   61MOL    H5543375   4.123   2.050   2.046 -0.9664  2.1551  0.4639
   61MOL    H5643376   4.112   1.988   1.894  0.4021  0.2620  1.1286
   61MOL    H5743377   3.928   2.187   2.012 -0.3862 -0.5819  0.8417
   61MOL    H5843378   3.927   2.193   1.847 -1.4334 -0.6990 -0.0104
   61MOL    H5943379   3.739   2.048   1.957  0.4118  0.5356 -0.8928
   61MOL    H6043380   3.851   1.929   2.007 -0.3997 -0.5028 -0.0590
   61MOL    H6143381   3.791   2.017   1.714 -1.0890 -1.9353 -2.5132
   61MOL    H6243382   3.928   1.918   1.762  0.3304  0.1684  2.4228
   61MOL    H6343383   3.756   1.743   1.817 -1.2105 -1.3953 -1.0297
   61MOL    H6443384   3.630   1.860   1.791  0.1744 -1.2586 -0.5649
   61MOL    H6543385   3.844   1.767   1.571 -1.0738 -2.6308  0.7866
   61MOL    H6643386   3.730   1.898   1.555 -2.6350  0.6623  0.1567
   61MOL    H6743387   3.548   1.725   1.558  0.3708  2.3806  2.2109
   61MOL    H6843388   3.673   1.606   1.622  0.6635  0.3582  0.5449
   61MOL    H6943389   3.797   1.728   1.161  0.0049 -1.0626 -0.4784
   61MOL    H7043390   3.718   1.620   1.045 -0.2377 -0.8599 -1.1156
   61MOL    H7143391   3.628   1.688   1.180 -0.0539 -1.9765  2.8678
   61MOL    H7243392   3.853   1.371   1.125 -1.7784  0.9844 -0.6913
   61MOL    H7343393   3.893   1.391   1.296  0.4884  0.7641  0.1204
   61MOL    C7443394   4.857   1.656   0.434  0.2296 -0.6710  0.5887
   61MOL    C7543395   4.720   1.593   0.467  0.5063 -0.2618  0.0257
   61MOL    C7643396   4.682   1.603   0.617  0.6716  0.2640  0.4773
   61MOL    C7743397   4.528   1.574   0.638 -0.1829 -1.0655 -0.3897
   61MOL    C7843398   4.488   1.581   0.784  0.1218 -0.4851  0.1129
   61MOL    C7943399   4.336   1.562   0.816  0.0725 -0.3763 -0.3959
   61MOL    C8043400   4.263   1.692   0.797 -0.0628  0.1908  0.5449
   61MOL    C8143401   4.115   1.669   0.830  0.3257  0.1517  0.4609
   61MOL    O8243402   4.112   1.620   0.963  0.0761 -0.5716  0.7324
   61MOL    C8343403   4.007   1.556   1.008 -0.2140 -0.2223  0.2097
   61MOL    O8443404   3.911   1.532   0.931  0.3383  0.2644  0.6658
   61MOL    C8543405   4.018   1.506   1.158 -0.5942 -0.4425  0.0633
   61MOL    C8643406   4.058   1.625   1.250  0.1534  0.0383 -0.0188
   61MOL    C8743407   4.141   1.401   1.164  0.5380 -0.0622 -0.9936
   61MOL    H8843408   4.866   1.650   0.326  0.6596  0.6862  0.5399
   61MOL    H8943409   4.939   1.597   0.473 -1.0782 -3.9133 -1.3273
   61MOL    H9043410   4.863   1.761   0.463  1.2478 -0.7221  0.5577
   61MOL    H9143411   4.715   1.486   0.446  0.9102 -0.7832  2.4631
   61MOL    H9243412   4.642   1.641   0.407 -0.9317 -2.1991  0.2827
   61MOL    H9343413   4.742   1.543   0.685 -0.8901  0.0286  1.7002
   61MOL    H9443414   4.699   1.709   0.637  0.3636  0.5652 -0.8472
   61MOL    H9543415   4.506   1.470   0.615 -2.7165 -0.9524  1.2604
   61MOL    H9643416   4.468   1.644   0.580  0.9928  1.2647  1.1184
   61MOL    H9743417   4.532   1.491   0.828  1.8522  0.0471 -0.4707
   61MOL    H9843418   4.548   1.652   0.841 -1.1796  1.9577 -1.4472
   61MOL    H9943419   4.291   1.485   0.754 -1.0149 -0.5946  0.6319
   61MOL   H10043420   4.326   1.519   0.916  1.0373  0.4563  0.0709
   61MOL   H10143421   4.303   1.769   0.862 -0.1815  0.0074  0.8374
   61MOL   H10243422   4.275   1.729   0.695 -0.0487  0.1958  0.5485
   61MOL   H10343423   4.064   1.595   0.769  2.1606 -0.2920 -0.5757
   61MOL   H10443424   4.055   1.759   0.838  0.2215  0.1779 -0.6693
   61MOL   H10543425   3.984   1.705   1.255  1.1867  0.9532  0.8912
   61MOL   H10643426   4.151   1.667   1.214  0.7157 -0.8788  0.3553
   61MOL   H10743427   4.077   1.587   1.351 -3.1276 -0.6871  0.4033
   61MOL   H10843428   4.218   1.457   1.112  0.0495  2.0364  0.4950
   61MOL   H10943429   4.180   1.405   1.266  0.2842  0.1016 -0.9031
   61MOL   C11043430   4.553   0.298   1.321  0.8485 -0.1508 -0.3547
   61MOL   C11143431   4.435   0.387   1.378  0.2126  0.5235  0.3813
   61MOL   C11243432   4.433   0.519   1.304  0.2060  0.3462 -0.2769
   61MOL   C11343433   4.322   0.618   1.349 -0.0763  0.5272  0.4867
   61MOL   C11443434   4.317   0.737   1.249 -0.1220 -0.4375 -0.4277
   61MOL   C11543435   4.182   0.816   1.262  0.7495 -0.0691 -0.1302
   61MOL   C11643436   4.166   0.884   1.397 -0.8064  0.6880  0.1403
   61MOL   C11743437   4.063   0.998   1.409 -0.3077  0.4163 -0.0375
   61MOL   O11843438   4.113   1.103   1.327  0.0230  0.0912 -0.0042
   61MOL   C11943439   4.035   1.169   1.229  0.5887 -0.1401 -0.0217
   61MOL   O12043440   3.917   1.154   1.209 -0.4918 -0.8043  0.4684
   61MOL   C12143441   4.125   1.250   1.128  0.1253  0.4488 -0.0736
   61MOL   C12243442   4.271   1.200   1.135  0.1972 -0.0108  0.3051
   61MOL   C12343443   4.073   1.236   0.983 -0.8600 -0.1541  0.4453
   61MOL   H12443444   4.558   0.203   1.375  0.1732  1.5144  2.7936
   61MOL   H12543445   4.555   0.277   1.214 -0.9947  1.3396 -0.7025
   61MOL   H12643446   4.649   0.344   1.348 -0.6440  1.7819  1.8275
   61MOL   H12743447   4.458   0.387   1.484  2.7662  2.3042 -0.1182
   61MOL   H12843448   4.341   0.334   1.364  0.7551 -1.0696  2.5322
   61MOL   H12943449   4.431   0.506   1.196  2.6821 -1.8301 -0.0991
   61MOL   H13043450   4.524   0.573   1.330 -0.0717  0.6138  0.1464
   61MOL   H13143451   4.226   0.571   1.364 -1.4629  2.7103 -1.1558
   61MOL   H13243452   4.354   0.651   1.448  0.3651 -1.0945  0.8921
   61MOL   H13343453   4.328   0.706   1.145 -0.3318 -1.2903 -0.1971
   61MOL   H13443454   4.405   0.795   1.279  1.1614 -1.9206 -1.2312
   61MOL   H13543455   4.185   0.900   1.193 -0.1077 -0.4158 -0.6090
   61MOL   H13643456   4.098   0.755   1.228  0.4461 -0.0883  0.6356
   61MOL   H13743457   4.264   0.915   1.433 -1.5820  0.6863  2.3449
   61MOL   H13843458   4.132   0.805   1.464  0.9065  0.0242  0.2510
   61MOL   H13943459   3.966   0.962   1.374 -0.0696 -0.3898  0.1124
   61MOL   H14043460   4.050   1.027   1.513 -0.3836  0.3950 -0.0406
   61MOL   H14143461   4.288   1.093   1.136  0.5985  0.0515 -0.0507
   61MOL   H14243462   4.326   1.253   1.057 -1.2190 -3.4400 -3.1305
   61MOL   H14343463   4.326   1.223   1.226  1.0187  0.2087 -0.2480
   61MOL   H14443464   4.116   1.315   0.922 -1.6076 -0.0389  0.0687
   61MOL   H14543465   3.967   1.260   0.991 -0.8755 -0.5130  1.4213
   61MOL   C14643466   4.917   0.977   0.058 -0.6318 -0.0441 -0.0227
   61MOL   C14743467   4.900   0.987   0.205  0.4931  0.3933  0.0793
   61MOL   C14843468   4.768   1.054   0.250  0.0837 -0.1415  0.6221
   61MOL   C14943469   4.749   1.047   0.406  1.1964 -0.4302  0.3564
   61MOL   C15043470   4.611   1.117   0.439  0.3925  0.2435  0.2183
   61MOL   C15143471   4.596   1.109   0.592  0.1665 -0.1986  0.0185
   61MOL   C15243472   4.454   1.140   0.633  0.3061 -1.0484  1.0206
   61MOL   C15343473   4.429   1.154   0.786  0.0197  0.2805  0.0046
   61MOL   O15443474   4.291   1.173   0.815 -0.1393 -0.2783  0.9398
   61MOL   C15543475   4.224   1.069   0.869  0.0698 -0.0364  0.1146
   61MOL   O15643476   4.279   0.960   0.896 -0.3867 -0.0906 -0.0453
   61MOL   C15743477   4.079   1.102   0.892  0.4224 -0.9829 -0.2436
   61MOL   C15843478   4.008   0.988   0.960  0.4246  0.2392  0.0556
   61MOL   C15943479   4.013   1.150   0.751  0.8337 -0.2401 -0.0315
   61MOL   H16043480   4.900   1.073   0.010  1.9047  0.6876  0.4731
   61MOL   H16143481   4.853   0.893   0.032  0.7612 -0.5726 -1.8326
   61MOL   H16243482   5.020   0.947   0.039 -0.3481  0.0701  1.2763
   61MOL   H16343483   4.919   0.884   0.237  2.0610  0.9422  0.9958
   61MOL   H16443484   4.978   1.053   0.243 -0.2158  1.3747 -0.1405
   61MOL   H16543485   4.686   1.015   0.189  0.2248 -0.2904  0.5255
   61MOL   H16643486   4.772   1.159   0.224  1.8300  0.4081  2.9288
   61MOL   H16743487   4.756   0.942   0.437  0.7732 -1.0782 -1.6684
   61MOL   H16843488   4.831   1.090   0.462  1.2907 -0.6427  0.3815
   61MOL   H16943489   4.529   1.063   0.392  1.8191 -0.9110 -0.9687
   61MOL   H17043490   4.606   1.217   0.397 -3.3764  0.6150  1.3708
   61MOL   H17143491   4.663   1.176   0.644 -0.0224  0.0096 -0.0082
   61MOL   H17243492   4.622   1.006   0.617  2.2647 -0.2538 -2.1836
   61MOL   H17343493   4.429   1.235   0.587 -0.5857 -0.4376  2.7426
   61MOL   H17443494   4.396   1.060   0.587 -1.6035  1.0953 -0.4411
   61MOL   H17543495   4.471   1.064   0.831  0.5127  0.7909  0.5915
   61MOL   H17643496   4.488   1.233   0.834  2.5662 -1.0246 -0.8964
   61MOL   H17743497   4.048   0.960   1.057  1.3607  0.8112 -0.1569
   61MOL   H17843498   4.005   0.894   0.906  1.0145  0.3096 -0.0979
   61MOL   H17943499   3.902   1.012   0.968  0.4610 -0.0943  1.6632
   61MOL   H18043500   4.057   1.241   0.711  1.0785 -0.0946  0.5629
   61MOL   H18143501   3.919   1.199   0.777  1.4853  1.8101 -1.4296
   61MOL   C18243502   3.772   1.748   0.633  0.7568  0.0375 -0.0763
   61MOL   C18343503   3.625   1.689   0.641 -0.0343 -0.2962  0.1247
   61MOL   C18443504   3.615   1.557   0.713 -1.0034 -0.3111 -0.1587
   61MOL   C18543505   3.475   1.500   0.713 -0.1610  0.5419  0.1013
   61MOL   C18643506   3.469   1.361   0.778 -0.1722 -0.1088  0.2525
   61MOL   C18743507   3.529   1.244   0.697  0.8415  0.3745 -0.3254
   61MOL   C18843508   3.553   1.114   0.779 -0.4661 -0.5338  0.1306
   61MOL   C18943509   3.616   1.012   0.693 -0.5859 -0.0860  0.4640
   61MOL   O19043510   3.742   1.055   0.647 -0.2066  0.4001 -0.0647
   61MOL   C19143511   3.852   0.979   0.650  0.4277  0.2925  0.2777
   61MOL   O19243512   3.853   0.863   0.685  0.6778 -0.2833  0.5234
   61MOL   C19343513   3.985   1.058   0.623 -0.3289  0.4348 -0.6693
   61MOL   C19443514   4.100   0.959   0.602  0.8710  0.3914 -0.2191
   61MOL   C19543515   3.962   1.146   0.492  0.0416  0.6920  1.0126
   61MOL   H19643516   3.845   1.670   0.616  0.0125 -0.4531 -1.1391
   61MOL   H19743517   3.780   1.818   0.549  0.8157 -0.1979 -0.2673
   61MOL   H19843518   3.796   1.810   0.719 -1.1118  0.8757 -0.1133
   61MOL   H19943519   3.585   1.678   0.540 -2.6447  1.4149  0.9275
   61MOL   H20043520   3.568   1.767   0.691 -0.4667 -1.3000  1.2071
   61MOL   H20143521   3.689   1.497   0.660 -2.3082 -1.4777 -0.7078
   61MOL   H20243522   3.652   1.577   0.814 -2.2054  3.4955 -0.4080
   61MOL   H20343523   3.416   1.568   0.774 -1.3329  1.4103 -1.9496
   61MOL   H20443524   3.433   1.505   0.613  0.7459 -2.8054 -0.4925
   61MOL   H20543525   3.367   1.333   0.803 -0.1363  0.0019  0.5290
   61MOL   H20643526   3.524   1.381   0.871  2.3981 -0.3956 -1.1585
   61MOL   H20743527   3.618   1.268   0.639  0.0584  0.3180 -1.5718
   61MOL   H20843528   3.460   1.226   0.615 -2.6320  4.1778  1.5746
   61MOL   H20943529   3.618   1.141   0.862 -1.1906 -2.6345  1.4310
   61MOL   H21043530   3.455   1.090   0.821 -1.4443  1.1415 -1.1572
   61MOL   H21143531   3.551   0.977   0.613 -1.0617  0.4943  0.5994
   61MOL   H21243532   3.632   0.928   0.761 -0.7780 -0.1813  0.3902
   61MOL   H21343533   4.196   1.009   0.618  1.4138  0.5432 -3.4692
   61MOL   H21443534   4.091   0.880   0.676 -1.2214  2.5434  1.9165
   61MOL   H21543535   4.106   0.918   0.501  3.2754  0.8630 -0.3099
   61MOL   H21643536   3.921   1.077   0.418 -1.5415 -0.1245  2.6257
   61MOL   H21743537   3.883   1.217   0.516 -0.3379  0.9122 -0.8411
   61MOL   C21843538   3.846   0.209   0.568 -0.0392 -0.2647  0.4938
   61MOL   C21943539   3.851   0.345   0.504 -0.7940  1.0260  0.6060
   61MOL   C22043540   3.992   0.390   0.465 -0.5170 -0.0803 -0.1753
   61MOL   C22143541   3.992   0.514   0.371 -0.6587  0.0725  0.2204
   61MOL   C22243542   4.120   0.601   0.355 -0.0112 -0.2675  0.2093
   61MOL   C22343543   4.094   0.730   0.269  0.5999 -0.1256 -0.6051
   61MOL   C22443544   4.212   0.814   0.253  0.1361 -0.1131 -0.3290
   61MOL   C22543545   4.183   0.940   0.179 -0.1438 -0.4465  0.2358
   61MOL   O22643546   4.108   1.032   0.255 -0.7353  0.0295 -0.0930
   61MOL   C22743547   4.170   1.123   0.326 -0.1209 -0.0712 -0.0014
   61MOL   O22843548   4.292   1.121   0.337 -0.1585  0.5188 -0.0866
   61MOL   C22943549   4.078   1.224   0.405  0.5995  0.0972 -0.4365
   61MOL   C23043550   4.175   1.306   0.498  0.0436  0.3934  0.1156
   61MOL   C23143551   4.017   1.320   0.288  0.1688  0.5140  0.3883
   61MOL   H23243552   3.898   0.199   0.663 -1.2801  0.6544  1.3005
   61MOL   H23343553   3.880   0.118   0.519 -0.7642 -0.2616 -0.0216
   61MOL   H23443554   3.741   0.202   0.598  0.2219 -1.0735  1.2210
   61MOL   H23543555   3.814   0.417   0.578  0.1971 -0.0698  2.1843
   61MOL   H23643556   3.786   0.358   0.417 -1.0176 -0.0680  0.6067
   61MOL   H23743557   4.046   0.404   0.559 -1.2365 -0.0497  0.2368
   61MOL   H23843558   4.035   0.313   0.401  0.9697  1.8865 -1.6137
   61MOL   H23943559   3.946   0.500   0.273 -0.2578 -0.1243  0.0619
   61MOL   H24043560   3.924   0.588   0.414 -1.0791 -0.5028  0.5627
   61MOL   H24143561   4.127   0.628   0.460 -2.6974 -1.7140  0.8198
   61MOL   H24243562   4.211   0.552   0.319 -1.2246 -0.4721 -2.7788
   61MOL   H24343563   4.071   0.700   0.167  0.1188 -1.7204 -0.0407
   61MOL   H24443564   4.012   0.784   0.316 -0.4366 -1.4424 -0.9142
   61MOL   H24543565   4.273   0.748   0.192 -1.7947  0.3563 -2.8170
   61MOL   H24643566   4.266   0.837   0.345  1.5127  2.0347 -1.6360
   61MOL   H24743567   4.124   0.915   0.091 -0.4379  0.6278  0.1274
   61MOL   H24843568   4.276   0.988   0.150 -0.6446  0.1909 -0.3390
   61MOL   H24943569   4.236   1.241   0.561  0.0560  0.3182  0.0245
   61MOL   H25043570   4.124   1.383   0.556 -0.4542 -0.5566  0.9437
   61MOL   H25143571   4.251   1.370   0.452  1.0189 -0.3967  0.5925
   61MOL   H25243572   4.087   1.329   0.205 -1.0926 -2.9535 -1.1589
   61MOL   H25343573   3.940   1.264   0.236  1.4957 -0.6719 -0.3259
   61MOL   C25443574   3.832   2.080   7.751  0.3521 -0.0570  0.0421
   61MOL   C25543575   3.956   2.089   7.658 -0.6816 -0.0852 -0.9786
   61MOL   C25643576   4.088   2.091   7.738  0.6715  0.3376  0.1309
   61MOL   C25743577   4.120   1.956   0.013 -0.3057  0.1051  0.5110
   61MOL   C25843578   4.267   1.938   0.050 -0.1535 -0.8191  0.2148
   61MOL   C25943579   4.306   1.811   0.129  0.3228 -1.4601 -0.1653
   61MOL   C26043580   4.243   1.811   0.265 -0.2913 -0.0297 -0.3784
   61MOL   C26143581   4.284   1.675   0.330 -0.0248 -0.1005 -0.2461
   61MOL   O26243582   4.187   1.571   0.303 -0.2116 -0.6398 -0.4389
   61MOL   C26343583   4.066   1.564   0.371 -0.5399 -0.5978 -0.5585
   61MOL   O26443584   4.046   1.626   0.475  0.3193  0.1642  0.1107
   61MOL   C26543585   3.958   1.462   0.311  0.6395  0.1454  0.0446
   61MOL   C26643586   3.837   1.441   0.415  0.0370 -1.4327 -0.1235
   61MOL   C26743587   3.925   1.510   0.157  0.2262  0.6284  0.4094
   61MOL   H26843588   3.813   2.170   0.030  3.1007  1.2451 -0.9708
   61MOL   H26943589   3.739   2.064   7.696  1.2345  0.2915 -1.5787
   61MOL   H27043590   3.843   1.994   0.037  0.4977  0.0829  0.2026
   61MOL   H27143591   3.959   2.007   7.586  1.3778 -0.8259 -0.0760
   61MOL   H27243592   3.946   2.183   7.603 -2.4515  0.4903  0.2583
   61MOL   H27343593   4.078   2.168   0.035  1.5961  0.4381  0.1525
   61MOL   H27443594   4.168   2.111   7.668  0.7209  1.0957  0.3991
   61MOL   H27543595   4.090   1.886   7.715 -0.8504  0.1853  0.6503
   61MOL   H27643596   4.054   1.931   0.096 -0.3002 -0.2194  0.4187
   61MOL   H27743597   4.322   1.936   7.736 -1.8850 -1.2143 -0.8163
   61MOL   H27843598   4.307   2.025   0.101 -1.1850 -0.0786 -0.2375
   61MOL   H27943599   4.415   1.809   0.126  0.3036 -1.6520 -0.6804
   61MOL   H28043600   4.269   1.727   0.071 -1.5505  0.5591 -1.9886
   61MOL   H28143601   4.275   1.891   0.331  0.3711 -0.5601 -0.0586
   61MOL   H28243602   4.134   1.822   0.264 -0.0574  2.6351 -1.9653
   61MOL   H28343603   4.385   1.645   0.301  0.6890  0.3483  1.7521
   61MOL   H28443604   4.287   1.686   0.438  1.2203 -0.1776 -0.2653
   61MOL   H28543605   3.870   1.450   0.519 -1.1541  2.2363  0.0299
   61MOL   H28643606   3.762   1.519   0.401  1.5724 -0.0778 -1.0577
   61MOL   H28743607   3.794   1.342   0.401 -1.9279 -1.0154  2.4547
   61MOL   H28843608   3.891   1.426   0.096 -1.6473  1.5765  0.1201
   61MOL   H28943609   4.017   1.553   0.117  0.4300 -1.5814 -1.5816
   61MOL   C29043610   3.024   0.992   0.360  0.2828  0.1293  0.0114
   61MOL   C29143611   2.987   1.131   0.420 -0.5074  0.6224  0.2475
   61MOL   C29243612   3.120   1.202   0.446 -0.1536  0.3958  0.3562
   61MOL   C29343613   3.098   1.354   0.467 -0.2160 -0.5020  0.0197
   61MOL   C29443614   3.222   1.435   0.459 -0.1966  0.5916  0.3536
   61MOL   C29543615   3.259   1.468   0.315 -0.4127  0.3476 -0.2684
   61MOL   C29643616   3.382   1.557   0.308  0.5176 -0.4994 -0.4369
   61MOL   C29743617   3.433   1.585   0.164 -0.5332  0.8776 -0.0851
   61MOL   O29843618   3.567   1.637   0.159  0.0448 -0.3125 -0.0302
   61MOL   C29943619   3.669   1.551   0.160 -0.6887  0.3870  0.7566
   61MOL   O30043620   3.654   1.429   0.184 -0.0015  0.0763 -0.2973
   61MOL   C30143621   3.806   1.611   0.135 -0.3179  0.3899 -0.3141
   61MOL   C30243622   3.822   1.739   0.221 -0.2692 -0.4799 -0.3897
   61MOL   C30343623   3.821   1.663   7.768 -0.6167  0.0360  0.4134
   61MOL   H30443624   3.042   1.012   0.254  1.2115  0.5988  0.2564
   61MOL   H30543625   2.939   0.923   0.353  0.6201 -0.1760 -1.2931
   61MOL   H30643626   3.120   0.956   0.398  0.1230  0.3780  0.6542
   61MOL   H30743627   2.928   1.125   0.511 -0.7781  3.4432  0.2923
   61MOL   H30843628   2.925   1.186   0.349 -0.2826  0.7765  0.1712
   61MOL   H30943629   3.185   1.183   0.361 -1.5508 -0.3452 -0.5807
   61MOL   H31043630   3.165   1.165   0.537 -0.9252  1.3979  1.1589
   61MOL   H31143631   3.025   1.396   0.398 -0.2038 -1.4655 -0.5950
   61MOL   H31243632   3.049   1.370   0.563  0.1693 -0.6082  0.2351
   61MOL   H31343633   3.240   1.512   0.534  1.5197 -0.2106  0.7832
   61MOL   H31443634   3.301   1.367   0.490  1.6261  1.9540 -1.1473
   61MOL   H31543635   3.168   1.511   0.273 -1.0001  0.2062  0.8280
   61MOL   H31643636   3.275   1.379   0.255  0.8350 -1.6480  2.8925
   61MOL   H31743637   3.447   1.509   0.382 -0.5027 -1.3970 -0.1004
   61MOL   H31843638   3.356   1.656   0.346  1.2467 -0.8593  1.0575
   61MOL   H31943639   3.361   1.648   0.111  0.0172  0.3499 -1.4824
   61MOL   H32043640   3.427   1.497   0.100 -2.8993  0.3291  0.8156
   61MOL   H32143641   3.924   1.777   0.226 -0.6358  0.2258  3.4353
   61MOL   H32243642   3.778   1.720   0.319 -0.3808 -2.3200 -0.7877
   61MOL   H32343643   3.766   1.823   0.178  1.0037  1.2117  1.1564
   61MOL   H32443644   3.724   1.711   7.757 -0.7926 -0.1018  1.3533
   61MOL   H32543645   3.894   1.744   7.761 -0.3397 -0.2861 -0.6245
   61MOL   C32643646   3.631   2.275   6.857  0.3929 -0.1482  0.0370
   61MOL   C32743647   3.505   2.220   6.904 -0.1885  0.2321  0.3122
   61MOL   C32843648   3.516   2.117   7.014  0.1013  0.4476  0.1434
   61MOL   C32943649   3.583   1.986   6.963 -0.3776 -0.2435 -0.1577
   61MOL   C33043650   3.554   1.872   7.064  0.0331 -0.3073 -0.1408
   61MOL   C33143651   3.594   1.916   7.206  0.2338 -0.3018  0.5977
   61MOL   C33243652   3.635   1.804   7.300  0.2990 -0.4596  0.0279
   61MOL   C33343653   3.668   1.851   7.442 -0.3574  0.6756  0.4949
   61MOL   O33443654   3.698   1.747   7.534 -0.0758 -0.2274  0.4437
   61MOL   C33543655   3.819   1.686   7.529 -0.3515  0.1212  0.6207
   61MOL   O33643656   3.909   1.704   7.452  0.2165  0.1992 -0.7560
   61MOL   C33743657   3.834   1.576   7.641 -0.2513 -0.2661  0.6801
   61MOL   C33843658   3.985   1.527   7.644 -0.0531 -0.3382  0.2089
   61MOL   C33943659   3.730   1.468   7.632  0.5991  0.5771  0.1251
   61MOL   H34043660   3.693   2.294   6.945  1.7346 -2.9414 -0.2660
   61MOL   H34143661   3.607   2.375   6.820 -0.1229 -0.3194 -0.0887
   61MOL   H34243662   3.673   2.216   6.776  2.9725  2.1742 -0.4156
   61MOL   H34343663   3.436   2.178   6.830  1.6488 -1.2133 -0.6256
   61MOL   H34443664   3.443   2.297   6.949 -0.6768  0.3108 -0.4840
   61MOL   H34543665   3.422   2.105   7.067  0.6846 -0.8407  0.9117
   61MOL   H34643666   3.592   2.153   7.083  1.3496 -0.4233 -0.7291
   61MOL   H34743667   3.691   1.996   6.950 -0.2135 -0.5271  0.9888
   61MOL   H34843668   3.539   1.966   6.865 -2.9266 -2.2707  1.3695
   61MOL   H34943669   3.447   1.851   7.067  0.3488 -1.7695  2.6539
   61MOL   H35043670   3.604   1.777   7.048 -0.1874 -0.3192 -0.7911
   61MOL   H35143671   3.684   1.977   7.196 -1.0856  1.5567 -0.3185
   61MOL   H35243672   3.517   1.979   7.253 -1.1860  0.1942 -2.2508
   61MOL   H35343673   3.729   1.771   7.256  1.6606  2.9225  0.2832
   61MOL   H35443674   3.575   1.713   7.299 -2.2030  1.1616 -2.0052
   61MOL   H35543675   3.758   1.912   7.445 -1.3256  2.2600 -1.5354
   61MOL   H35643676   3.589   1.914   7.483 -1.0623  0.6034 -0.7492
   61MOL   H35743677   4.056   1.598   7.687 -0.5780  0.9448 -1.0205
   61MOL   H35843678   4.005   1.433   7.696 -0.2221 -1.3230 -1.4750
   61MOL   H35943679   4.015   1.510   7.541 -0.3885  0.9561 -0.1118
   61MOL   H36043680   3.730   1.405   7.722 -1.5432 -1.1604 -1.0470
   61MOL   H36143681   3.635   1.521   7.630  0.9138  1.1362 -0.0516
   61MOL   C36243682   3.638   0.437   0.122  0.2687  0.1950 -0.1201
   61MOL   C36343683   3.549   0.548   0.055 -0.1206 -0.3630  0.2338
   61MOL   C36443684   3.632   0.617   7.727  0.0937  0.4369 -0.2609
   61MOL   C36543685   3.730   0.724   0.002 -0.0106 -0.3603 -0.6493
   61MOL   C36643686   3.802   0.796   7.666 -0.2528  0.0669 -0.2466
   61MOL   C36743687   3.845   0.933   7.704  0.1700 -0.6055 -0.2326
   61MOL   C36843688   3.956   0.990   7.616  0.5277  0.3866 -0.1298
   61MOL   C36943689   3.988   1.134   7.654  0.1556 -0.0692  0.7148
   61MOL   O37043690   3.881   1.225   7.630 -0.0426 -0.2281 -0.0404
   61MOL   C37143691   3.848   1.269   7.509 -0.9173 -0.1230 -0.7251
   61MOL   O37243692   3.912   1.262   7.407  0.1874 -0.1884  0.1201
   61MOL   C37343693   3.717   1.354   7.518 -0.4240 -0.2543  0.3062
   61MOL   C37443694   3.686   1.427   7.382 -0.1943  0.0672  0.0224
   61MOL   C37543695   3.595   1.266   7.563 -0.1155 -0.7204  0.2195
   61MOL   H37643696   3.666   0.354   0.058  1.7856  1.3070 -0.9422
   61MOL   H37743697   3.726   0.478   0.173  0.1767  0.9434 -0.5640
   61MOL   H37843698   3.574   0.389   0.196  0.2972 -0.5558 -0.5848
   61MOL   H37943699   3.522   0.618   0.134 -2.0746 -1.7350  0.8155
   61MOL   H38043700   3.467   0.497   0.005 -2.0688  2.3397  0.5884
   61MOL   H38143701   3.554   0.660   7.665 -0.5011  0.4626  0.4962
   61MOL   H38243702   3.688   0.540   7.673  1.1050  1.0714 -0.1378
   61MOL   H38343703   3.791   0.677   0.079  2.3813  0.5979 -1.8983
   61MOL   H38443704   3.669   0.786   0.067  2.5499 -1.0215  2.4998
   61MOL   H38543705   3.883   0.733   7.629 -0.7360  0.2361 -1.6206
   61MOL   H38643706   3.731   0.800   7.584 -1.3088 -2.5791  0.4582
   61MOL   H38743707   3.883   0.929   0.027 -0.2694  0.8390  0.0105
   61MOL   H38843708   3.767   1.009   7.692  0.5939 -0.3469 -1.3188
   61MOL   H38943709   3.936   0.977   7.510 -0.5251  2.0140 -0.1452
   61MOL   H39043710   4.054   0.945   7.632  1.0835  1.3029 -0.9192
   61MOL   H39143711   4.026   1.144   7.756  0.0643  2.3650  0.5406
   61MOL   H39243712   4.072   1.178   7.601 -0.1094 -1.3384 -0.7925
   61MOL   H39343713   3.599   1.492   7.393 -0.4776 -0.1224 -1.0484
   61MOL   H39443714   3.768   1.481   7.335 -0.9795 -0.1401 -1.6233
   61MOL   H39543715   3.660   1.349   7.310  1.7501 -0.1651 -0.4449
   61MOL   H39643716   3.635   1.205   7.644 -0.3751 -0.3979  0.5955
   61MOL   H39743717   3.519   1.335   7.599 -0.2949 -0.8233  0.0406
   61MOL   C39843718   3.985   1.284   7.026 -0.6851 -0.1305  0.1951
   61MOL   C39943719   3.860   1.315   6.941  0.9175 -0.0458 -0.2574
   61MOL   C40043720   3.749   1.211   6.947  0.5013 -0.0009  0.1476
   61MOL   C40143721   3.631   1.240   6.856 -0.3208 -0.1101  0.4741
   61MOL   C40243722   3.534   1.114   6.858  0.1430 -0.2021 -0.6568
   61MOL   C40343723   3.463   1.085   6.992 -1.2065  0.1221 -0.1395
   61MOL   C40443724   3.362   1.189   7.045 -0.0955 -0.1180 -0.3164
   61MOL   C40543725   3.282   1.134   7.174 -0.2758  0.2860 -0.0583
   61MOL   O40643726   3.373   1.104   7.287 -0.2289 -0.2154 -0.8510
   61MOL   C40743727   3.436   1.206   7.353  0.2389  0.4116 -1.1220
   61MOL   O40843728   3.423   1.330   7.332 -0.6175 -0.1342  0.4276
   61MOL   C40943729   3.524   1.154   7.474  0.3601  0.4172 -0.3539
   61MOL   C41043730   3.633   1.078   7.400 -0.1955  0.2387  0.1860
   61MOL   C41143731   3.438   1.048   7.564 -0.1165  0.5134  0.4924
   61MOL   H41243732   3.950   1.277   7.129  0.6722  1.3095  0.7726
   61MOL   H41343733   4.052   1.368   7.010  0.4717 -1.4063 -1.9610
   61MOL   H41443734   4.024   1.188   6.992  1.3037  0.7317 -0.0191
   61MOL   H41543735   3.898   1.325   6.839 -1.5344  0.0300 -1.2057
   61MOL   H41643736   3.822   1.411   6.976  0.2627 -0.6973  0.8715
   61MOL   H41743737   3.790   1.124   6.897  1.1452  1.1529 -1.3576
   61MOL   H41843738   3.712   1.183   7.046 -0.6553 -2.3290 -0.8865
   61MOL   H41943739   3.671   1.264   6.757 -0.8556  0.3286  0.3631
   61MOL   H42043740   3.570   1.324   6.889 -2.3545 -1.4511  0.2189
   61MOL   H42143741   3.461   1.113   6.777 -0.8849  0.3871  0.2520
   61MOL   H42243742   3.597   1.026   6.847  0.2582  0.0290 -1.9254
   61MOL   H42343743   3.536   1.058   7.068  0.3243 -0.8277 -1.9199
   61MOL   H42443744   3.402   0.994   6.984 -2.4971  1.0205 -0.6876
   61MOL   H42543745   3.420   1.281   7.055 -0.9887  0.5725 -1.3696
   61MOL   H42643746   3.284   1.211   6.972  1.1606 -1.9642 -2.3151
   61MOL   H42743747   3.207   1.205   7.210  1.0007  2.1602 -1.0148
   61MOL   H42843748   3.218   1.048   7.152  1.2660 -0.8736 -0.0784
   61MOL   H42943749   3.717   1.048   7.462  1.9153 -0.2975 -2.7915
   61MOL   H43043750   3.688   1.134   7.324 -0.0013 -0.9578 -0.5803
   61MOL   H43143751   3.595   0.984   7.361 -0.6296 -0.0010  1.1971
   61MOL   H43243752   3.508   0.980   7.614  1.2087  1.4380 -0.0869
   61MOL   H43343753   3.403   0.976   7.491 -1.3796 -1.3998  2.8899
   61MOL   C43443754   3.330   0.527   0.731 -0.2079  0.0394 -0.0184
   61MOL   C43543755   3.419   0.540   0.610  0.1674  0.0997 -0.6388
   61MOL   C43643756   3.466   0.678   0.568  0.3986  0.0067  0.0100
   61MOL   C43743757   3.567   0.671   0.449  0.9967 -0.2698  0.1797
   61MOL   C43843758   3.637   0.803   0.401  0.1680 -0.3943  0.4062
   61MOL   C43943759   3.542   0.896   0.327  0.5910  0.1296 -0.1012
   61MOL   C44043760   3.608   1.017   0.265  0.0505  0.5467  0.2961
   61MOL   C44143761   3.503   1.128   0.217 -0.4906  0.2646  0.1049
   61MOL   O44243762   3.438   1.071   0.100  0.2764  0.4187 -0.3048
   61MOL   C44343763   3.382   1.159   0.011  0.2607 -0.3553  0.4160
   61MOL   O44443764   3.373   1.281   0.022  0.0760  0.5511 -0.4692
   61MOL   C44543765   3.325   1.092   7.661 -0.4448  0.6194  0.3555
   61MOL   C44643766   3.259   0.954   7.695  0.1768  0.1051  0.4347
   61MOL   C44743767   3.220   1.188   7.594 -0.1663  0.3876 -0.0320
   61MOL   H44843768   3.329   0.427   0.773 -1.6559 -0.2469 -0.6880
   61MOL   H44943769   3.227   0.553   0.702  0.3232  1.4034 -0.7634
   61MOL   H45043770   3.362   0.595   0.810  1.8171 -2.6218  1.5395
   61MOL   H45143771   3.386   0.482   0.524  0.0347  0.4498 -0.8251
   61MOL   H45243772   3.511   0.488   0.634  0.5365 -0.4206 -3.0259
   61MOL   H45343773   3.523   0.731   0.644 -1.0878  0.9834  0.4651
   61MOL   H45443774   3.381   0.743   0.546  0.0583 -0.1778  0.7646
   61MOL   H45543775   3.539   0.613   0.360 -1.3613 -2.6819  2.3985
   61MOL   H45643776   3.649   0.614   0.492  0.0815  0.9567  3.6523
   61MOL   H45743777   3.678   0.858   0.486  0.8678 -0.6451  0.2334
   61MOL   H45843778   3.723   0.777   0.339 -1.1421 -1.0911 -1.1202
   61MOL   H45943779   3.465   0.943   0.389 -0.4440 -0.2151 -1.1143
   61MOL   H46043780   3.485   0.834   0.258 -1.0996 -0.3735  1.7001
   61MOL   H46143781   3.676   1.072   0.330 -2.5932  1.8929  2.0203
   61MOL   H46243782   3.661   0.972   0.181 -0.7475  0.0065  0.0801
   61MOL   H46343783   3.564   1.208   0.176  0.3226 -0.6488 -0.4920
   61MOL   H46443784   3.440   1.169   0.295 -1.1096 -0.0954 -0.1974
   61MOL   H46543785   3.169   0.961   7.757 -0.0060  0.9578  0.0750
   61MOL   H46643786   3.227   0.894   7.610  0.8639 -0.5896  0.6633
   61MOL   H46743787   3.326   0.893   7.755 -2.1326 -1.3070  1.6566
   61MOL   H46843788   3.262   1.289   7.586 -0.3635  0.6290  1.7612
   61MOL   H46943789   3.221   1.150   7.492  1.1830 -0.6362  0.3493
   61MOL   C47043790   3.572   0.398   7.110  0.0729  0.0002  0.2969
   61MOL   C47143791   3.508   0.502   7.205 -0.5928  0.0700  0.0956
   61MOL   C47243792   3.409   0.600   7.134 -0.3730  0.1884 -0.4694
   61MOL   C47343793   3.358   0.708   7.236 -0.0391 -0.5987  0.3177
   61MOL   C47443794   3.230   0.780   7.206 -0.3510  0.1800  0.7687
   61MOL   C47543795   3.163   0.832   7.333  0.4610 -0.3791  0.6018
   61MOL   C47643796   3.024   0.895   7.297 -0.4984 -0.2012  0.6127
   61MOL   C47743797   2.940   0.939   7.417 -0.1727 -0.3129 -0.3302
   61MOL   O47843798   3.007   1.052   7.477  0.0159 -0.0435 -0.7974
   61MOL   C47943799   2.995   1.076   7.607 -0.1695 -1.0434 -0.1594
   61MOL   O48043800   2.924   1.012   7.684 -0.1693  0.3244 -0.6970
   61MOL   C48143801   3.072   1.204   7.649 -0.4749 -0.0353  0.8248
   61MOL   C48243802   3.071   1.228   0.023  0.6698  0.1488  0.6254
   61MOL   C48343803   3.034   1.332   7.574  0.8377  0.1885  0.7178
   61MOL   H48443804   3.509   0.336   7.046  1.6760 -1.8775  0.4790
   61MOL   H48543805   3.639   0.336   7.171  1.0792 -0.5062 -1.3076
   61MOL   H48643806   3.642   0.436   7.036  2.0564 -1.6781  1.2674
   61MOL   H48743807   3.441   0.450   7.273 -0.5480  0.2791  0.3001
   61MOL   H48843808   3.579   0.569   7.253 -1.3076  2.2581 -1.7853
   61MOL   H48943809   3.441   0.655   7.046 -2.1360  3.0186  0.5595
   61MOL   H49043810   3.320   0.546   7.102 -0.6517  0.5208 -0.2666
   61MOL   H49143811   3.343   0.657   7.332  1.7351 -1.9336 -0.0915
   61MOL   H49243812   3.437   0.779   7.257 -1.1050  0.8733 -0.5743
   61MOL   H49343813   3.255   0.861   7.136  1.4193  1.4415  2.7859
   61MOL   H49443814   3.168   0.717   7.142  0.6902  0.0439 -0.1407
   61MOL   H49543815   3.154   0.751   7.406 -1.8424 -0.8016 -0.0953
   61MOL   H49643816   3.222   0.918   7.364  0.6064  0.8244 -2.8440
   61MOL   H49743817   3.039   0.979   7.229 -1.6252 -0.4637  0.0358
   61MOL   H49843818   2.960   0.828   7.241  0.6471  1.1050 -2.3493
   61MOL   H49943819   2.935   0.857   7.489 -1.5817 -0.4094 -0.5267
   61MOL   H50043820   2.842   0.975   7.386 -0.8994 -1.7504  0.2768
   61MOL   H50143821   2.967   1.233   0.055  0.4024 -1.9874  0.1362
   61MOL   H50243822   3.119   1.319   0.059 -1.1422  2.6416 -2.9333
   61MOL   H50343823   3.104   1.141   0.080 -1.3107 -1.7207 -0.9808
   61MOL   H50443824   3.091   1.407   7.630 -1.9066  0.0477  3.8361
   61MOL   H50543825   3.079   1.333   7.475 -1.4141  1.2027 -0.3337
   61MOL   C50643826   2.734   1.904   6.597 -0.0228 -0.1705 -0.9059
   61MOL   C50743827   2.727   1.841   6.740  0.2246 -0.5296 -0.3488
   61MOL   C50843828   2.801   1.713   6.761 -0.2134  0.7803 -0.5629
   61MOL   C50943829   2.808   1.670   6.911 -0.2064 -0.3892  0.0027
   61MOL   C51043830   2.847   1.521   6.934  0.6376 -0.6824 -0.2946
   61MOL   C51143831   2.818   1.467   7.075 -1.0656  0.1616  0.2302
   61MOL   C51243832   2.844   1.311   7.091  0.5621  0.7818 -0.8803
   61MOL   C51343833   2.796   1.262   7.222 -0.7389 -0.3229 -0.8355
   61MOL   O51443834   2.872   1.327   7.324 -0.3067  0.1990 -0.1299
   61MOL   C51543835   2.822   1.331   7.454 -0.0371  0.4686  0.3686
   61MOL   O51643836   2.722   1.270   7.488  0.0109  0.1095  0.1437
   61MOL   C51743837   2.900   1.408   7.566  0.2752 -0.5561  0.2441
   61MOL   C51843838   2.823   1.404   7.702  0.0597 -0.3365  0.3625
   61MOL   C51943839   2.922   1.558   7.521 -0.5114  0.4542 -0.6575
   61MOL   H52043840   2.652   1.974   6.584  2.7325  3.3870 -0.2028
   61MOL   H52143841   2.735   1.817   6.532 -0.5782 -1.1875  0.4411
   61MOL   H52243842   2.829   1.954   6.575  0.9096 -0.9385  1.2525
   61MOL   H52343843   2.627   1.819   6.778  0.5679 -0.2062  0.7598
   61MOL   H52443844   2.762   1.914   6.813 -0.7773  0.3026 -0.6990
   61MOL   H52543845   2.746   1.633   6.711  0.9524 -0.5248  0.2080
   61MOL   H52643846   2.901   1.729   6.721  0.2181  0.1838  0.2546
   61MOL   H52743847   2.882   1.726   6.968  0.0497  2.7813 -3.1881
   61MOL   H52843848   2.713   1.702   6.953 -0.7980 -2.4431  0.2520
   61MOL   H52943849   2.794   1.457   6.863 -1.5038  1.6394 -0.8771
   61MOL   H53043850   2.954   1.506   6.919  0.3561  0.8246 -4.3816
   61MOL   H53143851   2.721   1.501   7.110 -2.3733 -0.6551 -2.5307
   61MOL   H53243852   2.892   1.518   7.138  0.5095 -0.1862 -1.3000
   61MOL   H53343853   2.948   1.281   7.086 -0.0693 -2.0552  2.0253
   61MOL   H53443854   2.792   1.256   7.012 -0.3370 -0.4590  0.5364
   61MOL   H53543855   2.809   1.155   7.238 -1.0209 -0.2641 -0.1966
   61MOL   H53643856   2.688   1.278   7.224 -0.5177  1.1276  0.9713
   61MOL   H53743857   2.817   1.298   7.724  3.5210 -0.9127 -1.2489
   61MOL   H53843858   2.716   1.428   7.700  0.0051 -0.6180 -1.0189
   61MOL   H53943859   2.868   1.467   7.778 -1.3823 -0.8386  1.6659
   61MOL   H54043860   2.995   1.611   7.582  0.3306 -0.4236 -0.8931
   61MOL   H54143861   2.958   1.547   7.418 -1.9708  1.8803 -1.3501
   61MOL   C54243862   3.263   1.835   0.850  0.1218 -0.4069  0.1550
   61MOL   C54343863   3.126   1.803   0.775  0.0478  0.4087  0.4014
   61MOL   C54443864   3.145   1.814   0.625  0.5055  0.2203 -0.3229
   61MOL   C54543865   3.009   1.812   0.540 -0.8148  0.3367 -0.3888
   61MOL   C54643866   3.050   1.787   0.393 -0.3732 -0.6462  0.4952
   61MOL   C54743867   2.943   1.829   0.292 -0.2569 -0.2594  0.1025
   61MOL   C54843868   2.955   1.759   0.160  0.7795 -0.5260 -0.0893
   61MOL   C54943869   2.834   1.808   0.080 -0.0552  0.3211 -0.0833
   61MOL   O55043870   2.859   1.761   7.731 -0.3929 -0.0014 -0.2557
   61MOL   C55143871   2.763   1.719   7.657  1.1250  0.1779  0.6157
   61MOL   O55243872   2.645   1.706   7.695  0.2539  0.5557  0.3988
   61MOL   C55343873   2.811   1.671   7.515  0.1036  0.2715  0.4444
   61MOL   C55443874   2.688   1.634   7.422 -0.2410  0.7835  0.3135
   61MOL   C55543875   2.884   1.784   7.445 -0.6258  0.0152  0.5526
   61MOL   H55643876   3.310   1.931   0.827  3.7268 -1.3039  3.1990
   61MOL   H55743877   3.333   1.769   0.800  0.4836 -0.9591  1.3769
   61MOL   H55843878   3.269   1.824   0.958 -0.1697 -0.1360  0.2002
   61MOL   H55943879   3.110   1.695   0.781 -0.4391  0.5729  2.7697
   61MOL   H56043880   3.042   1.859   0.818 -0.2599  1.0278 -0.9809
   61MOL   H56143881   3.221   1.740   0.600  1.2902  1.8216 -2.8089
   61MOL   H56243882   3.188   1.912   0.607  0.2513  0.4889  0.5294
   61MOL   H56343883   2.941   1.732   0.570 -0.8602  1.1375  1.7551
   61MOL   H56443884   2.941   1.890   0.573 -2.0219 -0.3994 -1.0938
   61MOL   H56543885   3.052   1.678   0.386 -0.8812 -0.5803 -0.8608
   61MOL   H56643886   3.144   1.828   0.357 -1.8100  2.1340 -0.2580
   61MOL   H56743887   2.846   1.793   0.328 -1.5939  2.0860 -0.9942
   61MOL   H56843888   2.957   1.937   0.282 -1.1715 -0.1299  0.1451
   61MOL   H56943889   3.045   1.787   0.104 -0.9010 -0.8265 -3.0516
   61MOL   H57043890   2.948   1.651   0.175  0.6162 -0.6126 -0.7495
   61MOL   H57143891   2.819   1.916   0.074  2.4435  0.8575  2.4166
   61MOL   H57243892   2.748   1.757   0.124 -0.1959  2.2391  2.0141
   61MOL   H57343893   2.650   1.538   7.458  0.0588  0.4313 -0.3074
   61MOL   H57443894   2.715   1.601   7.322 -1.3563  0.7735  0.0038
   61MOL   H57543895   2.607   1.707   7.412 -2.1662 -1.0925  1.7318
   61MOL   H57643896   2.916   1.747   7.348 -3.5467  0.4270 -0.6086
   61MOL   H57743897   2.977   1.790   7.502 -0.6437  0.1840  0.5656
   61MOL   C57843898   1.952   2.726   7.449 -0.9616 -0.7196 -0.3939
   61MOL   C57943899   2.005   2.617   7.544 -0.2171  0.4539  0.6716
   61MOL   C58043900   2.116   2.549   7.483  0.3374 -0.2305  0.0092
   61MOL   C58143901   2.169   2.425   7.569  0.0616 -0.1465 -0.1030
   61MOL   C58243902   2.272   2.342   7.490  0.1303 -0.0139 -0.0975
   61MOL   C58343903   2.345   2.250   7.586 -0.4486  1.0059  0.3300
   61MOL   C58443904   2.459   2.172   7.519 -0.1290  0.4184 -0.8953
   61MOL   C58543905   2.542   2.071   7.605  0.2730  0.3950  0.3214
   61MOL   O58643906   2.633   2.003   7.514 -0.4096  0.5983 -0.4990
   61MOL   C58743907   2.770   2.005   7.526  0.6107 -1.1770 -0.0663
   61MOL   O58843908   2.829   2.057   7.618 -0.6330 -0.4503 -0.0689
   61MOL   C58943909   2.847   1.934   7.413  0.0577 -0.1905  0.7664
   61MOL   C59043910   2.756   1.934   7.290  0.0136 -0.7710  0.3881
   61MOL   C59143911   2.985   2.003   7.393  0.5295  0.0585 -0.3974
   61MOL   H59243912   1.873   2.775   7.507 -0.8631  0.0830 -0.9257
   61MOL   H59343913   1.906   2.681   7.361 -0.0691 -2.5078  0.0372
   61MOL   H59443914   2.026   2.804   7.430  0.2285 -0.6845  3.7940
   61MOL   H59543915   1.923   2.553   7.577  2.1245 -1.7593  2.4387
   61MOL   H59643916   2.052   2.676   7.623  0.8858 -2.1580  2.0333
   61MOL   H59743917   2.195   2.624   7.481 -0.4937  0.6232 -1.4485
   61MOL   H59843918   2.090   2.510   7.385  1.2744  1.3933 -0.9018
   61MOL   H59943919   2.078   2.367   7.590 -1.3075  2.2512  0.7967
   61MOL   H60043920   2.209   2.468   7.661  1.7071 -3.4396  0.8214
   61MOL   H60143921   2.344   2.410   7.444  0.2251 -0.2350 -0.2738
   61MOL   H60243922   2.203   2.293   7.423 -0.2406 -1.8740  1.6017
   61MOL   H60343923   2.276   2.182   7.636 -1.9793 -0.1107 -3.1678
   61MOL   H60443924   2.385   2.318   7.661  0.7583 -0.6413  1.2190
   61MOL   H60543925   2.524   2.252   7.483 -0.7012  1.0962 -0.4324
   61MOL   H60643926   2.428   2.110   7.435 -1.3170 -2.5003  1.5629
   61MOL   H60743927   2.589   2.131   7.683  0.5064  2.2616 -1.2315
   61MOL   H60843928   2.488   1.990   7.654  1.8608  0.1871  1.7847
   61MOL   H60943929   2.735   2.037   7.262 -1.9544 -1.1365  0.4886
   61MOL   H61043930   2.795   1.882   7.202  3.6911  2.0137  0.2399
   61MOL   H61143931   2.656   1.900   7.313 -1.3737  1.3370 -2.2603
   61MOL   H61243932   3.058   1.943   7.340  1.7506  0.0463  1.2584
   61MOL   H61343933   3.025   2.010   7.494 -1.6101  0.6511  0.4334
   61MOL   C61443934   3.058   2.316   6.220  0.2967 -0.4761 -0.1955
   61MOL   C61543935   3.096   2.183   6.300  0.1111  0.0963 -1.0014
   61MOL   C61643936   3.151   2.202   6.440  0.2105  0.5584 -0.5489
   61MOL   C61743937   3.143   2.066   6.513 -0.3797  0.0056 -0.1796
   61MOL   C61843938   3.172   2.093   6.666  1.2486 -0.7284  0.1689
   61MOL   C61943939   3.146   1.965   6.745  0.3468 -0.4026 -0.3032
   61MOL   C62043940   3.139   1.994   6.905 -0.7786 -0.2204  0.0788
   61MOL   C62143941   3.032   2.082   6.963  0.7956  0.3374 -0.4258
   61MOL   O62243942   3.046   2.083   7.102  0.0400 -0.0488 -0.3896
   61MOL   C62343943   2.957   2.145   7.174 -0.0362  0.3217  0.2264
   61MOL   O62443944   2.857   2.199   7.125 -0.3663  0.1521  0.4054
   61MOL   C62543945   3.003   2.146   7.321  0.0772  0.1396  0.1999
   61MOL   C62643946   2.922   2.255   7.392  0.1238 -0.1136 -0.2469
   61MOL   C62743947   3.164   2.182   7.325 -0.0624 -0.1625 -0.1653
   61MOL   H62843948   3.031   2.293   6.117  1.6918  2.3393 -1.2493
   61MOL   H62943949   3.146   2.380   6.217 -1.6538  2.2439 -1.6368
   61MOL   H63043950   2.977   2.379   6.258 -0.7940 -1.4291 -0.8925
   61MOL   H63143951   3.008   2.120   6.309 -1.3372  2.3506  1.2959
   61MOL   H63243952   3.168   2.132   6.236  1.1254 -0.4922  0.5730
   61MOL   H63343953   3.070   2.256   6.490  0.2973  0.0157  0.1768
   61MOL   H63443954   3.252   2.243   6.450  0.0233  0.7028  0.9305
   61MOL   H63543955   3.205   1.992   6.461 -0.6291 -0.3445  0.0188
   61MOL   H63643956   3.042   2.025   6.509 -0.0481 -0.8131 -0.3038
   61MOL   H63743957   3.272   2.135   6.678  0.7086  0.0648  2.0891
   61MOL   H63843958   3.105   2.171   6.702 -0.7131 -2.6041  0.6461
   61MOL   H63943959   3.050   1.923   6.716  0.2908  0.0358 -0.7672
   61MOL   H64043960   3.224   1.890   6.733  0.6551 -0.4060  1.6819
   61MOL   H64143961   3.235   2.026   6.945  0.2573 -2.2008 -0.7321
   61MOL   H64243962   3.111   1.900   6.953 -1.6111 -0.1793 -0.3127
   61MOL   H64343963   3.043   2.185   6.932  2.2300  0.3778  0.1744
   61MOL   H64443964   2.936   2.046   6.928  0.8488  1.4846 -1.7965
   61MOL   H64543965   2.946   2.246   7.498  0.7364 -2.5667 -0.5749
   61MOL   H64643966   2.816   2.232   7.397 -0.6528  2.3298 -3.3980
   61MOL   H64743967   2.944   2.352   7.346  0.4780  0.2508  0.6844
   61MOL   H64843968   3.189   2.240   7.236 -0.1362  0.2146  0.0563
   61MOL   H64943969   3.219   2.089   7.312  2.1495  0.8011  1.9805
   61MOL   C65043970   3.258   1.576   7.039 -0.4229  0.0343  0.4685
   61MOL   C65143971   3.223   1.548   7.186  0.2960  0.3048 -0.6618
   61MOL   C65243972   3.264   1.668   7.278 -0.2420 -0.0744 -0.1378
   61MOL   C65343973   3.261   1.636   7.430  0.2275  0.2521 -0.0788
   61MOL   C65443974   3.274   1.769   7.503 -0.7365  0.3845 -0.1705
   61MOL   C65543975   3.264   1.758   7.655  0.2124  0.2658  0.8299
   61MOL   C65643976   3.320   1.883   7.727  0.2653 -0.2763 -0.3266
   61MOL   C65743977   3.238   2.008   7.735 -0.1250 -0.4751  0.0179
   61MOL   O65843978   3.230   2.075   7.607  0.2453 -0.6377  0.1824
   61MOL   C65943979   3.198   2.203   7.598  0.2537  0.0658 -0.0657
   61MOL   O66043980   3.156   2.276   7.690 -0.1744  0.8227  0.2367
   61MOL   C66143981   3.234   2.258   7.450  0.7314  0.3338  0.0456
   61MOL   C66243982   3.206   2.407   7.450  0.0883  0.2663  0.0858
   61MOL   C66343983   3.387   2.244   7.414  0.5471 -0.3026 -0.2209
   61MOL   H66443984   3.224   1.500   6.968  1.2890 -2.0154  1.7937
   61MOL   H66543985   3.363   1.599   7.024 -0.0644 -0.6226  1.9045
   61MOL   H66643986   3.213   1.670   7.006  0.0097  0.3436  0.7539
   61MOL   H66743987   3.268   1.453   7.215  0.3401  0.9020  1.3445
   61MOL   H66843988   3.116   1.527   7.197  0.4227  0.7001  1.6002
   61MOL   H66943989   3.199   1.753   7.257  1.7620  1.4161 -0.4227
   61MOL   H67043990   3.368   1.684   7.251 -0.6020  1.4432 -0.6241
   61MOL   H67143991   3.346   1.568   7.440  1.5832  1.9818  0.5046
   61MOL   H67243992   3.171   1.577   7.444  0.0383 -0.0861 -2.5201
   61MOL   H67343993   3.204   1.843   7.463 -3.3655 -1.7828  0.2603
   61MOL   H67443994   3.371   1.808   7.473 -0.3911 -1.7980 -2.0060
   61MOL   H67543995   3.161   1.761   7.692 -0.1460 -1.1296  0.0077
   61MOL   H67643996   3.305   1.671   7.705 -2.1993 -2.4219 -1.6881
   61MOL   H67743997   3.416   1.904   7.681  0.3122 -2.3419 -1.2439
   61MOL   H67843998   3.352   1.853   0.047  1.5459 -0.8343 -0.8964
   61MOL   H67943999   3.309   2.066   0.014 -1.0187  0.1557  0.4916
   61MOL   H68044000   3.142   1.988   0.004  1.3618  1.9040  4.2107
   61MOL   H68144001   3.246   2.458   7.362  1.5563  0.2628  0.7279
   61MOL   H68244002   3.266   2.448   7.532 -1.4560  2.9010 -0.0396
   61MOL   H68344003   3.102   2.432   7.472  0.0141  0.6191 -0.6657
   61MOL   H68444004   3.400   2.137   7.429  0.0118 -0.1938  1.0947
   61MOL   H68544005   3.409   2.262   7.309  0.6755 -0.7356 -0.2658
   61MOL   C68644006   3.125   2.596   6.493 -0.5319  0.3776  0.1548
   61MOL   C68744007   3.137   2.555   6.639  0.1934 -0.2505 -0.4952
   61MOL   C68844008   3.273   2.584   6.699  0.0939 -1.1916 -0.2225
   61MOL   C68944009   3.268   2.566   6.853 -0.2332 -0.4366 -0.2033
   61MOL   C69044010   3.387   2.627   6.915 -0.4953 -0.2695 -0.4220
   61MOL   C69144011   3.374   2.614   7.071  0.2995  0.1228  0.0496
   61MOL   C69244012   3.507   2.643   7.138  0.0098  0.2371 -0.3026
   61MOL   C69344013   3.523   2.642   7.295  0.0264  0.0906  0.5152
   61MOL   O69444014   3.514   2.504   7.333 -0.1656 -0.2373 -0.2518
   61MOL   C69544015   3.515   2.467   7.466 -0.2507 -0.1089  0.0459
   61MOL   O69644016   3.515   2.549   7.558 -0.1875 -0.1608 -0.0638
   61MOL   C69744017   3.506   2.318   7.486 -0.6957  0.1944  0.2727
   61MOL   C69844018   3.638   2.266   7.430  0.6313  0.2519  0.2611
   61MOL   C69944019   3.520   2.289   7.634  0.3432  0.1616  0.0571
   61MOL   H70044020   3.194   2.534   6.437  0.9239 -0.5020  2.8732
   61MOL   H70144021   3.156   2.700   6.479 -1.3499  0.8010  1.3698
   61MOL   H70244022   3.026   2.572   6.453  0.0364  1.5424 -2.0336
   61MOL   H70344023   3.108   2.451   6.656  2.1373 -0.6791  0.4097
   61MOL   H70444024   3.065   2.623   6.684  0.2168 -0.6948  0.2326
   61MOL   H70544025   3.311   2.679   6.660  1.0935 -0.6398  2.0346
   61MOL   H70644026   3.337   2.512   6.647 -0.2281 -1.8710  0.3163
   61MOL   H70744027   3.251   2.463   6.884 -0.1175 -0.8311 -1.4220
   61MOL   H70844028   3.193   2.631   6.898  0.7132  0.4581  0.0950
   61MOL   H70944029   3.393   2.730   6.881  1.0248 -0.3647 -0.4722
   61MOL   H71044030   3.470   2.570   6.872  0.0842  0.1584  0.1207
   61MOL   H71144031   3.292   2.677   7.109 -0.1935 -0.3797 -0.1852
   61MOL   H71244032   3.335   2.518   7.105 -1.8248  1.5780  1.9560
   61MOL   H71344033   3.590   2.589   7.094  0.9975  2.2704 -1.0194
   61MOL   H71444034   3.521   2.745   7.102 -3.4189  1.2428  0.9337
   61MOL   H71544035   3.455   2.704   7.354 -0.1047 -1.6462  2.2144
   61MOL   H71644036   3.621   2.681   7.320 -0.1728  0.9820 -0.0869
   61MOL   H71744037   3.630   2.243   7.323 -1.0499 -1.0750  0.6497
   61MOL   H71844038   3.727   2.326   7.449  0.5902  0.0799  1.0095
   61MOL   H71944039   3.667   2.167   7.466 -0.2081  0.1933  0.8058
   61MOL   H72044040   3.534   2.182   7.649  2.9608  0.4599 -0.0396
   61MOL   H72144041   3.438   2.335   7.689 -0.7144  1.3053 -2.4015
   61MOL   H72244042   3.613   2.329   7.674 -0.1430  1.2127  0.1512
   62MOL     C144043   2.647   6.005   4.293 -0.3894  0.1496  0.4438
   62MOL     C244044   2.692   5.857   4.280  0.7328  0.2137  0.5194
   62MOL     C344045   2.832   5.841   4.331 -0.2876  0.0788  0.0797
   62MOL     C444046   2.885   5.700   4.312 -0.0817  0.4306  0.1628
   62MOL     C544047   3.034   5.708   4.339 -0.1534 -0.2408  0.3537
   62MOL     C644048   3.082   5.564   4.324  0.9915 -0.3389  0.3402
   62MOL     C744049   3.237   5.548   4.348 -0.2601 -0.6419 -0.1613
   62MOL     C844050   3.286   5.413   4.293 -0.5799  0.3539 -0.5247
   62MOL     O944051   3.258   5.312   4.384  0.0935 -0.5256  0.2006
   62MOL    C1044052   3.152   5.229   4.379 -0.1336 -0.4424 -0.1150
   62MOL    O1144053   3.069   5.236   4.295 -0.7846  0.0353 -0.4689
   62MOL    C1244054   3.151   5.120   4.490 -0.7581  1.3579 -0.2051
   62MOL    C1344055   3.244   5.015   4.425  0.4241  0.6450 -0.1464
   62MOL    C1444056   3.201   5.161   4.628  0.6634  0.2084  0.2507
   62MOL    H1544057   2.553   6.027   4.242  0.5776  2.1149 -0.5628
   62MOL    H1644058   2.727   6.070   4.257  0.0286  0.6855  2.2878
   62MOL    H1744059   2.640   6.030   4.398  0.0598  0.2821  0.4449
   62MOL    H1844060   2.686   5.831   4.174  0.5840 -0.3740  0.6717
   62MOL    H1944061   2.627   5.790   4.335  1.4173  0.9113  2.2096
   62MOL    H2044062   2.896   5.912   4.279 -2.6169  0.8093 -1.8853
   62MOL    H2144063   2.842   5.856   4.438  1.3236 -1.3113  0.1552
   62MOL    H2244064   2.820   5.634   4.370  0.8396 -0.7939 -0.1842
   62MOL    H2344065   2.876   5.669   4.208 -0.3521  2.1430 -0.3421
   62MOL    H2444066   3.061   5.751   4.435  0.6869  1.1789 -0.4985
   62MOL    H2544067   3.085   5.776   4.270 -1.3300 -1.4467 -1.7714
   62MOL    H2644068   3.063   5.544   4.219  2.3927 -2.2937  0.4293
   62MOL    H2744069   3.026   5.487   4.376  1.9658 -1.9142 -0.9007
   62MOL    H2844070   3.255   5.562   4.455 -1.6558 -2.6887  0.3573
   62MOL    H2944071   3.300   5.625   4.302  0.6309 -0.5155  1.2134
   62MOL    H3044072   3.392   5.419   4.270 -0.2384 -0.5021  0.7515
   62MOL    H3144073   3.249   5.385   4.195  2.5329  0.1875 -1.7184
   62MOL    H3244074   3.342   5.057   4.403  1.6297 -2.4056 -0.8673
   62MOL    H3344075   3.262   4.939   4.501  1.3615  0.8277 -0.1792
   62MOL    H3444076   3.209   4.970   4.332 -1.4525 -0.4908  1.0825
   62MOL    H3544077   3.284   5.230   4.615  1.1386 -0.6032 -1.2196
   62MOL    H3644078   3.254   5.088   4.689 -0.8959  0.4622  1.9530
   62MOL    H3744079   3.051   5.080   4.506 -1.1648  2.3716 -0.1568
   62MOL    C3844080   4.196   5.585   4.917 -0.6560 -0.2213  0.1239
   62MOL    C3944081   4.055   5.563   4.947 -0.3659 -0.2629  0.3510
   62MOL    C4044082   4.004   5.425   4.902 -0.2733 -0.1049  0.1310
   62MOL    C4144083   3.873   5.380   4.960  0.1752  0.6735  0.2391
   62MOL    C4244084   3.746   5.454   4.900  0.0586  0.4515  0.2051
   62MOL    C4344085   3.621   5.386   4.955  0.1282  0.1449  0.3797
   62MOL    C4444086   3.488   5.453   4.924  0.4058  0.1016  0.2191
   62MOL    C4544087   3.373   5.364   4.971 -0.3382 -0.3073  0.0447
   62MOL    O4644088   3.286   5.347   4.854  0.8157 -0.2935  0.5662
   62MOL    C4744089   3.192   5.245   4.865  0.2815 -0.6312 -0.5683
   62MOL    O4844090   3.191   5.162   4.955 -0.1324  0.3144  0.3367
   62MOL    C4944091   3.104   5.235   4.738  0.0599 -0.3748  0.3847
   62MOL    C5044092   3.000   5.124   4.757 -0.7459 -0.0414 -0.2292
   62MOL    C5144093   3.045   5.380   4.688 -0.3622 -0.2709  0.2911
   62MOL    H5244094   4.224   5.625   4.819  0.1730  0.8135  0.7666
   62MOL    H5344095   4.252   5.493   4.933  0.2503  0.1120 -1.0229
   62MOL    H5444096   4.232   5.656   4.992 -2.4481 -0.0055  0.7932
   62MOL    H5544097   3.991   5.639   4.900 -0.3360  0.0346  0.7915
   62MOL    H5644098   4.045   5.586   5.053  0.8948  0.6005  0.2989
   62MOL    H5744099   3.982   5.413   4.796 -0.9941  1.7316  0.0605
   62MOL    H5844100   4.074   5.348   4.934  0.4292  0.6140  0.3217
   62MOL    H5944101   3.879   5.391   5.068 -1.6491  2.5827  0.1890
   62MOL    H6044102   3.882   5.275   4.934  2.3266  0.9974 -0.3892
   62MOL    H6144103   3.736   5.558   4.933 -1.0908  0.4582 -0.1620
   62MOL    H6244104   3.761   5.442   4.793 -1.0514  1.0931 -0.0308
   62MOL    H6344105   3.622   5.283   4.920  0.8124 -0.4755  2.1505
   62MOL    H6444106   3.623   5.369   5.063  1.6923  2.0079  0.6751
   62MOL    H6544107   3.482   5.474   4.818  1.8297  2.6275  0.5874
   62MOL    H6644108   3.488   5.545   4.983  0.1319  0.0993  0.2228
   62MOL    H6744109   3.309   5.410   5.046  0.3159 -1.0035  1.0495
   62MOL    H6844110   3.403   5.265   5.006 -1.4697 -0.3793  0.8507
   62MOL    H6944111   3.032   5.021   4.744 -0.0100 -0.4303  3.9271
   62MOL    H7044112   2.956   5.127   4.857  0.6246  0.0622  0.3922
   62MOL    H7144113   2.925   5.138   4.680 -1.9353 -0.8209  0.7674
   62MOL    H7244114   2.997   5.357   4.593 -0.1840  0.6380 -0.0233
   62MOL    H7344115   3.133   5.438   4.660  0.1570 -1.9072 -1.6230
   62MOL    C7444116   2.901   6.440   5.112  0.2935  0.2710 -0.3486
   62MOL    C7544117   2.990   6.319   5.109  0.4755  0.0766  0.0002
   62MOL    C7644118   3.110   6.333   5.015 -0.1220  0.4999  0.0076
   62MOL    C7744119   3.208   6.219   5.001 -0.2219  0.2579 -0.5331
   62MOL    C7844120   3.141   6.083   4.971 -0.4990 -0.1187  0.1280
   62MOL    C7944121   3.231   5.960   4.947 -0.0560 -0.1720  0.2234
   62MOL    C8044122   3.143   5.843   4.899  0.4420  0.1399  0.0719
   62MOL    C8144123   3.214   5.702   4.913  0.5850 -0.4655  0.4850
   62MOL    O8244124   3.140   5.605   4.836  0.0832 -0.2197  0.3907
   62MOL    C8344125   3.039   5.538   4.879  0.0419 -0.3584 -1.2695
   62MOL    O8444126   3.019   5.520   5.003 -0.6232 -0.1023  0.2529
   62MOL    C8544127   2.956   5.472   4.770 -0.8092  0.1896 -0.8179
   62MOL    C8644128   2.916   5.586   4.666  0.2906  0.2726 -0.2663
   62MOL    C8744129   2.832   5.390   4.821  0.8912 -0.0277  0.1336
   62MOL    H8844130   2.824   6.422   5.037 -0.9143 -0.0130  0.9288
   62MOL    H8944131   2.956   6.529   5.080  0.9106 -0.8832 -2.5725
   62MOL    H9044132   2.847   6.451   5.206  1.0532  0.9741  0.0084
   62MOL    H9144133   2.921   6.236   5.095  1.6720 -0.8095 -0.7378
   62MOL    H9244134   3.042   6.313   5.205  0.5096 -0.5632 -0.0542
   62MOL    H9344135   3.067   6.356   4.918 -0.8572 -1.9171 -0.2781
   62MOL    H9444136   3.157   6.427   5.044  1.2270 -0.3668  0.6868
   62MOL    H9544137   3.268   6.201   5.090 -0.3189  0.0392 -0.5120
   62MOL    H9644138   3.269   6.245   4.914  1.0656  1.7176  0.7720
   62MOL    H9744139   3.063   6.065   5.045  0.3500 -3.8891  0.2215
   62MOL    H9844140   3.072   6.095   4.888 -1.3925 -0.5207  0.7996
   62MOL    H9944141   3.299   5.983   4.864  0.1332 -1.1243  0.0989
   62MOL   H10044142   3.285   5.944   5.040  1.8381  1.6693 -0.5185
   62MOL   H10144143   3.046   5.837   4.949  0.9402 -1.6088  0.8808
   62MOL   H10244144   3.104   5.861   4.799  0.2060  2.2415  0.5193
   62MOL   H10344145   3.230   5.667   5.015  2.3491  1.1148  0.7788
   62MOL   H10444146   3.305   5.712   4.854 -0.1697 -0.8573 -0.7803
   62MOL   H10544147   3.003   5.639   4.629 -0.2396  2.1006  1.0289
   62MOL   H10644148   2.857   5.666   4.711 -0.0132  1.6732 -3.0298
   62MOL   H10744149   2.854   5.549   4.584  0.9461 -0.2262 -0.5388
   62MOL   H10844150   2.809   5.312   4.748 -1.3296  1.7301 -1.1362
   62MOL   H10944151   2.867   5.324   4.901  1.1213 -0.4347 -0.2941
   62MOL   C11044152   2.506   5.360   3.708  0.2780  0.0896 -0.3983
   62MOL   C11144153   2.609   5.271   3.761 -0.6110  0.3621 -0.4572
   62MOL   C11244154   2.580   5.228   3.912 -0.2881 -0.7796  1.1001
   62MOL   C11344155   2.581   5.355   4.008  1.0452  0.2315  0.6801
   62MOL   C11444156   2.604   5.314   4.156  0.4035  0.8791  0.1822
   62MOL   C11544157   2.570   5.422   4.264  0.3771  0.5095 -0.4477
   62MOL   C11644158   2.632   5.391   4.397 -0.3917  0.3774 -0.4235
   62MOL   C11744159   2.583   5.493   4.506  0.0751  0.8683 -0.0394
   62MOL   O11844160   2.617   5.437   4.636 -0.7944 -0.4312  0.5647
   62MOL   C11944161   2.627   5.512   4.742 -0.4143 -0.3136 -0.0059
   62MOL   O12044162   2.574   5.619   4.750 -0.3617 -0.8382  0.1383
   62MOL   C12144163   2.690   5.448   4.864 -0.6651 -0.1053 -0.1489
   62MOL   C12244164   2.709   5.552   4.971 -0.1458 -0.1752  0.7462
   62MOL   C12344165   2.591   5.330   4.905  0.0119  0.1822 -0.6235
   62MOL   H12444166   2.403   5.327   3.723  0.7944 -0.3345  2.5010
   62MOL   H12544167   2.509   5.459   3.755  0.5287  0.1526 -0.5421
   62MOL   H12644168   2.518   5.366   3.599  3.1458  0.9239 -0.0810
   62MOL   H12744169   2.709   5.313   3.751  0.1662 -0.9139  1.6329
   62MOL   H12844170   2.589   5.178   3.708 -0.4740 -1.0355  1.8574
   62MOL   H12944171   2.649   5.150   3.946 -1.3989 -1.7865  1.0884
   62MOL   H13044172   2.477   5.192   3.912 -1.2712  1.8987  1.0961
   62MOL   H13144173   2.636   5.440   3.967  2.2707 -1.2452 -0.8247
   62MOL   H13244174   2.482   5.402   4.006  0.2487 -1.3193  2.5931
   62MOL   H13344175   2.711   5.296   4.171  0.8412  1.0163 -2.5872
   62MOL   H13444176   2.558   5.216   4.170  2.1924 -0.0290 -0.0666
   62MOL   H13544177   2.603   5.522   4.235  0.0275  0.4916 -0.9202
   62MOL   H13644178   2.461   5.423   4.269  0.4106  0.2801  0.3324
   62MOL   H13744179   2.741   5.393   4.392 -0.3834  3.5746  0.4759
   62MOL   H13844180   2.596   5.290   4.418 -1.5482  0.7487 -0.5697
   62MOL   H13944181   2.634   5.589   4.495 -1.3754  1.7383  0.6462
   62MOL   H14044182   2.475   5.496   4.498  0.2854  0.1306 -4.5748
   62MOL   H14144183   2.773   5.631   4.931  0.7649 -2.4645 -2.4392
   62MOL   H14244184   2.623   5.611   5.004  1.3127  0.9502  2.6041
   62MOL   H14344185   2.763   5.509   5.055  0.1029 -0.3209  0.5128
   62MOL   H14444186   2.593   5.250   4.830 -3.2298 -0.0687 -0.5093
   62MOL   H14544187   2.488   5.362   4.896  0.0095  0.3728  0.0665
   62MOL   C14644188   2.697   5.229   6.048  0.7826 -0.1748  0.0792
   62MOL   C14744189   2.655   5.187   5.912 -0.4902 -0.1958  0.0398
   62MOL   C14844190   2.779   5.162   5.823  0.3684  0.1294 -0.5194
   62MOL   C14944191   2.751   5.203   5.677 -0.7065  0.8110  0.2255
   62MOL   C15044192   2.863   5.163   5.584  0.3974  0.2181  0.6712
   62MOL   C15144193   2.846   5.233   5.456  0.8978 -1.0109  0.5267
   62MOL   C15244194   2.928   5.180   5.343 -0.5674  0.5494  0.5072
   62MOL   C15344195   2.919   5.257   5.210  1.0105 -0.8084 -0.8714
   62MOL   O15444196   2.777   5.273   5.183 -0.4195  0.3673  0.3755
   62MOL   C15544197   2.718   5.202   5.091 -0.6013 -0.1247  0.0543
   62MOL   O15644198   2.763   5.097   5.039  0.0992  0.5675 -0.2486
   62MOL   C15744199   2.584   5.256   5.043  1.4353  0.6502  0.2571
   62MOL   C15844200   2.520   5.359   5.146 -0.2389 -0.3700  0.2388
   62MOL   C15944201   2.474   5.135   5.021 -0.0440 -0.4114 -0.1278
   62MOL   H16044202   2.761   5.155   6.096 -0.9172  0.3826  3.3448
   62MOL   H16144203   2.618   5.228   6.123  1.7454 -0.1940  1.1079
   62MOL   H16244204   2.746   5.326   6.040 -2.4996  1.2741 -4.0336
   62MOL   H16344205   2.593   5.098   5.915  1.8566 -1.8828  0.2128
   62MOL   H16444206   2.588   5.258   5.864  1.7423  1.5107 -0.6491
   62MOL   H16544207   2.821   5.061   5.821  0.7144  0.1771  2.3843
   62MOL   H16644208   2.867   5.214   5.861 -0.0938  0.7187 -0.2512
   62MOL   H16744209   2.663   5.156   5.632  0.8342  0.4348 -2.4872
   62MOL   H16844210   2.741   5.311   5.666  4.1813  1.0371 -3.7079
   62MOL   H16944211   2.848   5.059   5.556 -3.1121  0.7513  0.2650
   62MOL   H17044212   2.961   5.184   5.628  0.8888 -1.5380  0.4260
   62MOL   H17144213   2.878   5.337   5.465 -2.1339 -0.1071  1.2787
   62MOL   H17244214   2.742   5.236   5.422  1.2322  0.6226 -0.4151
   62MOL   H17344215   3.034   5.166   5.363 -0.5307  3.2743  2.4856
   62MOL   H17444216   2.895   5.079   5.318 -0.4272  0.5453  0.3412
   62MOL   H17544217   2.961   5.358   5.212  0.8905 -0.6382 -4.2097
   62MOL   H17644218   2.968   5.207   5.127  0.1704 -1.4583 -0.9840
   62MOL   H17744219   2.425   5.397   5.110 -0.2142 -0.0764  0.4832
   62MOL   H17844220   2.590   5.439   5.172 -0.6381 -0.0289  0.2655
   62MOL   H17944221   2.491   5.314   5.241 -0.5454 -1.6329 -0.4424
   62MOL   H18044222   2.512   5.060   4.952  0.1574 -1.1127  0.7255
   62MOL   H18144223   2.386   5.182   4.976 -0.5160  0.4188  1.6258
   62MOL   C18244224   2.244   5.892   4.712  0.0555  0.0325  0.3301
   62MOL   C18344225   2.229   5.744   4.698  0.1884 -0.0220  0.3405
   62MOL   C18444226   2.159   5.701   4.827  0.4756 -0.0428 -0.4191
   62MOL   C18544227   2.256   5.672   4.938 -1.0034  0.1499  0.6333
   62MOL   C18644228   2.189   5.604   5.065 -0.1351 -0.5703  0.1611
   62MOL   C18744229   2.144   5.460   5.048  0.4438 -1.0375 -0.8905
   62MOL   C18844230   2.119   5.392   5.187  0.5575  0.0033  0.5717
   62MOL   C18944231   2.104   5.237   5.197 -0.1080 -0.2959  0.2213
   62MOL   O19044232   2.215   5.168   5.149 -0.1201 -0.2419 -0.0289
   62MOL   C19144233   2.314   5.113   5.222 -0.9497 -0.1736  0.4439
   62MOL   O19244234   2.323   5.125   5.342 -0.8046 -0.5276  0.3946
   62MOL   C19344235   2.420   5.042   5.142  0.9785  0.0417  0.0077
   62MOL   C19444236   2.529   5.004   5.239  0.5436  0.5110  0.3846
   62MOL   C19544237   2.347   4.914   5.074  0.7268 -0.0963 -0.0164
   62MOL   H19644238   2.301   5.934   4.629  2.0565 -2.2772  0.4934
   62MOL   H19744239   2.147   5.941   4.717 -0.7519 -1.6696  1.6542
   62MOL   H19844240   2.295   5.928   4.801 -0.7446  1.6902  0.1378
   62MOL   H19944241   2.325   5.696   4.677  0.7267  0.9007  0.6723
   62MOL   H20044242   2.178   5.724   4.604  1.9149  2.9211 -1.3027
   62MOL   H20144243   2.084   5.767   4.872  1.3477 -0.0637  1.0879
   62MOL   H20244244   2.101   5.610   4.810  2.0621 -1.1889  0.2313
   62MOL   H20344245   2.342   5.608   4.916  0.7961  1.4045  3.7706
   62MOL   H20444246   2.310   5.763   4.962  0.4250 -1.0123  1.8798
   62MOL   H20544247   2.099   5.660   5.090  0.2482  1.0590 -1.8879
   62MOL   H20644248   2.258   5.613   5.148 -0.1393 -2.8307  0.4296
   62MOL   H20744249   2.227   5.402   5.008  0.6952 -1.0298 -0.3905
   62MOL   H20844250   2.062   5.439   4.979 -0.0467 -0.8398 -0.3733
   62MOL   H20944251   2.208   5.403   5.250  0.7176 -3.2084  0.9782
   62MOL   H21044252   2.040   5.447   5.238  1.4601  0.3679  1.6065
   62MOL   H21144253   2.012   5.205   5.148  0.3278  2.1120 -2.3553
   62MOL   H21244254   2.095   5.231   5.305 -0.8948  0.0683  0.1779
   62MOL   H21344255   2.601   4.940   5.187 -0.9120 -1.3766  0.6216
   62MOL   H21444256   2.572   5.091   5.288  0.0185  0.8700  0.2041
   62MOL   H21544257   2.499   4.935   5.317 -0.9487 -0.6044 -1.1378
   62MOL   H21644258   2.264   4.948   5.012 -0.1091 -1.2158  0.4743
   62MOL   H21744259   2.430   4.881   5.011  0.1048 -1.4287 -0.1484
   62MOL   C21844260   1.144   5.037   4.999  0.0691 -0.5192  0.2734
   62MOL   C21944261   1.248   5.004   5.106  0.6839 -0.5270  0.2367
   62MOL   C22044262   1.390   5.032   5.062  0.8796 -0.5067 -0.2208
   62MOL   C22144263   1.478   4.972   5.173  0.1109  0.1192 -0.0329
   62MOL   C22244264   1.618   4.970   5.132 -0.3892  0.0336 -0.3761
   62MOL   C22344265   1.719   4.895   5.224  0.0663  0.5140  0.4923
   62MOL   C22444266   1.865   4.923   5.180 -0.5494 -0.0444 -0.1271
   62MOL   C22544267   1.966   4.877   5.284  0.4915 -0.3871  0.4497
   62MOL   O22644268   2.099   4.902   5.231  0.4922 -0.1164 -0.2316
   62MOL   C22744269   2.190   4.821   5.265 -0.4477  0.6707 -0.6055
   62MOL   O22844270   2.206   4.773   5.377  0.4816  0.0618  0.3509
   62MOL   C22944271   2.292   4.789   5.153  0.3293 -0.3858 -0.0792
   62MOL   C23044272   2.403   4.694   5.215 -0.2400  0.5656 -0.6247
   62MOL   C23144273   2.203   4.704   5.054  0.3135 -0.2904 -0.4602
   62MOL   H23244274   1.163   4.980   4.908 -1.1684 -2.9812  1.5190
   62MOL   H23344275   1.155   5.140   4.965  0.5448 -0.2584  1.1978
   62MOL   H23444276   1.044   5.004   5.025 -0.4283  0.3141 -0.5234
   62MOL   H23544277   1.220   4.902   5.130  0.5996  0.3121  4.1046
   62MOL   H23644278   1.218   5.073   5.186 -0.7230 -0.8232 -0.0259
   62MOL   H23744279   1.412   4.967   4.977  1.5459 -0.8241  0.1874
   62MOL   H23844280   1.416   5.135   5.040  2.4591 -0.4181  1.9095
   62MOL   H23944281   1.469   5.020   5.270  0.7725  0.8659 -0.3392
   62MOL   H24044282   1.446   4.870   5.191 -1.0398  0.6814  1.2054
   62MOL   H24144283   1.624   4.938   5.028 -0.6167  0.2815 -0.4669
   62MOL   H24244284   1.649   5.075   5.143 -0.0811 -0.3431  2.7507
   62MOL   H24344285   1.710   4.923   5.329 -0.8480  1.5740  0.1466
   62MOL   H24444286   1.708   4.787   5.211 -0.7851  0.7090 -0.5228
   62MOL   H24544287   1.878   5.030   5.162 -0.9363 -0.0395 -0.3906
   62MOL   H24644288   1.883   4.870   5.086 -0.8048  3.8647 -2.4920
   62MOL   H24744289   1.934   4.774   5.300  2.3548 -1.1928 -0.8306
   62MOL   H24844290   1.948   4.925   5.380 -2.1514 -2.3352  0.9923
   62MOL   H24944291   2.387   4.588   5.234  1.0802  0.6730  1.2835
   62MOL   H25044292   2.442   4.737   5.308  0.7931 -2.7945  0.5860
   62MOL   H25144293   2.487   4.692   5.145  0.1002 -1.4621 -0.1827
   62MOL   H25244294   2.140   4.640   5.116 -1.6805 -0.1519 -2.3130
   62MOL   H25344295   2.136   4.780   5.015 -0.4663 -0.6703  0.1162
   62MOL   C25444296   2.683   3.903   5.782 -0.7609  0.3580  0.9194
   62MOL   C25544297   2.559   3.948   5.709 -0.0390  0.0573 -0.2487
   62MOL   C25644298   2.593   4.038   5.585 -0.5349  0.1685 -0.0282
   62MOL   C25744299   2.476   4.056   5.494 -0.1972  0.1666  0.0773
   62MOL   C25844300   2.490   4.163   5.384  0.1409 -0.5500  0.5363
   62MOL   C25944301   2.353   4.178   5.304 -0.8433 -0.0242  0.0682
   62MOL   C26044302   2.339   4.315   5.233 -0.1782  0.1250 -0.3416
   62MOL   C26144303   2.254   4.305   5.108 -0.2070  0.3623 -0.2844
   62MOL   O26244304   2.231   4.434   5.069  0.0413  0.1592 -0.5262
   62MOL   C26344305   2.304   4.491   4.974  0.2034 -0.0502  0.1759
   62MOL   O26444306   2.409   4.449   4.931 -0.0669 -0.5447  0.0558
   62MOL   C26544307   2.243   4.619   4.926 -0.2251 -0.0118 -0.2208
   62MOL   C26644308   2.331   4.686   4.822  0.3368 -0.1334  0.1464
   62MOL   C26744309   2.101   4.598   4.856 -0.2961  0.1157 -0.4939
   62MOL   H26844310   2.740   3.983   5.828  2.1538 -0.2678 -1.4801
   62MOL   H26944311   2.654   3.837   5.864  1.7338 -0.6988  1.0000
   62MOL   H27044312   2.760   3.847   5.728 -0.8280  0.0603  1.1298
   62MOL   H27144313   2.498   3.864   5.676  2.5590 -1.8303 -0.3715
   62MOL   H27244314   2.500   3.994   5.789  1.4138  1.3526  0.0967
   62MOL   H27344315   2.670   3.980   5.534 -2.5444 -1.6758 -1.0640
   62MOL   H27444316   2.628   4.135   5.619 -0.4905 -0.3608  1.4867
   62MOL   H27544317   2.396   4.091   5.559 -0.1202 -0.5253  0.5500
   62MOL   H27644318   2.444   3.962   5.449  0.2522  0.7263 -1.4403
   62MOL   H27744319   2.520   4.260   5.425  2.1742 -0.6636 -0.5834
   62MOL   H27844320   2.571   4.141   5.313  0.5052 -0.0267  0.7864
   62MOL   H27944321   2.275   4.171   5.380  0.3359  2.3818  1.5955
   62MOL   H28044322   2.348   4.102   5.226  3.6251 -1.9737  1.5114
   62MOL   H28144323   2.314   4.398   5.299 -0.4090  1.8932 -2.5741
   62MOL   H28244324   2.439   4.346   5.203 -0.3655 -0.7491 -1.9514
   62MOL   H28344325   2.291   4.236   5.033 -2.3937 -0.7962 -0.3410
   62MOL   H28444326   2.162   4.258   5.143  0.7954 -0.9921  0.6058
   62MOL   H28544327   2.322   4.638   4.724  0.5933  2.1816 -1.0617
   62MOL   H28644328   2.305   4.792   4.818  2.1832  0.2806 -1.2565
   62MOL   H28744329   2.435   4.693   4.854  0.2215  0.3179  0.4263
   62MOL   H28844330   2.050   4.694   4.860  0.6596  0.5952  1.0026
   62MOL   H28944331   2.044   4.547   4.934 -0.6313 -0.5792 -1.1886
   62MOL   C29044332   2.161   5.247   3.924  0.6348 -0.4283  0.9021
   62MOL   C29144333   2.070   5.128   3.971 -0.0443 -0.3407  0.0607
   62MOL   C29244334   2.146   4.992   3.970 -0.7824 -0.0985  0.2005
   62MOL   C29344335   2.059   4.890   4.044 -0.0277 -0.9263  0.5610
   62MOL   C29444336   2.132   4.763   4.061  0.2219 -0.3595  1.0876
   62MOL   C29544337   2.052   4.650   4.123 -0.5403 -0.4311  0.4038
   62MOL   C29644338   2.039   4.652   4.281  0.1873 -0.4162 -0.5984
   62MOL   C29744339   2.152   4.593   4.361  0.0775  0.4808  0.4774
   62MOL   O29844340   2.105   4.541   4.483  0.2487 -0.4934  0.3068
   62MOL   C29944341   2.096   4.618   4.596 -0.3682  0.1584  0.2450
   62MOL   O30044342   2.120   4.740   4.603 -0.0911 -0.3030 -0.2014
   62MOL   C30144343   2.073   4.527   4.718  0.9053  0.5455  0.2088
   62MOL   C30244344   2.155   4.398   4.714 -0.3161  0.4339 -0.2485
   62MOL   C30344345   1.919   4.483   4.718  0.4012 -0.3600  0.6824
   62MOL   H30444346   2.108   5.341   3.915 -1.0038 -1.1656  2.4275
   62MOL   H30544347   2.177   5.214   3.821  0.6843 -0.4548  0.9178
   62MOL   H30644348   2.251   5.246   3.986 -0.3904 -1.4031  2.3986
   62MOL   H30744349   1.972   5.129   3.924  0.7516 -0.1356 -1.6292
   62MOL   H30844350   2.047   5.152   4.075 -0.2381 -0.3768  0.0270
   62MOL   H30944351   2.245   4.993   4.016 -0.0837 -1.5827 -1.2175
   62MOL   H31044352   2.157   4.958   3.867  1.1921 -0.3737  0.4775
   62MOL   H31144353   2.018   4.921   4.140 -1.6022 -1.6258  0.1381
   62MOL   H31244354   1.974   4.871   3.978  0.1697  1.1113 -0.3109
   62MOL   H31344355   2.174   4.729   3.966 -2.4848 -0.2416 -0.1891
   62MOL   H31444356   2.218   4.778   4.125  0.2020  0.7309  0.8620
   62MOL   H31544357   2.089   4.551   4.095  0.1374 -0.3686  1.0657
   62MOL   H31644358   1.954   4.655   4.075  1.0560  0.1848 -2.9931
   62MOL   H31744359   1.952   4.595   4.311  0.6915  0.3958  2.6105
   62MOL   H31844360   2.004   4.748   4.320  1.4597 -0.2430  0.1482
   62MOL   H31944361   2.227   4.671   4.372 -1.0790  1.5781  0.6975
   62MOL   H32044362   2.203   4.509   4.313  0.5443  0.5265  0.8880
   62MOL   H32144363   2.122   4.340   4.627  0.8819  3.3299 -2.7222
   62MOL   H32244364   2.139   4.340   4.805 -1.5564  0.3873 -0.4875
   62MOL   H32344365   2.256   4.420   4.678  0.2534  0.1201  1.1440
   62MOL   H32444366   1.914   4.455   4.612 -0.1708  0.1929  0.5596
   62MOL   H32544367   1.910   4.390   4.775  0.5934 -1.5339 -1.1536
   62MOL   C32644368   2.323   4.348   5.689 -0.3482  0.1547  0.0311
   62MOL   C32744369   2.184   4.357   5.634  0.4405 -0.6457 -0.4164
   62MOL   C32844370   2.130   4.495   5.613 -0.4892 -0.2722  0.0214
   62MOL   C32944371   2.001   4.497   5.529  0.5167 -0.1122 -0.0912
   62MOL   C33044372   2.015   4.464   5.379  0.4885  0.5283 -0.5282
   62MOL   C33144373   1.874   4.458   5.320 -0.0358  0.2571  0.5138
   62MOL   C33244374   1.876   4.445   5.166 -0.0424 -0.3509  0.0681
   62MOL   C33344375   1.736   4.446   5.096 -0.0756 -0.1380  0.7827
   62MOL   O33444376   1.742   4.463   4.958 -0.1334 -0.0839 -0.1964
   62MOL   C33544377   1.770   4.586   4.905  0.3770 -0.6308  0.2532
   62MOL   O33644378   1.790   4.689   4.969  0.3009 -0.2227  0.8091
   62MOL   C33744379   1.794   4.584   4.747 -0.0640  0.5516 -0.3821
   62MOL   C33844380   1.818   4.721   4.691 -0.4140  0.0379  0.1481
   62MOL   C33944381   1.671   4.519   4.677 -0.0403  0.4627  0.7925
   62MOL   H34044382   2.314   4.399   5.786  1.9639  0.6760 -0.0127
   62MOL   H34144383   2.394   4.395   5.621  1.0338  2.9406  3.2235
   62MOL   H34244384   2.360   4.247   5.704  1.4350  0.6829 -0.7670
   62MOL   H34344385   2.112   4.300   5.691 -0.3722 -0.0390 -0.8259
   62MOL   H34444386   2.186   4.304   5.539 -0.4692 -1.4673  0.0257
   62MOL   H34544387   2.198   4.565   5.565 -0.0533 -1.0554 -0.5221
   62MOL   H34644388   2.115   4.544   5.709  2.4935  0.4476  0.1710
   62MOL   H34744389   1.952   4.593   5.542 -0.4779 -0.7040  0.6113
   62MOL   H34844390   1.926   4.432   5.574  0.0029  0.3699 -0.2596
   62MOL   H34944391   2.079   4.532   5.323  0.8192  0.3739 -0.3426
   62MOL   H35044392   2.061   4.366   5.366  1.7266  1.0018  0.1932
   62MOL   H35144393   1.817   4.371   5.353  2.3251 -1.3605  0.4365
   62MOL   H35244394   1.836   4.556   5.351  2.4750  1.7972 -1.0492
   62MOL   H35344395   1.934   4.357   5.141  0.0220  0.2596 -1.9570
   62MOL   H35444396   1.931   4.533   5.131  1.4229 -1.0350  0.5889
   62MOL   H35544397   1.678   4.357   5.121 -0.7176  0.0335 -0.0815
   62MOL   H35644398   1.673   4.529   5.130  1.0727  1.3931 -0.7176
   62MOL   H35744399   1.904   4.769   4.736  1.4212 -1.1718 -1.9563
   62MOL   H35844400   1.838   4.717   4.584 -0.0660 -3.4555  0.2967
   62MOL   H35944401   1.738   4.793   4.711 -0.5013 -0.4766  1.6662
   62MOL   H36044402   1.702   4.480   4.580  0.0263  0.9553  0.6090
   62MOL   H36144403   1.648   4.427   4.729 -1.6615  0.4153  0.0282
   62MOL   C36244404   1.030   4.249   4.574  0.0237  0.5252 -0.0660
   62MOL   C36344405   0.957   4.304   4.693 -0.7139  0.4470  0.2885
   62MOL   C36444406   1.000   4.446   4.721 -0.1704 -0.2421 -0.2773
   62MOL   C36544407   0.919   4.506   4.837 -0.0492  0.3357  0.0699
   62MOL   C36644408   0.969   4.646   4.888  0.2495 -0.4896  0.4752
   62MOL   C36744409   1.121   4.663   4.903  0.4330 -0.7797  0.2408
   62MOL   C36844410   1.204   4.570   4.985 -0.5055 -0.4271 -0.0645
   62MOL   C36944411   1.361   4.578   4.973  0.5146  0.0645 -0.5044
   62MOL   O37044412   1.424   4.548   4.847 -0.0419  0.2465 -0.3058
   62MOL   C37144413   1.466   4.640   4.770 -0.3280  0.7997  0.2349
   62MOL   O37244414   1.453   4.759   4.793  0.0205 -0.1601 -0.4072
   62MOL   C37344415   1.534   4.584   4.641  0.1210  0.0393  0.5879
   62MOL   C37444416   1.451   4.457   4.588 -0.5853  0.1410 -0.7028
   62MOL   C37544417   1.545   4.690   4.527 -0.0064  0.0548  0.0524
   62MOL   H37644418   1.000   4.149   4.545 -0.8539  0.0619  2.2728
   62MOL   H37744419   1.010   4.310   4.486 -1.2294 -0.5731 -0.5553
   62MOL   H37844420   1.135   4.240   4.602 -0.1424  0.2600  0.4878
   62MOL   H37944421   0.983   4.241   4.778  0.2234 -0.4448 -0.6543
   62MOL   H38044422   0.851   4.296   4.667 -0.6973  0.4483  0.2193
   62MOL   H38144423   0.982   4.510   4.635  1.1480 -0.5068 -0.7577
   62MOL   H38244424   1.107   4.454   4.736  0.1078 -0.9269 -1.8203
   62MOL   H38344425   0.937   4.431   4.915 -1.2319  0.5120  0.5301
   62MOL   H38444426   0.812   4.505   4.816 -0.1759  2.5394  0.4862
   62MOL   H38544427   0.920   4.726   4.832 -0.6057  0.0904  2.0193
   62MOL   H38644428   0.921   4.662   4.985  1.0645  0.5548  0.7187
   62MOL   H38744429   1.125   4.760   4.951 -0.1136 -0.4686 -0.3208
   62MOL   H38844430   1.170   4.668   4.805  0.9520  0.4428  0.5645
   62MOL   H38944431   1.169   4.468   4.967 -1.0097  0.1327 -2.4996
   62MOL   H39044432   1.173   4.572   5.090 -1.0304  0.4006 -0.2350
   62MOL   H39144433   1.398   4.670   5.017 -0.9398 -0.4345  1.8190
   62MOL   H39244434   1.384   4.496   5.041  0.1811 -1.0283 -1.6716
   62MOL   H39344435   1.490   4.400   4.504 -0.9370 -2.1820  0.6588
   62MOL   H39444436   1.449   4.376   4.661 -2.6954  0.9936  0.2412
   62MOL   H39544437   1.344   4.475   4.576 -0.9456 -1.1853  0.4071
   62MOL   H39644438   1.567   4.787   4.573 -1.2066 -0.7153  2.3352
   62MOL   H39744439   1.642   4.674   4.481  0.4029  0.0866  0.8902
   62MOL   C39844440   0.607   4.370   3.818  0.1556 -0.7095  0.0585
   62MOL   C39944441   0.723   4.342   3.924 -0.0743 -0.7447 -0.0948
   62MOL   C40044442   0.812   4.470   3.953  0.8861  0.1879  0.2357
   62MOL   C40144443   0.898   4.435   4.072  0.1232 -0.4531  0.4453
   62MOL   C40244444   0.944   4.564   4.150 -0.1247 -0.4959 -0.2855
   62MOL   C40344445   1.056   4.652   4.078 -0.1994 -0.6590 -0.0159
   62MOL   C40444446   1.181   4.571   4.038  0.2201 -0.6969 -0.2737
   62MOL   C40544447   1.266   4.515   4.155 -0.4810 -0.0051 -0.1362
   62MOL   O40644448   1.304   4.612   4.253 -0.0734 -0.0609 -0.3504
   62MOL   C40744449   1.419   4.608   4.316 -0.0620  0.3024 -0.3169
   62MOL   O40844450   1.506   4.525   4.287  0.0428  0.0793 -0.7888
   62MOL   C40944451   1.438   4.722   4.414 -0.4828 -0.8311  0.8821
   62MOL   C41044452   1.308   4.758   4.492 -0.4275  0.8072 -0.2209
   62MOL   C41144453   1.469   4.850   4.333 -0.3336 -0.1581 -0.3094
   62MOL   H41244454   0.524   4.431   3.852 -0.6460 -1.3572 -0.6915
   62MOL   H41344455   0.580   4.267   3.795  3.7364 -1.7268  0.0164
   62MOL   H41444456   0.643   4.408   3.722 -1.2666 -3.2742 -1.5479
   62MOL   H41544457   0.794   4.265   3.894 -0.2183 -1.5002  1.5045
   62MOL   H41644458   0.671   4.310   4.014  0.3906 -0.2166  0.3687
   62MOL   H41744459   0.866   4.494   3.861  0.1551  0.7995 -0.0407
   62MOL   H41844460   0.758   4.563   3.970 -0.0998  0.2609 -2.8457
   62MOL   H41944461   0.975   4.375   4.023  1.9776  1.7101  0.6232
   62MOL   H42044462   0.853   4.372   4.148  2.6423 -1.0769  1.4710
   62MOL   H42144463   0.857   4.616   4.188 -0.2532 -0.9576  0.0557
   62MOL   H42244464   0.992   4.524   4.239 -0.3317 -0.5687 -0.2057
   62MOL   H42344465   1.080   4.734   4.146 -3.4081  0.0673  0.3402
   62MOL   H42444466   1.010   4.697   3.991  0.3896 -0.3319 -0.1607
   62MOL   H42544467   1.162   4.485   3.975  3.8652 -2.0590  0.3575
   62MOL   H42644468   1.245   4.634   3.977 -0.0432 -0.2446 -0.0895
   62MOL   H42744469   1.223   4.433   4.213  1.2382 -0.5001  0.4921
   62MOL   H42844470   1.360   4.476   4.115 -1.8105 -1.4109 -1.9822
   62MOL   H42944471   1.314   4.853   4.546 -0.3320  2.1287 -2.4896
   62MOL   H43044472   1.270   4.677   4.553  1.9235 -1.1268 -1.2300
   62MOL   H43144473   1.225   4.775   4.423  0.3953  1.1557 -1.1460
   62MOL   H43244474   1.473   4.929   4.409  1.9022 -0.1280 -0.4428
   62MOL   H43344475   1.379   4.873   4.276 -0.4265 -0.2856 -0.2138
   62MOL   C43444476   2.008   5.492   3.459  0.2541  0.8795  0.1116
   62MOL   C43544477   1.906   5.423   3.551 -0.0825  0.9760 -0.7243
   62MOL   C43644478   1.921   5.266   3.571 -0.1650 -0.0836 -0.4668
   62MOL   C43744479   1.806   5.201   3.653  0.3408  0.0711  0.0343
   62MOL   C43844480   1.816   5.045   3.651  0.2558 -0.3860  0.4076
   62MOL   C43944481   1.716   4.991   3.753 -0.8418  0.1178  0.2591
   62MOL   C44044482   1.740   4.838   3.783 -0.4654 -0.3384 -0.3201
   62MOL   C44144483   1.641   4.777   3.874  0.0790 -0.2684 -0.0677
   62MOL   O44244484   1.653   4.831   4.002 -0.2715 -0.0454 -0.0799
   62MOL   C44344485   1.546   4.822   4.091 -0.6803  0.5557  0.5886
   62MOL   O44444486   1.442   4.773   4.049 -0.5041  0.0302  0.0351
   62MOL   C44544487   1.584   4.877   4.229 -0.2120 -0.1699  0.0458
   62MOL   C44644488   1.714   4.814   4.282  0.1052  0.0622  0.4420
   62MOL   C44744489   1.610   5.030   4.221 -0.2157 -0.1990  0.0079
   62MOL   H44844490   2.010   5.601   3.461 -0.8813  0.8945  2.2132
   62MOL   H44944491   2.001   5.457   3.356 -0.1379 -0.1449  0.4853
   62MOL   H45044492   2.106   5.465   3.498 -0.5882  1.2042  2.5335
   62MOL   H45144493   1.812   5.458   3.509 -0.3193 -0.7632 -1.6925
   62MOL   H45244494   1.899   5.483   3.642 -1.6858  0.6433 -0.6205
   62MOL   H45344495   2.015   5.241   3.619  0.8080 -0.7679 -2.6656
   62MOL   H45444496   1.917   5.219   3.472 -0.9658 -1.9697  0.4320
   62MOL   H45544497   1.712   5.240   3.614  0.9176  1.3117 -0.1714
   62MOL   H45644498   1.828   5.238   3.753  1.6082  0.0480 -0.2184
   62MOL   H45744499   1.783   5.004   3.556  0.3496  0.5228 -0.0326
   62MOL   H45844500   1.916   5.009   3.675  0.4368 -0.4449 -0.4267
   62MOL   H45944501   1.614   5.000   3.716 -0.7506 -1.5473 -0.4264
   62MOL   H46044502   1.721   5.044   3.848 -0.6923 -2.1349  1.5207
   62MOL   H46144503   1.745   4.783   3.689 -1.5821  0.4566 -0.8531
   62MOL   H46244504   1.843   4.832   3.817 -0.8170 -0.2462  0.7705
   62MOL   H46344505   1.654   4.669   3.888  0.5333 -0.2775 -0.5084
   62MOL   H46444506   1.543   4.788   3.828  0.0848 -2.0007 -0.5354
   62MOL   H46544507   1.718   4.705   4.278 -0.4286  0.0832 -1.2576
   62MOL   H46644508   1.793   4.846   4.213 -0.3659  1.3080  0.4669
   62MOL   H46744509   1.744   4.859   4.377  0.6769  0.1862  0.2111
   62MOL   H46844510   1.657   5.071   4.310  0.0934 -1.3667  0.3953
   62MOL   H46944511   1.690   5.037   4.147 -1.0978  2.1859 -0.7803
   62MOL   C47044512   2.160   5.071   4.739 -0.2606 -0.0945  0.1870
   62MOL   C47144513   2.090   5.129   4.867 -0.0175 -0.5540 -0.0352
   62MOL   C47244514   1.947   5.177   4.835  0.2069  0.1836 -0.4503
   62MOL   C47344515   1.854   5.068   4.791  0.6058 -0.1893 -0.0378
   62MOL   C47444516   1.705   5.101   4.796  0.2314  0.0520 -0.2354
   62MOL   C47544517   1.669   5.197   4.675 -0.2962  0.2251  0.1267
   62MOL   C47644518   1.521   5.223   4.639 -0.1800  0.9050 -0.2300
   62MOL   C47744519   1.491   5.321   4.528  0.5514 -0.1655 -0.8593
   62MOL   O47844520   1.524   5.281   4.391  0.2957  0.3144  0.1997
   62MOL   C47944521   1.441   5.194   4.326 -0.0405  0.6633 -0.1395
   62MOL   O48044522   1.332   5.159   4.377 -0.4854 -0.0775  0.5199
   62MOL   C48144523   1.503   5.139   4.191 -0.3844 -0.2417  0.2623
   62MOL   C48244524   1.581   5.255   4.127  0.4974  0.0172 -0.5889
   62MOL   C48344525   1.395   5.088   4.086 -0.2316  0.4799  0.0366
   62MOL   H48444526   2.092   4.998   4.697 -1.8323  0.3389  1.9108
   62MOL   H48544527   2.258   5.024   4.743  0.2460  0.9679  0.4415
   62MOL   H48644528   2.152   5.151   4.665  2.3956  0.6622  0.6411
   62MOL   H48744529   2.085   5.054   4.946 -1.1804  0.6651  1.0615
   62MOL   H48844530   2.140   5.214   4.915 -1.2014  1.8725 -2.9699
   62MOL   H48944531   1.900   5.233   4.916  0.6134  1.6828 -1.2253
   62MOL   H49044532   1.957   5.258   4.762 -2.0380  0.1874 -0.8057
   62MOL   H49144533   1.870   5.024   4.692  0.1882 -1.0238  0.2578
   62MOL   H49244534   1.850   4.977   4.851 -1.5340  0.1605  0.3692
   62MOL   H49344535   1.644   5.011   4.793  0.8046 -0.3038 -1.9564
   62MOL   H49444536   1.696   5.158   4.889 -0.0663  2.0109 -1.4315
   62MOL   H49544537   1.731   5.287   4.670  0.6358 -0.4049  0.1871
   62MOL   H49644538   1.705   5.136   4.592  1.3693  0.8569  0.3731
   62MOL   H49744539   1.485   5.127   4.601  1.4863 -0.3788  1.3416
   62MOL   H49844540   1.470   5.242   4.733  2.8547 -0.8180  1.8516
   62MOL   H49944541   1.547   5.413   4.549 -0.8532  0.3744  0.6825
   62MOL   H50044542   1.392   5.366   4.524 -0.3099 -1.9028  0.4878
   62MOL   H50144543   1.529   5.350   4.134  2.8245  1.1576  2.6849
   62MOL   H50244544   1.612   5.218   4.030 -1.6106  0.0879 -1.3040
   62MOL   H50344545   1.667   5.275   4.192  0.3093  0.3682 -0.4461
   62MOL   H50444546   1.454   5.032   4.013  0.1111  1.2872 -0.3115
   62MOL   H50544547   1.321   5.028   4.138 -1.2866 -0.3871 -2.3799
   62MOL   C50644548   0.770   4.737   4.511 -1.0777 -0.3254  0.2995
   62MOL   C50744549   0.908   4.787   4.452 -0.1167  0.2587 -0.0459
   62MOL   C50844550   0.893   4.915   4.372  0.1063 -0.4841  0.4034
   62MOL   C50944551   0.848   5.031   4.468 -0.0279 -0.0876 -0.4547
   62MOL   C51044552   0.786   5.151   4.391 -0.4281 -0.2979 -0.6217
   62MOL   C51144553   0.889   5.230   4.315  0.3291 -0.4355  0.5204
   62MOL   C51244554   1.010   5.280   4.386 -0.2602 -0.0650  0.1549
   62MOL   C51344555   1.110   5.353   4.291 -1.0404  0.1744  0.6533
   62MOL   O51444556   1.150   5.256   4.190 -0.3386  0.7698 -0.1832
   62MOL   C51544557   1.238   5.293   4.100  0.7359 -0.5455  0.6961
   62MOL   O51644558   1.271   5.413   4.093  0.2442 -0.4261 -0.2559
   62MOL   C51744559   1.300   5.181   4.006 -0.5390  0.0861 -0.4411
   62MOL   C51844560   1.367   5.246   3.891 -0.3792 -0.6171 -0.4867
   62MOL   C51944561   1.180   5.082   3.962  0.7958  0.8143 -0.2081
   62MOL   H52044562   0.763   4.630   4.528  0.3982 -0.5171 -0.2585
   62MOL   H52144563   0.693   4.749   4.434 -1.8172 -2.5109  0.6479
   62MOL   H52244564   0.749   4.787   4.605 -1.1021  0.6447 -0.2143
   62MOL   H52344565   0.953   4.704   4.398 -1.7193 -0.9727  0.4748
   62MOL   H52444566   0.982   4.796   4.532 -0.0329 -1.2248  0.0471
   62MOL   H52544567   0.991   4.944   4.333  0.6043 -1.6798  0.7559
   62MOL   H52644568   0.829   4.916   4.284  0.0319  0.8868  0.4612
   62MOL   H52744569   0.764   4.997   4.529 -1.1137  2.6799 -0.3156
   62MOL   H52844570   0.929   5.058   4.535  1.0128  0.2442 -1.8235
   62MOL   H52944571   0.697   5.125   4.334 -1.6719  0.2719  1.0186
   62MOL   H53044572   0.755   5.216   4.473 -0.4311  0.9304 -1.5783
   62MOL   H53144573   0.834   5.318   4.283  1.1494  0.2167  0.8979
   62MOL   H53244574   0.908   5.191   4.215 -1.1569  0.6412 -0.2007
   62MOL   H53344575   1.068   5.200   4.431 -1.6896 -0.7857  0.7265
   62MOL   H53444576   0.975   5.346   4.466  2.8464  1.9880 -0.0455
   62MOL   H53544577   1.197   5.383   4.349 -1.8756  1.5930  1.2013
   62MOL   H53644578   1.057   5.435   4.242  0.5236  0.5526 -0.4243
   62MOL   H53744579   1.422   5.173   3.832 -1.0795 -0.2656 -1.5753
   62MOL   H53844580   1.432   5.327   3.925 -2.6677  0.3181  1.8815
   62MOL   H53944581   1.285   5.285   3.832  0.8171 -0.4323 -2.0524
   62MOL   H54044582   1.217   4.994   3.910 -2.1592 -0.0891 -0.9126
   62MOL   H54144583   1.135   5.039   4.051  1.3189 -1.2638 -0.9099
   62MOL   C54244584   0.409   5.956   4.220  0.8213 -0.3212  0.0830
   62MOL   C54344585   0.324   5.863   4.140 -0.0942 -0.8544 -0.4725
   62MOL   C54444586   0.396   5.732   4.125 -0.5696  0.3275  0.3469
   62MOL   C54544587   0.524   5.723   4.033 -0.0103 -0.6143  0.5993
   62MOL   C54644588   0.570   5.575   4.021  0.0248 -0.6323 -0.1596
   62MOL   C54744589   0.669   5.566   3.906 -0.4439  1.0836 -0.9800
   62MOL   C54844590   0.746   5.436   3.892 -0.0835 -0.0137  0.1416
   62MOL   C54944591   0.865   5.423   3.989 -0.2034 -0.0572  0.0908
   62MOL   O55044592   0.915   5.294   3.962  0.3616 -0.0397  0.2403
   62MOL   C55144593   1.015   5.273   3.873  0.1675  0.4381 -1.1684
   62MOL   O55244594   1.067   5.360   3.806 -0.3190  0.1631  0.5677
   62MOL   C55344595   1.058   5.119   3.869  0.4358 -0.3534 -0.5695
   62MOL   C55444596   0.937   5.029   3.916  0.2429  0.4448  0.5075
   62MOL   C55544597   1.086   5.086   3.715  0.8404  0.4249 -0.1463
   62MOL   H55644598   0.357   6.051   4.233 -1.2249 -1.4114 -0.0648
   62MOL   H55744599   0.510   5.970   4.182  0.5578  0.2462 -0.4311
   62MOL   H55844600   0.411   5.901   4.313  0.9280  0.0988  0.3316
   62MOL   H55944601   0.228   5.856   4.193  0.6486  0.2208  1.0569
   62MOL   H56044602   0.300   5.912   4.046  0.2786  2.8440  1.2928
   62MOL   H56144603   0.314   5.667   4.094  1.1164 -1.3186 -0.7919
   62MOL   H56244604   0.417   5.688   4.222  2.0146  5.0127  2.0460
   62MOL   H56344605   0.491   5.748   3.933  2.6133 -1.2333 -0.4667
   62MOL   H56444606   0.611   5.786   4.053  0.0711 -0.9016  1.1638
   62MOL   H56544607   0.487   5.507   4.004  0.8186 -1.3743 -1.1045
   62MOL   H56644608   0.615   5.540   4.114 -1.0224 -0.4199  0.4436
   62MOL   H56744609   0.605   5.579   3.819 -0.8923 -1.1220 -1.0019
   62MOL   H56844610   0.736   5.652   3.904  1.0603 -0.0522 -0.7362
   62MOL   H56944611   0.677   5.352   3.889 -1.8232  1.4015 -0.8553
   62MOL   H57044612   0.795   5.449   3.795  0.9819 -0.1267  0.6590
   62MOL   H57144613   0.833   5.435   4.093 -0.2399 -0.5933  0.1418
   62MOL   H57244614   0.941   5.498   3.971 -0.8007  0.4380 -0.4088
   62MOL   H57344615   0.927   5.036   4.025 -2.1480 -0.0928  0.3481
   62MOL   H57444616   0.968   4.925   3.907 -1.4478  0.1656 -2.6289
   62MOL   H57544617   0.841   5.047   3.869  0.1619 -0.2756  0.3940
   62MOL   H57644618   1.152   5.000   3.701  0.4654  0.5719 -3.2834
   62MOL   H57744619   1.159   5.161   3.686  0.3680  1.1674  0.5822
   62MOL   C57844620   0.609   4.404   2.920  0.2497  0.2746  0.3928
   62MOL   C57944621   0.704   4.414   3.041 -0.2619 -0.7023 -0.7506
   62MOL   C58044622   0.731   4.570   3.059  0.3208  0.3187 -0.2674
   62MOL   C58144623   0.798   4.599   3.195  0.1284 -0.6188  0.3803
   62MOL   C58244624   0.696   4.607   3.310 -0.7626 -0.1342  0.2738
   62MOL   C58344625   0.740   4.656   3.447  0.4483  0.7525  0.2528
   62MOL   C58444626   0.895   4.633   3.486  0.1655 -0.2747  0.0232
   62MOL   C58544627   0.923   4.709   3.624 -0.8081 -0.0085  0.8429
   62MOL   O58644628   0.980   4.836   3.602 -0.5903 -0.5030 -0.0095
   62MOL   C58744629   0.904   4.946   3.612 -0.1201  0.8206  1.2188
   62MOL   O58844630   0.787   4.946   3.655 -0.0849  0.0107 -0.5806
   62MOL   C58944631   0.979   5.079   3.593  0.3099 -0.1995  1.3307
   62MOL   C59044632   1.060   5.074   3.466  0.3619 -0.1598 -0.8315
   62MOL   C59144633   0.894   5.207   3.593  0.1381  0.0882 -0.3141
   62MOL   H59244634   0.580   4.299   2.914  1.3300  0.0724 -1.9246
   62MOL   H59344635   0.672   4.416   2.832  1.0608 -1.8922  0.6504
   62MOL   H59444636   0.518   4.463   2.926 -1.0601 -1.7802  1.0597
   62MOL   H59544637   0.800   4.370   3.015 -0.2777 -1.4995  0.4824
   62MOL   H59644638   0.654   4.365   3.125  1.6645  1.4667  1.7716
   62MOL   H59744639   0.634   4.620   3.047  0.1065 -0.2955 -1.1717
   62MOL   H59844640   0.794   4.600   2.976  2.7108 -1.1367  0.9848
   62MOL   H59944641   0.842   4.698   3.195 -0.5711 -0.2983 -1.6715
   62MOL   H60044642   0.877   4.524   3.210  1.0625  0.2555 -0.1027
   62MOL   H60144643   0.650   4.510   3.322 -1.1204  0.0115  0.0650
   62MOL   H60244644   0.631   4.687   3.273  1.6065  1.1586 -1.2253
   62MOL   H60344645   0.684   4.607   3.527 -0.6566 -0.2042 -1.0774
   62MOL   H60444646   0.724   4.764   3.450  0.7310  0.7594  1.3495
   62MOL   H60544647   0.961   4.658   3.403  0.7240 -0.1067  0.5070
   62MOL   H60644648   0.899   4.526   3.507 -3.0683 -0.0758  2.0654
   62MOL   H60744649   0.840   4.704   3.694 -2.1738  2.1131 -0.5685
   62MOL   H60844650   1.008   4.664   3.675 -0.1753 -0.5031 -0.6135
   62MOL   H60944651   1.136   4.997   3.457  1.6746  0.8241  1.3759
   62MOL   H61044652   0.992   5.066   3.381 -0.7013  0.0029 -0.0147
   62MOL   H61144653   1.100   5.172   3.440 -0.2697 -0.0775 -1.4949
   62MOL   H61244654   0.964   5.290   3.600 -0.2729  0.3513  0.6897
   62MOL   H61344655   0.843   5.208   3.689  0.5166 -3.3750 -0.0241
   62MOL   C61444656   7.524   4.819   3.448 -0.0429  0.7271  0.1409
   62MOL   C61544657   7.653   4.759   3.504 -1.5562  0.2330 -0.1627
   62MOL   C61644658   7.762   4.856   3.550 -0.5422  0.6532  0.1861
   62MOL   C61744659   0.097   4.793   3.625  0.4998 -0.4475 -0.3769
   62MOL   C61844660   0.210   4.893   3.662 -0.2758  0.4063  0.4315
   62MOL   C61944661   0.327   4.888   3.558 -0.2106 -0.8026  0.3539
   62MOL   C62044662   0.415   5.010   3.584 -0.4302  1.2253 -0.5038
   62MOL   C62144663   0.524   5.015   3.485 -0.4475  0.3468  0.0120
   62MOL   O62244664   0.604   5.134   3.498  0.1064 -0.2753  0.8883
   62MOL   C62344665   0.711   5.152   3.421  0.3359 -0.1423  0.0414
   62MOL   O62444666   0.730   5.090   3.317 -0.9722  0.3805  0.2102
   62MOL   C62544667   0.800   5.265   3.469 -0.4112 -0.3865  0.5620
   62MOL   C62644668   0.713   5.371   3.548  0.3103 -0.4151  0.9686
   62MOL   C62744669   0.893   5.335   3.361 -0.7768 -0.6723  0.4770
   62MOL   H62844670   7.463   4.858   3.530 -0.7011  0.0031  0.0010
   62MOL   H62944671   7.477   4.744   3.385  0.5563 -0.4639  1.0738
   62MOL   H63044672   7.540   4.894   3.371 -0.0895 -1.2654 -1.8646
   62MOL   H63144673   7.614   4.689   3.577  0.3920  0.4616  1.1228
   62MOL   H63244674   7.690   4.696   3.423 -0.4531  1.4994 -0.6531
   62MOL   H63344675   7.711   4.933   3.607 -0.3611  0.3254  0.8027
   62MOL   H63444676   0.038   4.895   3.464  1.7297  1.0642  1.7927
   62MOL   H63544677   0.134   4.702   3.578  0.8146  1.3754 -3.8130
   62MOL   H63644678   0.055   4.767   3.723 -1.0522  2.1355 -0.2973
   62MOL   H63744679   0.162   4.991   3.662 -0.3316  0.3946 -0.7576
   62MOL   H63844680   0.252   4.876   3.761 -0.2390  1.3453  0.5770
   62MOL   H63944681   0.384   4.796   3.571  0.0109 -0.7012  0.1156
   62MOL   H64044682   0.284   4.881   3.458 -1.1570  0.0761  0.6927
   62MOL   H64144683   0.470   4.992   3.676 -0.2552 -0.9237 -1.0125
   62MOL   H64244684   0.364   5.105   3.600 -2.1675 -0.1757  3.0575
   62MOL   H64344685   0.584   4.924   3.490 -0.5318  0.3101  0.3289
   62MOL   H64444686   0.488   5.006   3.383 -2.6731  0.1524  0.7999
   62MOL   H64544687   0.666   5.329   3.637  0.8989 -1.2191  0.9052
   62MOL   H64644688   0.633   5.410   3.485 -1.0289 -2.0727  1.6007
   62MOL   H64744689   0.775   5.453   3.584  0.0871  0.1708  0.0336
   62MOL   H64844690   0.938   5.249   3.311 -2.4981 -1.9202  1.0380
   62MOL   H64944691   0.979   5.380   3.410 -0.7760  0.3281 -0.4345
   62MOL   C65044692   0.811   6.087   4.184 -0.7938 -0.5968  0.1565
   62MOL   C65144693   0.959   6.055   4.148  0.0416 -0.0414 -0.5739
   62MOL   C65244694   0.968   5.935   4.067  0.3763  0.7298 -0.1094
   62MOL   C65344695   0.899   5.938   3.929 -0.0009 -0.3446 -0.2911
   62MOL   C65444696   0.966   5.846   3.820 -0.1065 -0.2202  0.4227
   62MOL   C65544697   0.900   5.863   3.681  0.1388  0.2806  0.6920
   62MOL   C65644698   0.944   5.760   3.572 -0.2693 -0.2980 -0.3320
   62MOL   C65744699   0.850   5.744   3.458 -0.5454  0.1090 -0.4145
   62MOL   O65844700   0.885   5.627   3.392  0.0400  0.7678  0.7534
   62MOL   C65944701   0.787   5.561   3.322 -0.4065  0.2115 -0.3943
   62MOL   O66044702   0.665   5.595   3.322 -0.7197 -0.4211 -0.8884
   62MOL   C66144703   0.836   5.433   3.249 -0.1850 -0.2144  0.1108
   62MOL   C66244704   0.718   5.363   3.174  0.1856 -0.3365 -0.2474
   62MOL   C66344705   0.952   5.461   3.149 -0.4931  0.5589  0.0152
   62MOL   H66444706   0.759   6.000   4.224 -0.5843  0.0684  1.9022
   62MOL   H66544707   0.754   6.117   4.096  0.0904 -1.3233 -0.6768
   62MOL   H66644708   0.800   6.164   4.260 -0.3997  0.0034 -0.3933
   62MOL   H66744709   1.013   6.046   4.242  1.0354  2.5096 -0.8754
   62MOL   H66844710   1.011   6.137   4.099  2.1403 -0.9679  0.0429
   62MOL   H66944711   0.924   5.858   4.131 -3.3849  3.1645  0.3802
   62MOL   H67044712   1.075   5.914   4.053  0.8158  0.3098  3.4703
   62MOL   H67144713   0.891   6.038   3.887  0.4562 -0.4553 -0.6506
   62MOL   H67244714   0.794   5.909   3.933  0.1224 -0.7666 -0.1058
   62MOL   H67344715   0.949   5.744   3.854  0.9813 -0.2602  0.8796
   62MOL   H67444716   1.071   5.873   3.811 -0.1041  0.1764  1.5499
   62MOL   H67544717   0.792   5.869   3.694  0.0566  0.7815 -0.1673
   62MOL   H67644718   0.929   5.963   3.651 -0.5036  0.0989 -0.5661
   62MOL   H67744719   0.976   5.667   3.617  0.4845 -0.0471 -0.3411
   62MOL   H67844720   1.041   5.792   3.533 -0.4380  1.3803  0.5517
   62MOL   H67944721   0.845   5.820   3.380  3.0151  0.1713 -0.6919
   62MOL   H68044722   0.746   5.750   3.490 -0.9190 -1.9120 -1.1441
   62MOL   H68144723   0.673   5.435   3.105  1.7163  1.4004  0.5289
   62MOL   H68244724   0.642   5.339   3.248  2.3760 -1.2898  1.7262
   62MOL   H68344725   0.749   5.269   3.128 -0.6086 -1.4120  1.3608
   62MOL   H68444726   1.036   5.512   3.197  0.1261 -0.2664 -0.1846
   62MOL   H68544727   1.004   5.369   3.123 -0.5099  1.4098 -3.1736
   62MOL   C68644728   0.880   4.951   2.048  0.2569  0.2439  0.9767
   62MOL   C68744729   0.754   4.942   2.134 -0.0401  0.0461 -0.0729
   62MOL   C68844730   0.778   4.956   2.286  0.2988 -0.1169  0.1616
   62MOL   C68944731   0.835   5.093   2.327 -0.4624  0.1656 -0.1289
   62MOL   C69044732   0.840   5.125   2.482  0.4785 -0.3951  0.6963
   62MOL   C69144733   0.960   5.219   2.519 -0.1981  0.0447 -0.4191
   62MOL   C69244734   0.945   5.317   2.637  0.4816  0.1734 -0.0138
   62MOL   C69344735   0.920   5.245   2.766  0.0544 -0.5279 -0.6347
   62MOL   O69444736   0.959   5.328   2.876  0.5505  0.6471  0.0192
   62MOL   C69544737   0.871   5.439   2.908 -0.5848 -0.4635  0.6061
   62MOL   O69644738   0.766   5.459   2.847  0.1973  0.7335  0.3448
   62MOL   C69744739   0.920   5.539   3.016 -0.1326 -0.5015  0.1560
   62MOL   C69844740   1.044   5.599   2.951  0.7758 -0.1523 -0.3314
   62MOL   C69944741   0.824   5.662   3.028 -0.1564  0.1810  0.7095
   62MOL   H70044742   0.855   4.910   1.950 -0.7027 -0.2460  1.4233
   62MOL   H70144743   0.962   4.899   2.097 -0.4883 -0.7661  1.1711
   62MOL   H70244744   0.903   5.057   2.034 -0.9949  0.2054 -1.5887
   62MOL   H70344745   0.696   4.856   2.103 -0.4674 -0.2993  1.6189
   62MOL   H70444746   0.694   5.027   2.101 -0.3862 -0.9254 -2.0370
   62MOL   H70544747   0.839   4.872   2.317 -0.0184 -0.7467 -0.9337
   62MOL   H70644748   0.679   4.940   2.329  0.9895 -0.3628  1.7023
   62MOL   H70744749   0.767   5.169   2.286  1.5198  2.6391  1.0362
   62MOL   H70844750   0.930   5.105   2.276 -1.1919 -2.6219 -2.2395
   62MOL   H70944751   0.853   5.034   2.540  2.3510  0.1769  1.2269
   62MOL   H71044752   0.742   5.160   2.514  0.2102  0.2341 -0.7952
   62MOL   H71144753   1.051   5.159   2.516 -0.7691 -0.8064 -0.9190
   62MOL   H71244754   0.978   5.282   2.432  1.2449  0.2286  0.0009
   62MOL   H71344755   1.040   5.371   2.641  0.3666  0.3138  0.8909
   62MOL   H71444756   0.873   5.397   2.621 -0.0013  0.0179  1.3367
   62MOL   H71544757   0.984   5.156   2.766 -0.7385 -1.1075 -0.4315
   62MOL   H71644758   0.816   5.213   2.772  0.0602 -0.9314 -2.4019
   62MOL   H71744759   1.136   5.540   2.946  1.1019  0.2364  0.9401
   62MOL   H71844760   1.015   5.639   2.855 -0.5966  1.6886  0.8217
   62MOL   H71944761   1.075   5.692   3.000 -1.9025  1.0875 -0.9517
   62MOL   H72044762   0.717   5.656   3.052 -0.1532  3.1390  1.6929
   62MOL   H72144763   0.832   5.722   2.938 -0.1157 -2.7877 -1.3060
   62MOL   H72244764   0.867   5.723   3.108 -0.1652  1.8411 -0.5255
   63MOL     C144765   3.925   5.183   0.036 -0.2174 -0.7408 -0.1516
   63MOL     C244766   4.018   5.285   0.104 -0.0467  0.2601  0.4257
   63MOL     C344767   3.947   5.379   0.196 -0.0228 -0.7503  0.2230
   63MOL     C444768   3.896   5.307   0.326 -0.2458 -0.7322 -0.2011
   63MOL     C544769   3.805   5.404   0.415 -0.3746  0.1615  0.4008
   63MOL     C644770   3.666   5.453   0.359 -0.0248  0.0214  0.9102
   63MOL     C744771   3.590   5.548   0.458  0.2999 -0.2743 -0.6127
   63MOL     C844772   3.451   5.599   0.402 -0.4240  0.0370  0.0219
   63MOL     O944773   3.382   5.672   0.501 -0.3479 -0.1204 -0.1968
   63MOL    C1044774   3.258   5.711   0.475 -0.3852  0.5598 -0.1326
   63MOL    O1144775   3.187   5.688   0.379 -0.0797  0.0592 -0.8906
   63MOL    C1244776   3.203   5.797   0.587 -0.6672 -0.3637 -0.3603
   63MOL    C1344777   3.189   5.712   0.715 -0.5042  0.5784 -0.3324
   63MOL    C1444778   3.293   5.923   0.612  0.1812  0.3590  0.2777
   63MOL    H1544779   3.895   5.109   0.110 -2.9498 -0.4558 -0.9135
   63MOL    H1644780   3.973   5.135   7.730  0.1161 -2.5117  0.9975
   63MOL    H1744781   3.833   5.236   0.010  0.0263 -0.1401  0.1989
   63MOL    H1844782   4.076   5.345   0.034  1.1118 -1.3002  0.0052
   63MOL    H1944783   4.098   5.238   0.162 -0.0446  0.9245  0.9731
   63MOL    H2044784   4.001   5.467   0.231 -0.0985 -1.6313  2.6608
   63MOL    H2144785   3.869   5.427   0.137 -0.5186 -0.7932  0.8366
   63MOL    H2244786   3.849   5.210   0.308 -0.2424 -0.9801  1.1316
   63MOL    H2344787   3.980   5.287   0.393  0.9236  2.8296 -0.4643
   63MOL    H2444788   3.872   5.487   0.437  0.7208 -1.2971  2.8821
   63MOL    H2544789   3.795   5.349   0.509  1.0652 -0.4581  0.2095
   63MOL    H2644790   3.612   5.362   0.333  0.2056 -0.0968  0.8341
   63MOL    H2744791   3.686   5.501   0.263  2.1925 -4.3797 -0.9748
   63MOL    H2844792   3.658   5.629   0.485  0.2160 -0.5938  0.5523
   63MOL    H2944793   3.592   5.499   0.555 -0.1022 -1.4723 -1.1987
   63MOL    H3044794   3.396   5.516   0.358 -2.1897 -0.1945  2.5673
   63MOL    H3144795   3.481   5.657   0.315 -1.0353  0.4206  0.0649
   63MOL    H3244796   3.247   5.620   0.715  1.1676  1.5509 -3.9160
   63MOL    H3344797   3.237   5.762   0.799  2.5294 -0.9409 -1.0799
   63MOL    H3444798   3.089   5.688   0.752  0.1293 -0.3028  0.8523
   63MOL    H3544799   3.396   5.892   0.629 -0.1992  0.5171  3.2550
   63MOL    H3644800   3.261   5.962   0.709  0.7450 -2.1174  1.5028
   63MOL    H3744801   3.098   5.821   0.571 -0.9497 -0.9366  0.5334
   63MOL    C3844802   3.306   6.873   0.584  0.5254  1.0340  0.4474
   63MOL    C3944803   3.186   6.881   0.681  0.2154 -0.5184 -0.0658
   63MOL    C4044804   3.065   6.797   0.631 -0.5839 -0.4327 -0.2123
   63MOL    C4144805   3.078   6.655   0.685 -0.7580  0.4798 -0.5469
   63MOL    C4244806   2.980   6.559   0.621  0.3648  0.1757 -0.6482
   63MOL    C4344807   2.995   6.416   0.659  0.4698  0.8672 -0.0014
   63MOL    C4444808   2.931   6.316   0.555 -0.4852 -0.2265  0.1796
   63MOL    C4544809   2.936   6.167   0.599 -0.7601  0.3981 -0.6620
   63MOL    O4644810   3.076   6.122   0.604  0.8440 -0.6836 -0.3154
   63MOL    C4744811   3.131   6.078   0.489  0.1348 -0.2403  0.8832
   63MOL    O4844812   3.071   6.048   0.384  0.4593 -0.2978 -0.3994
   63MOL    C4944813   3.283   6.044   0.512 -0.3291  0.2381 -0.5060
   63MOL    C5044814   3.349   6.003   0.379 -0.3552 -0.2543 -0.3024
   63MOL    C5144815   3.358   6.160   0.584  0.5094  0.1663  0.2427
   63MOL    H5244816   3.272   6.883   0.481 -0.1113  1.3073  0.6780
   63MOL    H5344817   3.353   6.775   0.594 -1.0070  0.0832 -1.4303
   63MOL    H5444818   3.379   6.950   0.606  0.2884  1.2511  0.4836
   63MOL    H5544819   3.156   6.985   0.672  0.9076 -0.4496 -1.7239
   63MOL    H5644820   3.208   6.867   0.787  0.4579 -1.3767 -0.2212
   63MOL    H5744821   2.972   6.848   0.656 -1.3543 -1.5283 -0.7785
   63MOL    H5844822   3.076   6.796   0.522  1.4299 -2.9073 -0.0142
   63MOL    H5944823   3.075   6.662   0.794 -1.2564  2.4817 -0.6642
   63MOL    H6044824   3.180   6.621   0.662 -0.2864  0.4148  1.5470
   63MOL    H6144825   2.883   6.601   0.648  1.0826  0.5690  1.3624
   63MOL    H6244826   2.986   6.556   0.512  4.3660 -0.4069 -0.4849
   63MOL    H6344827   3.098   6.382   0.672  0.4528  1.5222  1.9711
   63MOL    H6444828   2.948   6.401   0.756 -1.7315  3.2202 -0.6806
   63MOL    H6544829   2.993   6.328   0.466 -2.4623  0.4345 -1.1560
   63MOL    H6644830   2.829   6.352   0.539  0.7701  2.9125 -1.2658
   63MOL    H6744831   2.870   6.100   0.545 -1.7809 -2.4742  3.8780
   63MOL    H6844832   2.894   6.161   0.699  0.6028  1.4422 -0.0154
   63MOL    H6944833   3.351   6.085   0.307 -0.3213 -1.1786 -1.3693
   63MOL    H7044834   3.451   5.970   0.399 -0.6655 -0.5826  0.7332
   63MOL    H7144835   3.299   5.916   0.337 -0.0952 -1.3080  1.5199
   63MOL    H7244836   3.449   6.119   0.627  1.3088  1.1372 -0.4747
   63MOL    H7344837   3.296   6.189   0.669 -0.0625 -3.1530  1.0276
   63MOL    C7444838   3.252   6.837   7.527 -0.2420 -0.2673  0.1173
   63MOL    C7544839   3.393   6.879   7.556 -0.1893  0.0892 -0.4571
   63MOL    C7644840   3.438   6.839   7.697 -0.4983 -0.2987  0.1890
   63MOL    C7744841   3.466   6.686   7.715  0.4561 -0.7655  0.1545
   63MOL    C7844842   3.576   6.656   0.032 -0.0710 -0.1910  0.1368
   63MOL    C7944843   3.589   6.503   0.068 -0.0305  0.8169  0.0223
   63MOL    C8044844   3.693   6.474   0.177 -0.3249  0.1196  0.7732
   63MOL    C8144845   3.685   6.349   0.265 -0.0103 -0.6641 -0.2845
   63MOL    O8244846   3.565   6.353   0.351  0.1555 -0.2894  0.5190
   63MOL    C8344847   3.537   6.254   0.428 -0.2104  0.2917  0.2596
   63MOL    O8444848   3.606   6.149   0.444 -0.2211 -0.0862  0.2003
   63MOL    C8544849   3.406   6.285   0.510 -0.1020  0.0055 -0.1726
   63MOL    C8644850   3.301   6.344   0.410 -0.1362  0.1585 -0.0117
   63MOL    C8744851   3.441   6.397   0.614 -0.0461  0.0138 -0.1853
   63MOL    H8844852   3.207   6.908   7.458 -0.2062  0.4542  0.8232
   63MOL    H8944853   3.190   6.854   7.615 -0.8667  0.9638 -0.5578
   63MOL    H9044854   3.255   6.731   7.500 -0.1790 -0.4044  0.6512
   63MOL    H9144855   3.401   6.986   7.536 -1.5485  0.0733 -1.1413
   63MOL    H9244856   3.442   6.822   7.477 -2.2653  0.0893 -1.8091
   63MOL    H9344857   3.531   6.893   7.714  0.1318 -0.5099 -2.4336
   63MOL    H9444858   3.363   6.876   7.766 -3.2098 -2.2460 -1.6251
   63MOL    H9544859   3.494   6.650   7.616  0.8483 -1.5096  0.5349
   63MOL    H9644860   3.380   6.628   7.748  1.9219 -3.2120 -0.1875
   63MOL    H9744861   3.672   6.697   0.001 -0.1427  0.3399  0.6077
   63MOL    H9844862   3.560   6.712   0.124  2.1168 -1.6333  1.4546
   63MOL    H9944863   3.498   6.451   0.098  1.6582 -1.2206  1.7863
   63MOL   H10044864   3.612   6.443   7.760 -2.1600  0.3757 -0.2682
   63MOL   H10144865   3.791   6.483   0.132 -0.2722  0.0657  0.8773
   63MOL   H10244866   3.683   6.546   0.259  0.1173  2.1977 -0.9434
   63MOL   H10344867   3.778   6.336   0.320  1.1119  0.5523 -1.8370
   63MOL   H10444868   3.685   6.258   0.205  0.9866 -1.5671  1.0895
   63MOL   H10544869   3.215   6.386   0.463 -0.7447  1.0731 -1.6989
   63MOL   H10644870   3.276   6.278   0.327  0.4506  1.2045 -1.0386
   63MOL   H10744871   3.333   6.435   0.359  1.5702 -0.0958  0.5507
   63MOL   H10844872   3.475   6.475   0.545 -2.0657  1.8991  0.8772
   63MOL   H10944873   3.342   6.434   0.642 -0.5733  0.0646 -2.0467
   63MOL   C11044874   3.389   6.200   1.876  0.0248 -0.1679  0.0254
   63MOL   C11144875   3.309   6.191   1.744  0.2787  0.2379 -0.3625
   63MOL   C11244876   3.385   6.200   1.611  0.1649 -0.5893  0.0942
   63MOL   C11344877   3.290   6.198   1.496  0.3822  0.5714  0.1492
   63MOL   C11444878   3.356   6.226   1.361 -0.7702 -0.1277 -0.0334
   63MOL   C11544879   3.267   6.216   1.234 -0.2315  0.2796  0.3223
   63MOL   C11644880   3.322   6.292   1.116  0.2159 -0.2457  0.1731
   63MOL   C11744881   3.301   6.229   0.975  0.4736  0.0451 -0.0956
   63MOL   O11844882   3.369   6.308   0.885  0.6405 -0.9196 -0.3153
   63MOL   C11944883   3.494   6.279   0.835  0.1103 -0.1658 -0.2372
   63MOL   O12044884   3.561   6.185   0.869  0.1835  0.1178  0.1062
   63MOL   C12144885   3.541   6.392   0.736 -0.4434  0.2438 -0.0824
   63MOL   C12244886   3.519   6.531   0.798  0.2798  0.2122 -0.4543
   63MOL   C12344887   3.684   6.373   0.680  0.4570  0.5316  0.5300
   63MOL   H12444888   3.466   6.277   1.879 -0.3951  0.2831 -0.6309
   63MOL   H12544889   3.320   6.195   1.960  0.7153 -4.1906  0.4294
   63MOL   H12644890   3.444   6.106   1.880  0.0488 -0.1016  1.3296
   63MOL   H12744891   3.227   6.261   1.731 -0.3190  0.3239  3.5709
   63MOL   H12844892   3.250   6.099   1.750  0.8364 -0.1774 -1.0532
   63MOL   H12944893   3.464   6.127   1.596  1.6570  0.6357  1.8373
   63MOL   H13044894   3.439   6.294   1.626 -0.5913 -0.2652  0.8475
   63MOL   H13144895   3.227   6.109   1.494 -0.3986  0.8760  5.2236
   63MOL   H13244896   3.213   6.274   1.505 -1.6124 -1.4423  0.4352
   63MOL   H13344897   3.452   6.175   1.357  0.2969  1.8801 -0.8509
   63MOL   H13444898   3.394   6.328   1.359  1.7377 -1.0610 -0.8301
   63MOL   H13544899   3.271   6.111   1.205 -0.3538  0.2820  0.2930
   63MOL   H13644900   3.164   6.243   1.260 -0.1763 -0.2589  1.1252
   63MOL   H13744901   3.430   6.305   1.121  0.0366  1.9182 -0.7905
   63MOL   H13844902   3.264   6.384   1.117  0.6536  0.0603 -1.3814
   63MOL   H13944903   3.336   6.126   0.979  0.3402  0.0285  0.8200
   63MOL   H14044904   3.199   6.230   0.939  0.7941  3.4609 -1.0777
   63MOL   H14144905   3.576   6.527   0.892 -0.6482 -0.5197  0.0850
   63MOL   H14244906   3.542   6.627   0.751  1.3538 -0.1695 -0.7172
   63MOL   H14344907   3.414   6.539   0.825  0.4174  1.5159 -0.2704
   63MOL   H14444908   3.691   6.445   0.599  3.4657  1.6283  1.6751
   63MOL   H14544909   3.687   6.271   0.641 -1.8836  0.1987  1.1547
   63MOL   C14644910   3.127   6.613   1.472 -0.4702 -0.0947 -1.0034
   63MOL   C14744911   3.269   6.640   1.453 -0.4893 -0.5512  0.0110
   63MOL   C14844912   3.320   6.666   1.303 -0.0421  0.3997 -0.1468
   63MOL   C14944913   3.468   6.644   1.295 -0.7913 -0.7542 -0.8586
   63MOL   C15044914   3.539   6.677   1.162  0.2756 -0.3261 -0.1079
   63MOL   C15144915   3.695   6.663   1.157  0.0514  0.0358 -0.1540
   63MOL   C15244916   3.755   6.755   1.050  0.6429  0.5332  0.0106
   63MOL   C15344917   3.880   6.699   0.985 -0.5399 -0.3120 -0.1627
   63MOL   O15444918   3.845   6.567   0.937  0.1088  0.1304 -0.7331
   63MOL   C15544919   3.826   6.551   0.804 -0.2328 -0.6219  0.7979
   63MOL   O15644920   3.816   6.646   0.725  0.2946  0.1399 -0.2667
   63MOL   C15744921   3.822   6.398   0.760 -0.1133 -0.2376 -0.2118
   63MOL   C15844922   3.844   6.303   0.885 -0.6133  0.3211  0.0318
   63MOL   C15944923   3.944   6.363   0.664 -0.6202  0.0782 -0.2307
   63MOL   H16044924   3.059   6.691   1.438 -1.0261  0.2289  0.7651
   63MOL   H16144925   3.111   6.598   1.579 -0.3868 -0.0381 -0.9829
   63MOL   H16244926   3.112   6.525   1.410  1.0614  0.6383 -2.4351
   63MOL   H16344927   3.288   6.735   1.504 -0.8710 -0.1312 -0.6158
   63MOL   H16444928   3.337   6.568   1.498 -2.4592 -2.7930 -0.4587
   63MOL   H16544929   3.291   6.762   1.260  2.2947  0.9689 -0.5336
   63MOL   H16644930   3.263   6.600   1.238 -1.0357  0.0290  1.0862
   63MOL   H16744931   3.521   6.701   1.371  0.7642  0.2592 -2.6793
   63MOL   H16844932   3.478   6.541   1.329 -0.0927  0.7393  3.7871
   63MOL   H16944933   3.529   6.784   1.150  1.4153 -0.2916 -0.7700
   63MOL   H17044934   3.486   6.624   1.083  0.6753 -0.2757 -0.4052
   63MOL   H17144935   3.720   6.557   1.153 -3.9761 -0.9394 -1.0375
   63MOL   H17244936   3.753   6.688   1.247 -0.1807  2.1554 -0.5553
   63MOL   H17344937   3.686   6.786   0.971 -0.2325 -0.7181  0.2540
   63MOL   H17444938   3.779   6.848   1.100 -0.4345  1.0099 -0.3272
   63MOL   H17544939   3.915   6.771   0.911 -0.4521 -1.8902 -1.6898
   63MOL   H17644940   3.962   6.689   1.056 -0.4179 -1.7561 -0.4880
   63MOL   H17744941   3.835   6.199   0.856  1.8947  0.0576  0.1221
   63MOL   H17844942   3.766   6.306   0.961  0.7660 -1.4060  1.5747
   63MOL   H17944943   3.940   6.315   0.934 -1.3240 -2.9648  2.3956
   63MOL   H18044944   3.948   6.434   0.581  0.1424 -0.2796 -0.5117
   63MOL   H18144945   3.917   6.272   0.611  2.6595 -0.9268 -0.2809
   63MOL   C18244946   3.762   5.193   0.803  0.2240  0.3440  0.3704
   63MOL   C18344947   3.879   5.289   0.806  0.4016  0.5619  0.3140
   63MOL   C18444948   3.825   5.431   0.839  0.2415  0.2097  0.0396
   63MOL   C18544949   3.944   5.534   0.822 -0.2277 -0.4749 -0.0723
   63MOL   C18644950   3.900   5.674   0.830  0.0349 -0.3780 -0.6628
   63MOL   C18744951   4.012   5.775   0.815 -0.9938 -0.7024 -0.0808
   63MOL   C18844952   3.981   5.925   0.812 -0.2992 -0.1240  0.0020
   63MOL   C18944953   4.109   6.010   0.797  0.4719  0.3164 -0.7689
   63MOL   O19044954   4.076   6.138   0.751 -0.1063 -0.0530 -0.6854
   63MOL   C19144955   4.153   6.247   0.779 -0.2438  0.2225 -0.0667
   63MOL   O19244956   4.249   6.250   0.856  0.2971 -0.0825  0.9677
   63MOL   C19344957   4.105   6.369   0.700  0.0595 -0.0028  0.3493
   63MOL   C19444958   4.144   6.500   0.773 -0.4024  0.4270 -0.2375
   63MOL   C19544959   4.166   6.362   0.555  0.5343  0.9443 -0.0520
   63MOL   H19644960   3.698   5.202   0.891 -1.8862  0.8547 -1.1733
   63MOL   H19744961   3.694   5.217   0.722 -0.4093 -2.4836  0.0034
   63MOL   H19844962   3.794   5.089   0.797  0.5872  0.5769 -2.1484
   63MOL   H19944963   3.943   5.292   0.718  2.2150  0.6411  1.6068
   63MOL   H20044964   3.944   5.252   0.885  1.1928 -2.2774 -1.5554
   63MOL   H20144965   3.741   5.462   0.777 -0.6719  0.7562  1.5161
   63MOL   H20244966   3.782   5.437   0.939 -1.0417  2.3316 -0.6162
   63MOL   H20344967   4.027   5.509   0.887  0.6898  3.4775  0.4259
   63MOL   H20444968   3.992   5.524   0.725 -0.5630 -0.6389 -0.2222
   63MOL   H20544969   3.860   5.685   0.931  0.3111  1.3272 -0.7212
   63MOL   H20644970   3.831   5.701   0.751  0.3859  0.4486 -0.6986
   63MOL   H20744971   4.062   5.751   0.722  0.7183  2.4322 -0.0516
   63MOL   H20844972   4.074   5.748   0.901  0.5420 -0.4802 -1.0867
   63MOL   H20944973   3.915   5.943   0.727  2.0109 -0.8396 -2.0251
   63MOL   H21044974   3.925   5.955   0.900  2.3253  1.6467  1.1454
   63MOL   H21144975   4.168   5.952   0.727 -0.1158  0.8855 -1.7393
   63MOL   H21244976   4.162   6.007   0.893  1.6731 -1.4023 -1.4703
   63MOL   H21344977   4.253   6.505   0.782 -0.1245  0.5404 -3.1360
   63MOL   H21444978   4.096   6.583   0.720 -1.1696 -1.4538 -2.5840
   63MOL   H21544979   4.103   6.516   0.873  2.1126  0.8026  0.7658
   63MOL   H21644980   4.111   6.287   0.498  0.0940  0.5291  0.9214
   63MOL   H21744981   4.154   6.462   0.512 -0.0728 -0.5384 -3.4807
   63MOL   C21844982   4.898   5.883   7.461  0.1813  0.0152 -0.0434
   63MOL   C21944983   4.881   5.979   7.578 -0.1535 -0.4771 -0.0635
   63MOL   C22044984   4.751   5.950   7.663 -0.8504 -0.9587  0.0920
   63MOL   C22144985   4.757   6.030   0.016  0.9287 -1.1500 -1.0536
   63MOL   C22244986   4.675   5.961   0.125  0.4104 -0.2874 -0.8854
   63MOL   C22344987   4.634   6.049   0.253  0.0017  0.3464 -0.0231
   63MOL   C22444988   4.558   5.971   0.358  0.5566 -0.2901 -0.0879
   63MOL   C22544989   4.547   6.038   0.496 -0.1306  0.3157 -0.2889
   63MOL   O22644990   4.496   6.175   0.496  0.3691 -0.3190  0.4528
   63MOL   C22744991   4.363   6.193   0.522  0.7479  0.2071  0.6726
   63MOL   O22844992   4.276   6.101   0.525  0.1669 -0.3474  0.3259
   63MOL   C22944993   4.318   6.343   0.524  0.3058 -0.1568 -0.0082
   63MOL   C23044994   4.411   6.422   0.621  0.5695  0.1567  0.4014
   63MOL   C23144995   4.352   6.407   0.385  0.4878 -0.0307 -0.2165
   63MOL   H23244996   4.997   5.888   7.415 -0.7783  2.7486 -1.9206
   63MOL   H23344997   4.832   5.913   7.380 -0.5944 -0.3271  0.4642
   63MOL   H23444998   4.887   5.776   7.479 -1.8127  0.3429  0.7170
   63MOL   H23544999   4.869   6.078   7.534  0.8848 -0.6690 -0.8003
   63MOL   H23645000   4.964   5.972   7.648 -0.3636  0.3793  0.2846
   63MOL   H23745001   4.667   5.979   7.599  0.9792  1.6944 -1.1854
   63MOL   H23845002   4.739   5.844   7.687 -0.3551 -1.0106  0.1080
   63MOL   H23945003   4.859   6.043   0.052  0.3988  1.3971 -0.4057
   63MOL   H24045004   4.724   6.133   0.008  2.2413 -0.6399 -0.0904
   63MOL   H24145005   4.580   5.922   0.087 -1.0624  1.1792  1.1754
   63MOL   H24245006   4.726   5.869   0.153  1.4315  0.7203  0.6270
   63MOL   H24345007   4.720   6.100   0.296 -0.0292 -1.2859  2.0557
   63MOL   H24445008   4.579   6.137   0.222  1.1567  1.2267  0.3810
   63MOL   H24545009   4.626   5.888   0.381 -1.3777 -2.0683 -0.7007
   63MOL   H24645010   4.463   5.931   0.324  1.3480 -1.2882 -1.1771
   63MOL   H24745011   4.648   6.049   0.536  0.4513 -2.0988 -0.9951
   63MOL   H24845012   4.494   5.979   0.571  0.4682 -1.1118 -0.9683
   63MOL   H24945013   4.414   6.531   0.620 -0.3260  0.2242  2.4245
   63MOL   H25045014   4.513   6.395   0.593  0.5873  0.6097  0.0203
   63MOL   H25145015   4.410   6.394   0.727  0.0966 -1.2831  0.0244
   63MOL   H25245016   4.359   6.515   0.398 -0.6658 -0.1521  1.4888
   63MOL   H25345017   4.456   6.383   0.364  0.4746  0.8124 -1.2743
   63MOL   C25445018   3.484   7.132   0.303  0.3909  0.1646 -0.2969
   63MOL   C25545019   3.531   7.020   0.206 -0.2561  0.4693  0.1090
   63MOL   C25645020   3.682   7.007   0.206  0.0919 -0.4260 -0.8529
   63MOL   C25745021   3.738   6.992   0.351  0.2822 -0.0619  0.5258
   63MOL   C25845022   3.870   6.919   0.358  0.5114 -0.0245  0.4879
   63MOL   C25945023   3.848   6.769   0.387 -0.8460 -0.2206  0.7746
   63MOL   C26045024   3.980   6.696   0.388  0.7133 -0.1301  1.1373
   63MOL   C26145025   4.040   6.668   0.247  0.1643 -0.2892 -0.4538
   63MOL   O26245026   4.160   6.586   0.254 -0.2814 -0.2466  0.5899
   63MOL   C26345027   4.152   6.453   0.238 -0.2352 -0.0159 -0.4777
   63MOL   O26445028   4.047   6.393   0.209  0.0771 -0.1444  0.3292
   63MOL   C26545029   4.286   6.377   0.250  0.1626  0.0149  0.3390
   63MOL   C26645030   4.258   6.224   0.238  0.5270  0.1993  0.3271
   63MOL   C26745031   4.373   6.430   0.137  0.1727  0.1378 -0.6568
   63MOL   H26845032   3.375   7.139   0.313  0.5152  3.3886 -0.6971
   63MOL   H26945033   3.512   7.112   0.407  0.8595  1.2561 -0.2059
   63MOL   H27045034   3.523   7.231   0.281 -0.9178  0.8158  0.2084
   63MOL   H27145035   3.485   6.926   0.235  0.3327 -0.5421 -2.0867
   63MOL   H27245036   3.499   7.045   0.105  2.1763  2.4209 -0.2381
   63MOL   H27345037   3.723   7.092   0.152  1.5264  0.0104  0.8687
   63MOL   H27445038   3.710   6.920   0.146 -0.3173 -1.3251  0.2294
   63MOL   H27545039   3.668   6.937   0.413  1.9654 -2.2316  0.5510
   63MOL   H27645040   3.754   7.088   0.400  0.7876 -0.6572  1.5471
   63MOL   H27745041   3.926   6.943   0.268  1.2918  0.1520  1.0232
   63MOL   H27845042   3.938   6.963   0.431 -0.4818 -2.0973  2.7735
   63MOL   H27945043   3.787   6.742   0.301  0.5513  0.9829 -0.6395
   63MOL   H28045044   3.791   6.762   0.480  0.3505  1.5657  1.6874
   63MOL   H28145045   4.047   6.755   0.449  0.6697 -1.2275  2.2585
   63MOL   H28245046   3.971   6.600   0.439  1.0502 -1.2321 -0.8151
   63MOL   H28345047   3.965   6.611   0.193 -1.1156 -0.7504  1.7391
   63MOL   H28445048   4.060   6.756   0.186  1.0539 -0.3763 -0.2900
   63MOL   H28545049   4.230   6.205   0.134  0.5606  0.9977  0.1627
   63MOL   H28645050   4.350   6.167   0.244  1.9774  2.3992 -0.4428
   63MOL   H28745051   4.181   6.186   0.306  0.6412 -2.6740 -1.0771
   63MOL   H28845052   4.473   6.394   0.160  0.2545  1.4938  1.1839
   63MOL   H28945053   4.376   6.537   0.154  3.8386 -0.0334  0.2466
   63MOL   C29045054   4.498   5.850   6.683  0.1394  0.2279 -0.9127
   63MOL   C29145055   4.518   5.823   6.837  0.2061  0.7136 -0.1355
   63MOL   C29245056   4.442   5.922   6.926 -0.1093 -0.0664 -1.0768
   63MOL   C29345057   4.445   5.877   7.075  0.1584  0.3860  0.5747
   63MOL   C29445058   4.406   5.996   7.164 -0.1943 -0.3434  0.2576
   63MOL   C29545059   4.457   6.008   7.309 -0.0899  0.5982 -0.2817
   63MOL   C29645060   4.382   6.123   7.381 -0.1473  0.0802  0.3985
   63MOL   C29745061   4.437   6.129   7.526 -0.2195 -0.3974  0.0126
   63MOL   O29845062   4.376   6.247   7.584 -0.2128  0.3221 -0.2787
   63MOL   C29945063   4.396   6.265   7.717  0.0703  0.4496 -0.3532
   63MOL   O30045064   4.460   6.191   0.008 -0.2289  0.1926  0.4014
   63MOL   C30145065   4.356   6.406   7.758 -0.2770  0.2357 -0.5527
   63MOL   C30245066   4.215   6.429   7.711  0.4882 -0.5545  0.0047
   63MOL   C30345067   4.445   6.514   7.666  0.4919  0.5428 -0.2256
   63MOL   H30445068   4.568   5.800   6.616  0.0020  0.6615 -1.3799
   63MOL   H30545069   4.499   5.954   6.651  4.3500  0.7695  0.5453
   63MOL   H30645070   4.399   5.811   6.662  0.4734 -1.6072  0.7658
   63MOL   H30745071   4.624   5.830   6.858 -0.0022  2.3646  0.4783
   63MOL   H30845072   4.493   5.720   6.861  0.6444  0.1862 -1.8966
   63MOL   H30945073   4.337   5.917   6.897 -0.9002 -1.6690  1.8395
   63MOL   H31045074   4.483   6.021   6.909 -0.5678  0.1601 -0.8628
   63MOL   H31145075   4.379   5.792   7.091 -0.1014  0.2326 -1.1750
   63MOL   H31245076   4.545   5.842   7.099  0.8015  1.0988 -0.9875
   63MOL   H31345077   4.432   6.091   7.118 -1.0250 -0.3386 -0.2199
   63MOL   H31445078   4.297   6.003   7.168 -0.3118 -0.7915 -1.6610
   63MOL   H31545079   4.562   6.030   7.292  0.1603 -0.1060  0.3357
   63MOL   H31645080   4.453   5.915   7.364 -0.1392  1.8096  1.8278
   63MOL   H31745081   4.276   6.102   7.377 -0.3964  1.5651 -1.9622
   63MOL   H31845082   4.393   6.215   7.323  0.2027  0.6723  1.3910
   63MOL   H31945083   4.545   6.142   7.520 -0.4458  1.1378 -1.0687
   63MOL   H32045084   4.415   6.033   7.572  0.8901 -0.5312  0.2794
   63MOL   H32145085   4.171   6.525   7.735 -2.5418 -1.5634 -1.1759
   63MOL   H32245086   4.142   6.358   7.751 -0.0074  1.0329  1.9468
   63MOL   H32345087   4.194   6.433   7.604 -1.1211 -0.4754  0.3123
   63MOL   H32445088   4.421   6.497   7.561 -1.8330 -1.8040  0.6193
   63MOL   H32545089   4.393   6.609   7.674  1.0325  0.6416  2.6880
   63MOL   C32645090   4.025   7.498   0.007  0.4491 -0.2587 -0.1266
   63MOL   C32745091   4.132   7.405   0.056  0.7438 -0.0530  1.4516
   63MOL   C32845092   4.080   7.273   0.108 -0.6606 -0.9429 -0.4351
   63MOL   C32945093   4.203   7.189   0.150 -0.1253  0.0715  0.1961
   63MOL   C33045094   4.203   7.052   0.076 -0.0778  0.2107 -0.2088
   63MOL   C33145095   4.288   6.946   0.138  0.0840  0.2949 -0.3976
   63MOL   C33245096   4.439   6.970   0.103 -0.0189  0.6213  0.3464
   63MOL   C33345097   4.527   6.850   0.136  0.3170 -0.5707  0.4566
   63MOL   O33445098   4.523   6.748   0.038  0.1456  0.1009 -0.4109
   63MOL   C33545099   4.605   6.637   0.048  0.1550 -0.9215  0.5411
   63MOL   O33645100   4.672   6.609   0.147 -0.3766  0.1037  0.9663
   63MOL   C33745101   4.597   6.551   7.695  0.5600 -0.0774 -0.1036
   63MOL   C33845102   4.681   6.424   7.704 -0.4957 -0.2412 -0.2781
   63MOL   C33945103   4.637   6.634   7.572 -0.3581  0.5797  0.0193
   63MOL   H34045104   3.971   7.542   0.090 -1.1809 -1.9517 -0.2569
   63MOL   H34145105   3.947   7.450   7.727 -0.6240 -0.6362  1.5424
   63MOL   H34245106   4.069   7.568   7.715  0.9362 -0.7347 -0.3061
   63MOL   H34345107   4.184   7.465   0.131 -0.8122  1.3386  1.4535
   63MOL   H34445108   4.218   7.389   7.771 -0.1706 -2.4679  0.8003
   63MOL   H34545109   4.019   7.229   0.029 -2.0168 -0.8584  0.5511
   63MOL   H34645110   4.013   7.282   0.193  0.5601 -0.5280  0.5113
   63MOL   H34745111   4.204   7.164   0.256  1.4866 -0.2803  0.0971
   63MOL   H34845112   4.301   7.230   0.126 -0.2277 -0.1834 -0.6703
   63MOL   H34945113   4.103   7.009   0.080 -0.6135  1.2631 -1.9719
   63MOL   H35045114   4.223   7.067   7.750  2.4474 -0.4350  0.1411
   63MOL   H35145115   4.268   6.937   0.245  0.5320 -0.9650 -0.4080
   63MOL   H35245116   4.260   6.851   0.093 -0.4968 -0.0439  0.6687
   63MOL   H35345117   4.476   7.056   0.157 -1.6015  1.3140  0.3558
   63MOL   H35445118   4.442   6.994   7.777  0.7728 -1.5312 -0.1633
   63MOL   H35545119   4.629   6.885   0.128  0.2627 -0.4857  0.0960
   63MOL   H35645120   4.512   6.804   0.233 -0.6213 -0.4823  0.3620
   63MOL   H35745121   4.705   6.362   7.618  1.1605  2.6920 -1.9833
   63MOL   H35845122   4.779   6.446   7.747 -0.5995  2.7459 -1.4854
   63MOL   H35945123   4.654   6.358   0.008 -0.7581 -1.5895 -1.4147
   63MOL   H36045124   4.607   6.579   7.483  0.2455 -0.3909  0.4008
   63MOL   H36145125   4.566   6.717   7.564 -2.3637 -1.0843  0.1028
   63MOL   C36245126   4.688   6.164   6.592  0.4553  0.2515  0.1441
   63MOL   C36345127   4.762   6.231   6.711  0.4964  0.1150  0.1169
   63MOL   C36445128   4.747   6.156   6.845 -1.0995 -0.2904  0.4677
   63MOL   C36545129   4.830   6.225   6.954 -0.1553  0.3454  0.4151
   63MOL   C36645130   4.824   6.147   7.079 -0.3087 -1.1722  1.1119
   63MOL   C36745131   4.899   6.207   7.200  0.6243 -0.5893  0.8142
   63MOL   C36845132   4.847   6.349   7.249  0.4724  0.1926 -0.2242
   63MOL   C36945133   4.881   6.373   7.396  0.0870  0.2431  1.2322
   63MOL   O37045134   4.821   6.495   7.430  0.6342 -0.5029 -0.1180
   63MOL   C37145135   4.878   6.585   7.516 -0.2525 -0.0609 -0.0016
   63MOL   O37245136   4.987   6.566   7.571 -0.3704  0.0045  0.3375
   63MOL   C37345137   4.780   6.695   7.548  0.2999 -0.4583  0.4667
   63MOL   C37445138   4.818   6.789   7.662  0.1813 -0.3518  0.7489
   63MOL   C37545139   4.754   6.787   7.414  0.7450  0.1302  1.4811
   63MOL   H37645140   4.732   6.067   6.571  0.0633  0.5121 -2.0745
   63MOL   H37745141   4.585   6.139   6.616  0.9524 -0.9842  0.9883
   63MOL   H37845142   4.688   6.222   6.499 -0.6581 -0.1061 -0.0846
   63MOL   H37945143   4.734   6.335   6.727  1.8544  0.1669  2.2536
   63MOL   H38045144   4.867   6.251   6.689  0.2580  0.0016 -1.2080
   63MOL   H38145145   4.779   6.052   6.840  0.1562  0.0652  1.0658
   63MOL   H38245146   4.640   6.156   6.868 -0.9542 -0.4170  1.1635
   63MOL   H38345147   4.784   6.323   6.965  2.6700  1.5780  1.4885
   63MOL   H38445148   4.934   6.237   6.926 -0.5260  0.0498 -1.1479
   63MOL   H38545149   4.722   6.125   7.111 -0.8876 -0.1913 -0.0078
   63MOL   H38645150   4.872   6.052   7.059 -2.7434 -1.7742 -2.3189
   63MOL   H38745151   5.005   6.204   7.175  0.8377  0.3622  1.5737
   63MOL   H38845152   4.888   6.125   7.271  3.3309  0.1379  2.1308
   63MOL   H38945153   4.738   6.350   7.243  0.2634 -0.1754  2.7722
   63MOL   H39045154   4.874   6.428   7.179  0.6925  0.3938  0.0868
   63MOL   H39145155   4.847   6.289   7.455  1.1829 -0.2562  1.1707
   63MOL   H39245156   4.988   6.380   7.418  0.0612 -0.6702  1.6501
   63MOL   H39345157   4.908   6.849   7.651 -0.6796  0.8083 -0.0892
   63MOL   H39445158   4.732   6.855   7.674 -0.2314 -0.6846 -0.3175
   63MOL   H39545159   4.835   6.735   7.756  0.4183 -0.9492  0.3658
   63MOL   H39645160   4.721   6.714   7.341  0.8728  0.6572  0.8871
   63MOL   H39745161   4.662   6.842   7.432 -0.4739 -1.6205  0.7151
   63MOL   C39845162   4.918   0.168   7.222  0.3178  0.3595 -0.3784
   63MOL   C39945163   5.059   0.123   7.181  0.4732  0.0153  0.3224
   63MOL   C40045164   5.076   7.749   7.158  0.4537  0.0536  0.2936
   63MOL   C40145165   5.072   7.662   7.289 -0.0138  0.1415  0.9167
   63MOL   C40245166   5.047   7.515   7.268 -0.4445 -0.9591  0.5474
   63MOL   C40345167   5.035   7.424   7.396 -0.4082  0.8405 -0.2672
   63MOL   C40445168   5.008   7.279   7.358 -0.8670 -0.5400 -0.0806
   63MOL   C40545169   4.987   7.203   7.493 -0.4572  0.6357  0.0536
   63MOL   O40645170   4.982   7.064   7.455  0.1061 -0.5967 -0.1023
   63MOL   C40745171   4.865   7.007   7.437  0.2221  1.1071  0.3253
   63MOL   O40845172   4.760   7.056   7.473 -0.3340 -0.2277  0.2980
   63MOL   C40945173   4.863   6.878   7.351  0.1546 -0.1406  0.6469
   63MOL   C41045174   4.997   6.811   7.344  0.7917  0.2986 -0.3718
   63MOL   C41145175   4.818   6.938   7.212  0.0408 -0.5731 -0.0950
   63MOL   H41245176   4.854   0.164   7.133  0.3491  0.8500 -0.4256
   63MOL   H41345177   4.912   0.269   7.262 -0.8916 -1.0541  3.1447
   63MOL   H41445178   4.876   0.107   7.301  1.0547  1.8571  1.2125
   63MOL   H41545179   5.118   0.145   7.269  0.3966 -0.5548  0.5161
   63MOL   H41645180   5.106   0.182   7.102  0.2253  0.4654  0.5094
   63MOL   H41745181   4.995   7.721   7.092  0.5693 -2.3092  1.1116
   63MOL   H41845182   5.172   7.740   7.107 -0.1515 -2.2235 -0.5273
   63MOL   H41945183   5.007   7.708   7.363 -0.7961 -1.4725  1.2613
   63MOL   H42045184   5.163   7.680   7.346  1.4984  3.0157 -2.2846
   63MOL   H42145185   4.953   7.513   7.213 -0.6262 -3.8177  0.9041
   63MOL   H42245186   5.128   7.480   7.205  0.4349  0.2267  0.9969
   63MOL   H42345187   4.959   7.452   7.469  0.7485 -1.8627  2.0907
   63MOL   H42445188   5.123   7.422   7.460 -2.8041 -0.8757  3.1741
   63MOL   H42545189   4.909   7.277   7.312 -1.0166  1.7322  0.0924
   63MOL   H42645190   5.088   7.231   7.302 -0.8019  1.5692 -1.8255
   63MOL   H42745191   5.076   7.205   7.555  0.6058  2.6604 -1.4882
   63MOL   H42845192   4.911   7.255   7.551  0.3998  0.6731  1.1468
   63MOL   H42945193   5.053   6.810   7.438 -2.1792 -2.3537  1.4284
   63MOL   H43045194   5.061   6.881   7.289  1.2020  0.2806  0.0800
   63MOL   H43145195   5.000   6.713   7.296 -2.3223 -0.1186  0.1848
   63MOL   H43245196   4.887   7.019   7.189 -0.8654  0.6001  1.2036
   63MOL   H43345197   4.725   6.990   7.238  1.0970  1.0722  0.4962
   63MOL   C43445198   4.116   5.984   6.507  0.1073  0.2131  0.0623
   63MOL   C43545199   4.124   6.096   6.624 -0.4331  0.2879  0.0451
   63MOL   C43645200   4.244   6.185   6.614  0.9975  0.5332 -0.8621
   63MOL   C43745201   4.256   6.271   6.736 -0.1155 -0.2541  0.4090
   63MOL   C43845202   4.385   6.349   6.746 -0.2503 -0.2112  0.3989
   63MOL   C43945203   4.392   6.438   6.870  0.1454 -0.3629 -0.1588
   63MOL   C44045204   4.522   6.515   6.881  0.3241  0.0730 -0.2257
   63MOL   C44145205   4.516   6.613   6.990  0.2147  0.1035 -0.8439
   63MOL   O44245206   4.641   6.669   7.021 -0.1450  0.5422 -0.0618
   63MOL   C44345207   4.650   6.782   7.100 -0.3551  0.1501  0.0562
   63MOL   O44445208   4.551   6.829   7.165  0.6002  0.4905  0.0028
   63MOL   C44545209   4.785   6.855   7.082  0.0973 -0.9138  0.0626
   63MOL   C44645210   4.893   6.740   7.065 -0.2257 -0.5540 -0.0315
   63MOL   C44745211   4.799   6.933   6.945 -0.0963 -0.5128 -0.0220
   63MOL   H44845212   4.113   6.032   6.409  0.7839 -1.4731 -0.7996
   63MOL   H44945213   4.026   5.929   6.533  0.4621 -0.1024  0.6304
   63MOL   H45045214   4.202   5.918   6.517 -1.6263 -2.0687  0.1291
   63MOL   H45145215   4.145   6.039   6.715 -2.6516  2.3088  1.8657
   63MOL   H45245216   4.033   6.154   6.636 -2.2839 -1.8171 -3.0615
   63MOL   H45345217   4.222   6.239   6.522  0.1671 -0.7963 -1.4433
   63MOL   H45445218   4.341   6.136   6.602  0.4411 -0.1975 -2.4959
   63MOL   H45545219   4.247   6.204   6.821 -2.1920 -0.0801  0.3521
   63MOL   H45645220   4.165   6.327   6.760  0.2284  0.6358 -0.3335
   63MOL   H45745221   4.475   6.288   6.731  1.0063  1.4124  1.2374
   63MOL   H45845222   4.391   6.420   6.663  0.0966  0.4419  0.9796
   63MOL   H45945223   4.380   6.376   6.959  0.5028  1.6764  1.3654
   63MOL   H46045224   4.313   6.512   6.878  1.1267  0.5217  1.8818
   63MOL   H46145225   4.601   6.442   6.896  0.7440  0.5405 -0.1376
   63MOL   H46245226   4.541   6.576   6.793  5.6323  2.4174  2.2796
   63MOL   H46345227   4.472   6.572   7.080  4.4457  0.5099  1.5404
   63MOL   H46445228   4.441   6.684   6.957 -1.4997  0.1087  2.8933
   63MOL   H46545229   4.992   6.783   7.080 -0.1984 -0.7383  0.3271
   63MOL   H46645230   4.877   6.661   7.140 -1.6222 -0.2988 -0.0562
   63MOL   H46745231   4.899   6.717   6.959  2.1738 -1.1495  0.1877
   63MOL   H46845232   4.902   6.969   6.940 -0.2394  0.1323  1.4733
   63MOL   H46945233   4.781   6.865   6.862 -2.9914 -2.2287  1.9368
   63MOL   C47045234   3.749   0.026   6.991  0.2174  0.1581  0.3039
   63MOL   C47145235   3.771   7.655   6.964 -0.4943  0.1348 -0.2964
   63MOL   C47245236   3.916   7.625   6.946 -0.1984  0.1398 -0.8241
   63MOL   C47345237   3.942   7.480   6.905 -0.0855 -0.6783 -0.0448
   63MOL   C47445238   4.099   7.461   6.901  0.1622  0.3441 -0.7981
   63MOL   C47545239   4.141   7.313   6.889 -0.1509  0.2852 -0.1628
   63MOL   C47645240   4.290   7.289   6.903  0.1461 -0.1175 -0.9387
   63MOL   C47745241   4.341   7.146   6.876  0.3701  0.6311  0.1204
   63MOL   O47845242   4.487   7.143   6.886 -0.4802 -0.0266  0.0713
   63MOL   C47945243   4.556   7.031   6.873  1.1207  0.3703 -0.1914
   63MOL   O48045244   4.505   6.919   6.842 -0.9745  0.0864 -0.1673
   63MOL   C48145245   4.705   7.060   6.912  0.2266 -0.5545  0.3997
   63MOL   C48245246   4.706   7.166   7.029  0.2545 -0.5280 -0.2671
   63MOL   C48345247   4.771   7.138   6.790 -0.4195 -0.9913 -0.1897
   63MOL   H48445248   3.792   0.051   7.088 -0.0818  0.9344  0.2343
   63MOL   H48545249   3.645   0.059   6.995  0.2295  0.3198 -0.6997
   63MOL   H48645250   3.799   0.087   6.916 -0.1619 -1.8934 -1.6602
   63MOL   H48745251   3.718   7.601   7.043 -0.1234  1.5838  0.9558
   63MOL   H48845252   3.721   7.626   6.871  0.2620 -0.5941 -0.4821
   63MOL   H48945253   3.963   7.682   6.865 -1.0448  1.0025 -0.7116
   63MOL   H49045254   3.974   7.640   7.037 -2.7432 -1.0442  1.0193
   63MOL   H49145255   3.896   7.420   6.983 -1.0607  0.9617  0.6576
   63MOL   H49245256   3.896   7.459   6.808  0.3808  1.2529 -0.6992
   63MOL   H49345257   4.138   7.517   6.816  0.4220  0.5342 -0.5537
   63MOL   H49445258   4.148   7.506   6.987 -1.4582  0.3724  0.1256
   63MOL   H49545259   4.075   7.258   6.956 -0.8927  1.6259  0.2263
   63MOL   H49645260   4.117   7.278   6.788  0.0976 -1.9728  0.5324
   63MOL   H49745261   4.344   7.348   6.829  1.2439 -1.3630 -1.1559
   63MOL   H49845262   4.321   7.321   7.002 -0.9233 -1.8404 -0.0258
   63MOL   H49945263   4.314   7.113   6.775  2.1505  1.4401 -0.6309
   63MOL   H50045264   4.306   7.071   6.947 -0.2957  0.3575 -0.4869
   63MOL   H50145265   4.648   7.257   7.014 -1.1735 -1.1769  1.1469
   63MOL   H50245266   4.810   7.179   7.062 -0.0648  2.3650 -0.2524
   63MOL   H50345267   4.650   7.123   7.112  2.1547 -1.3281  0.6484
   63MOL   H50445268   4.748   7.244   6.797  1.9063 -0.3853 -1.1958
   63MOL   H50545269   4.880   7.133   6.798 -0.3684 -2.3829 -1.4173
   63MOL   C50645270   4.488   0.417   6.349  0.1258 -0.2247 -0.4353
   63MOL   C50745271   4.484   0.267   6.373 -0.5147 -0.1564 -0.0960
   63MOL   C50845272   4.341   0.224   6.410  0.3373  1.0961 -0.0744
   63MOL   C50945273   4.321   0.069   6.372  0.3571  0.0937  0.0353
   63MOL   C51045274   4.410   7.753   6.462 -0.0644 -0.5988  0.1786
   63MOL   C51145275   4.401   7.602   6.455  0.3890 -0.4030 -0.6390
   63MOL   C51245276   4.522   7.519   6.529  0.1233  0.1002  0.0070
   63MOL   C51345277   4.496   7.371   6.519  0.4969  0.2699 -0.2050
   63MOL   O51445278   4.603   7.299   6.568  0.3192 -0.1661 -0.8280
   63MOL   C51545279   4.605   7.168   6.591 -0.2510  0.4153 -0.0886
   63MOL   O51645280   4.498   7.101   6.582 -0.2598 -0.2842 -0.0722
   63MOL   C51745281   4.746   7.119   6.632 -0.5115  0.0098  0.2555
   63MOL   C51845282   4.866   7.204   6.571  0.2792 -0.0323  0.0275
   63MOL   C51945283   4.763   6.960   6.597 -0.0275 -0.0941 -0.1659
   63MOL   H52045284   4.429   0.434   6.260  1.9816 -0.7068 -1.7959
   63MOL   H52145285   4.590   0.448   6.324 -0.0669 -0.5990 -1.7423
   63MOL   H52245286   4.446   0.476   6.430  0.6456 -1.6749  0.9397
   63MOL   H52345287   4.549   0.244   6.457 -0.8931 -2.0447 -0.2902
   63MOL   H52445288   4.522   0.206   6.290  3.0667  1.3024  0.4000
   63MOL   H52545289   4.319   0.242   6.515  1.4645  2.4642 -0.0501
   63MOL   H52645290   4.276   0.288   6.349  0.8520  3.2205  1.5436
   63MOL   H52745291   4.215   0.045   6.367  0.3528  0.0070  0.5554
   63MOL   H52845292   4.345   0.056   6.266 -1.4616  1.6571 -0.6110
   63MOL   H52945293   4.513   0.007   6.457  0.5224 -1.5756  3.9858
   63MOL   H53045294   4.373   0.001   6.562 -0.5244  1.7295 -0.5926
   63MOL   H53145295   4.404   7.585   6.347  0.8515  1.1326 -0.8819
   63MOL   H53245296   4.306   7.570   6.497  0.4943  0.1886  0.0571
   63MOL   H53345297   4.532   7.538   6.636 -0.0364 -1.3588  0.2861
   63MOL   H53445298   4.619   7.542   6.484  0.5322  1.4006  1.4690
   63MOL   H53545299   4.473   7.343   6.416  0.7927  1.0412 -0.4839
   63MOL   H53645300   4.404   7.346   6.573  0.0850 -1.6651 -1.7381
   63MOL   H53745301   4.965   7.169   6.600  1.1283  1.6357 -0.7745
   63MOL   H53845302   4.861   7.309   6.601  1.8067  0.5488 -1.6463
   63MOL   H53945303   4.857   7.211   6.462 -0.1875 -1.8854 -0.0637
   63MOL   H54045304   4.848   6.929   6.658 -0.5961 -2.1886 -0.3808
   63MOL   H54145305   4.673   6.915   6.640  1.7303 -2.8717  0.7469
   63MOL   C54245306   5.837   6.693   6.752  0.2038 -0.3553  0.0515
   63MOL   C54345307   5.742   6.775   6.669  0.2468 -0.2040  0.4547
   63MOL   C54445308   5.602   6.734   6.684 -0.1303  0.6276  0.7578
   63MOL   C54545309   5.497   6.824   6.635  0.0213  0.7060 -1.0113
   63MOL   C54645310   5.497   6.827   6.487 -0.0392  0.5935  0.4409
   63MOL   C54745311   5.388   6.913   6.423 -0.4229 -0.2033  0.5976
   63MOL   C54845312   5.243   6.862   6.450  0.0086 -0.0160  0.3608
   63MOL   C54945313   5.145   6.973   6.419 -0.4269  0.4282  0.1573
   63MOL   O55045314   5.018   6.925   6.452  0.4637 -0.5196 -0.2438
   63MOL   C55145315   4.906   6.954   6.378 -0.8873 -0.3847 -0.3786
   63MOL   O55245316   4.900   7.012   6.269  0.5625 -0.2928 -0.2537
   63MOL   C55345317   4.784   6.899   6.456  0.7827  0.3482 -0.3375
   63MOL   C55445318   4.650   6.920   6.370  0.3990  0.2444  0.9987
   63MOL   C55545319   4.797   6.742   6.491 -0.3661 -0.3863  0.3364
   63MOL   H55645320   5.794   6.636   6.834 -1.8443  0.9280 -0.0932
   63MOL   H55745321   5.915   6.754   6.798 -0.4727  0.7477 -0.2380
   63MOL   H55845322   5.884   6.617   6.690  1.4954 -0.4475  1.1364
   63MOL   H55945323   5.745   6.880   6.698  1.6879 -0.6781  2.1169
   63MOL   H56045324   5.767   6.779   6.563  0.1559 -0.9087  0.4029
   63MOL   H56145325   5.595   6.714   6.791 -3.5976 -2.3746  0.0848
   63MOL   H56245326   5.577   6.636   6.644 -1.9372  0.7573  1.5159
   63MOL   H56345327   5.396   6.798   6.667 -0.3374 -0.0311 -2.7424
   63MOL   H56445328   5.515   6.929   6.660  0.0549  0.1739  1.3048
   63MOL   H56545329   5.496   6.727   6.446  3.1309  0.0314  1.5969
   63MOL   H56645330   5.594   6.860   6.450 -0.1006 -0.2850 -0.5080
   63MOL   H56745331   5.402   7.016   6.457 -0.9919 -0.2482  0.9709
   63MOL   H56845332   5.397   6.917   6.315  2.2106  0.8501  0.8290
   63MOL   H56945333   5.229   6.759   6.419  2.3315 -1.5344  4.1381
   63MOL   H57045334   5.242   6.840   6.556  0.5907  1.6047  0.7261
   63MOL   H57145335   5.149   7.010   6.316 -0.8187  1.2690  0.4464
   63MOL   H57245336   5.149   7.055   6.490 -1.3662 -1.5493  2.5338
   63MOL   H57345337   4.622   7.022   6.345 -0.6777 -0.2724  0.0861
   63MOL   H57445338   4.565   6.865   6.408 -0.6556  1.2991  0.1937
   63MOL   H57545339   4.651   6.879   6.269  0.8199  1.8638  0.3226
   63MOL   H57645340   4.715   6.731   6.561  0.7019  0.9122  1.8386
   63MOL   H57745341   4.882   6.734   6.559 -0.0171 -2.1782 -0.2893
   63MOL   C57845342   4.013   6.712   7.002  0.5903  0.3764  0.3200
   63MOL   C57945343   4.118   6.752   6.900 -0.4597 -0.6700  0.2527
   63MOL   C58045344   4.094   6.691   6.765  0.4967 -0.9146  0.4532
   63MOL   C58145345   4.204   6.713   6.659 -0.8186 -0.9818  0.1533
   63MOL   C58245346   4.201   6.627   6.532 -0.1284 -0.1208  1.0439
   63MOL   C58345347   4.322   6.655   6.445 -0.3053  0.3143  0.0838
   63MOL   C58445348   4.344   6.564   6.327 -0.2717  0.9271 -0.4257
   63MOL   C58545349   4.465   6.598   6.246  0.1922 -0.2796  0.5613
   63MOL   O58645350   4.581   6.584   6.331 -1.0166 -0.6355 -0.3121
   63MOL   C58745351   4.706   6.621   6.277 -0.3848 -0.2714 -0.1502
   63MOL   O58845352   4.722   6.640   6.156 -0.1087 -0.3754 -0.1948
   63MOL   C58945353   4.817   6.619   6.383  0.5687  0.0571  0.2533
   63MOL   C59045354   4.815   6.486   6.469 -0.1905 -0.0860  0.1001
   63MOL   C59145355   4.949   6.644   6.313  0.1117 -0.3511  0.0400
   63MOL   H59245356   4.013   6.605   7.019  1.9395  0.4062  0.5299
   63MOL   H59345357   3.916   6.736   6.959  0.3723  0.8655  1.0720
   63MOL   H59445358   4.047   6.754   7.097 -1.2954 -1.5152  1.8826
   63MOL   H59545359   4.217   6.717   6.929 -0.4132 -1.6644 -1.0362
   63MOL   H59645360   4.130   6.858   6.875 -0.9942 -0.7306 -0.2636
   63MOL   H59745361   3.991   6.713   6.740 -0.0818 -2.4523  1.4170
   63MOL   H59845362   4.105   6.584   6.786 -0.4002 -1.2707 -0.7896
   63MOL   H59945363   4.301   6.703   6.708 -0.9198  0.2416  0.6292
   63MOL   H60045364   4.216   6.819   6.638 -0.7993 -1.0248 -0.0577
   63MOL   H60145365   4.110   6.654   6.478  0.8387  1.3434  0.0972
   63MOL   H60245366   4.192   6.522   6.557  2.0957 -0.6984 -0.4929
   63MOL   H60345367   4.419   6.642   6.494 -0.1028 -1.5678 -0.7718
   63MOL   H60445368   4.319   6.758   6.407 -0.1017  0.1628 -0.3446
   63MOL   H60545369   4.257   6.553   6.263  0.0334  0.0019 -0.6996
   63MOL   H60645370   4.361   6.463   6.366  0.9733  1.0224 -0.6767
   63MOL   H60745371   4.471   6.523   6.167  1.3848 -1.4856  1.7678
   63MOL   H60845372   4.444   6.693   6.198 -0.3058 -0.4785  0.3903
   63MOL   H60945373   4.853   6.391   6.430  1.5297  0.2420  0.9258
   63MOL   H61045374   4.876   6.498   6.558 -0.6218 -1.4531  0.5948
   63MOL   H61145375   4.716   6.466   6.509  0.2055  0.3895  1.3272
   63MOL   H61245376   5.009   6.707   6.379 -1.0595  0.4285  0.3849
   63MOL   H61345377   4.930   6.715   6.233  3.1726 -1.3993 -1.6848
   63MOL   C61445378   5.394   5.867   6.908  0.0211 -0.4248 -0.2258
   63MOL   C61545379   5.419   6.016   6.873 -0.1334  0.3554 -0.4108
   63MOL   C61645380   5.320   6.101   6.958  0.1094  0.7561  0.4280
   63MOL   C61745381   5.334   6.255   6.936  0.0672 -0.1663  0.2383
   63MOL   C61845382   5.287   6.308   6.803 -0.7692  0.1208  0.2875
   63MOL   C61945383   5.265   6.458   6.811  0.9911 -0.4853 -0.0575
   63MOL   C62045384   5.194   6.511   6.687  0.1708  0.8518 -0.2940
   63MOL   C62145385   5.268   6.491   6.556 -0.2914 -1.1453 -0.2077
   63MOL   O62245386   5.206   6.541   6.439  0.2393  0.0530  0.3039
   63MOL   C62345387   5.123   6.457   6.364 -0.7190 -0.2357  0.1216
   63MOL   O62445388   5.123   6.334   6.381 -0.4209 -0.2337  0.0003
   63MOL   C62545389   5.042   6.533   6.246 -1.5347  0.1242  0.0332
   63MOL   C62645390   4.960   6.434   6.161  0.0620  0.2492  0.0635
   63MOL   C62745391   5.138   6.612   6.146 -0.9107  0.3572 -0.1498
   63MOL   H62845392   5.474   5.815   6.855  0.1590 -0.2506 -0.1923
   63MOL   H62945393   5.301   5.832   6.863 -0.1799 -0.8532  0.5119
   63MOL   H63045394   5.397   5.863   7.017 -1.1086  2.1196 -0.0663
   63MOL   H63145395   5.517   6.057   6.896 -0.2217  0.8782 -0.9340
   63MOL   H63245396   5.405   6.035   6.766  1.8137 -0.0289 -0.7492
   63MOL   H63345397   5.332   6.095   7.066 -0.0309 -0.4849  0.3895
   63MOL   H63445398   5.218   6.068   6.940  0.2997  0.0406  0.6241
   63MOL   H63545399   5.440   6.278   6.950 -0.6005  2.4405  1.4084
   63MOL   H63645400   5.286   6.311   7.017  0.9467  1.2157 -0.1701
   63MOL   H63745401   5.343   6.281   6.713 -0.1170 -0.5999  0.8998
   63MOL   H63845402   5.184   6.273   6.802 -0.6260 -0.3078 -0.1315
   63MOL   H63945403   5.202   6.489   6.895 -0.4859 -0.4114 -1.1631
   63MOL   H64045404   5.354   6.517   6.830  0.4610  0.6861 -1.1998
   63MOL   H64145405   5.187   6.618   6.705 -0.0943  1.0128 -1.2944
   63MOL   H64245406   5.092   6.472   6.687  0.8538 -1.0171 -0.8716
   63MOL   H64345407   5.371   6.527   6.560 -0.6742  0.1895 -1.8253
   63MOL   H64445408   5.287   6.385   6.536 -1.7916 -1.4644  0.0017
   63MOL   H64545409   4.878   6.394   6.222 -0.0225  0.8509  0.3462
   63MOL   H64645410   5.027   6.358   6.121 -0.7938 -0.1731 -0.5821
   63MOL   H64745411   4.906   6.480   6.078  0.2352 -0.0412 -0.2116
   63MOL   H64845412   5.165   6.699   6.206  1.4168 -1.0137  0.8443
   63MOL   H64945413   5.078   6.661   6.069 -1.8009  0.0140  0.3287
   63MOL   C65045414   4.594   6.673   5.231  0.2984 -0.6516  0.3962
   63MOL   C65145415   4.642   6.785   5.324  0.0609  1.1975  0.2936
   63MOL   C65245416   4.779   6.837   5.298 -0.4516  0.2935 -0.5291
   63MOL   C65345417   4.880   6.743   5.361  0.8272  0.2274 -0.0065
   63MOL   C65445418   4.882   6.715   5.514 -0.5699 -0.6591 -0.2204
   63MOL   C65545419   5.011   6.640   5.545 -0.1754 -0.0753  0.8854
   63MOL   C65645420   5.042   6.629   5.692  0.2778  0.2794  0.5155
   63MOL   C65745421   5.140   6.522   5.731  0.0846 -0.0643  0.2471
   63MOL   O65845422   5.180   6.563   5.859 -0.1121 -0.4277 -0.2698
   63MOL   C65945423   5.243   6.479   5.944 -0.5785  0.0552 -0.6428
   63MOL   O66045424   5.279   6.367   5.912  0.3049  0.1933  0.4052
   63MOL   C66145425   5.274   6.546   6.082 -0.1470 -0.4380 -0.4654
   63MOL   C66245426   5.358   6.447   6.169  0.5285  0.1167  0.1820
   63MOL   C66345427   5.373   6.668   6.053  0.2663 -0.2026  0.8602
   63MOL   H66445428   4.561   6.724   5.140  1.5810 -0.6210 -0.0618
   63MOL   H66545429   4.501   6.627   5.264 -0.0559  1.3827  2.3226
   63MOL   H66645430   4.653   6.582   5.218 -0.9427 -1.5868  1.2121
   63MOL   H66745431   4.624   6.756   5.427 -1.8875 -0.2466 -0.4141
   63MOL   H66845432   4.576   6.871   5.318  0.3340  1.3229 -1.1605
   63MOL   H66945433   4.799   6.937   5.337  0.9827  0.4927 -1.7126
   63MOL   H67045434   4.801   6.846   5.191  1.1838 -0.6796 -0.2821
   63MOL   H67145435   4.975   6.783   5.326  0.3496  0.4778 -1.0539
   63MOL   H67245436   4.869   6.655   5.297  1.5613 -0.2089  0.4580
   63MOL   H67345437   4.788   6.664   5.535 -0.9155 -0.4565 -1.2650
   63MOL   H67445438   4.884   6.810   5.567 -2.1290 -0.7325  0.0087
   63MOL   H67545439   4.991   6.540   5.506 -1.1572  0.7332 -0.7077
   63MOL   H67645440   5.096   6.677   5.488 -0.3662 -0.7187  0.1657
   63MOL   H67745441   4.953   6.598   5.748 -0.9034 -1.0970 -2.0523
   63MOL   H67845442   5.080   6.726   5.727  2.0016  0.3600 -1.5189
   63MOL   H67945443   5.228   6.529   5.668 -0.9743  1.7655 -1.0822
   63MOL   H68045444   5.116   6.415   5.732 -0.9683  0.0909 -2.7322
   63MOL   H68145445   5.300   6.355   6.185  0.7352 -0.4451 -2.1777
   63MOL   H68245446   5.384   6.487   6.267  0.2596 -0.7050  0.5972
   63MOL   H68345447   5.445   6.406   6.118 -0.8880 -1.0741 -1.3489
   63MOL   H68445448   5.325   6.736   5.983  0.9622 -0.7443 -0.1577
   63MOL   H68545449   5.386   6.718   6.149  1.1465  0.7237  0.2719
   63MOL   C68645450   5.904   6.229   5.423  0.0459  0.0764 -0.2929
   63MOL   C68745451   5.937   6.181   5.562 -0.0035 -0.0832  0.6571
   63MOL   C68845452   5.950   6.297   5.659 -0.1556  0.1271  0.0930
   63MOL   C68945453   6.053   6.268   5.764 -0.5624  0.3544  0.0752
   63MOL   C69045454   6.076   6.382   5.864  0.9793 -0.3791 -0.5663
   63MOL   C69145455   5.968   6.375   5.973  0.1557  0.3507  0.3672
   63MOL   C69245456   5.979   6.494   6.077  0.7626 -0.1513  0.5974
   63MOL   C69345457   5.849   6.521   6.157 -0.1028  0.3914  0.2333
   63MOL   O69445458   5.742   6.562   6.065  0.2650  0.7157  0.0684
   63MOL   C69545459   5.628   6.606   6.109 -0.0728  0.0017 -0.3665
   63MOL   O69645460   5.598   6.620   6.230  0.6618 -0.3665  0.1910
   63MOL   C69745461   5.529   6.649   5.995  0.2554  0.7083  0.1578
   63MOL   C69845462   5.569   6.791   5.960  0.5730 -0.3263 -0.1180
   63MOL   C69945463   5.539   6.562   5.872 -0.2604  0.4477 -0.0648
   63MOL   H70045464   5.927   6.149   5.353  2.2429 -0.8478  1.4343
   63MOL   H70145465   5.963   6.316   5.394  2.0473 -0.5052  1.8886
   63MOL   H70245466   5.799   6.255   5.408 -0.4448 -1.9829 -0.4814
   63MOL   H70345467   6.026   6.118   5.558  1.5938  2.0541  1.9286
   63MOL   H70445468   5.854   6.118   5.594  0.9661 -1.8885 -0.2547
   63MOL   H70545469   5.850   6.321   5.695  0.1452 -0.4992  1.3852
   63MOL   H70645470   5.983   6.386   5.607 -1.7084  1.1555  0.8276
   63MOL   H70745471   6.147   6.233   5.721  0.0231  1.5845  0.3376
   63MOL   H70845472   6.020   6.183   5.823  1.2749 -0.2021  0.3187
   63MOL   H70945473   6.083   6.476   5.809  1.8773  0.4022  0.8542
   63MOL   H71045474   6.172   6.367   5.914  0.4824  0.6348  0.7209
   63MOL   H71145475   5.871   6.366   5.924  0.2993 -0.3976  0.2110
   63MOL   H71245476   5.979   6.279   6.024  0.1718  0.0151 -0.2630
   63MOL   H71345477   6.056   6.483   6.153  0.4593  0.3107  0.9695
   63MOL   H71445478   5.998   6.574   6.005 -2.8538  0.6209  0.3636
   63MOL   H71545479   5.863   6.605   6.226  0.4487 -1.4769  2.4501
   63MOL   H71645480   5.827   6.433   6.216  0.6129  0.9876  1.4032
   63MOL   H71745481   5.524   6.842   5.875 -0.1288  0.5280  0.7483
   63MOL   H71845482   5.536   6.848   6.047  1.2152 -0.2367  0.0700
   63MOL   H71945483   5.677   6.800   5.952  0.6117  0.4025  1.0955
   63MOL   H72045484   5.538   6.454   5.886  1.0113 -0.1825 -4.1658
   63MOL   H72145485   5.634   6.593   5.828 -0.5747 -0.9173 -1.7708
   63MOL   H72245486   5.461   6.590   5.801 -1.1697 -2.0049 -0.0979
   64MOL     C145487   0.453   5.686   0.482 -0.2312 -0.1906 -0.5475
   64MOL     C245488   0.319   5.651   0.405  0.0127 -0.4106  0.4673
   64MOL     C345489   0.199   5.664   0.492 -0.8194 -0.5696 -0.0639
   64MOL     C445490   0.068   5.594   0.439 -0.2605  0.1301  0.3821
   64MOL     C545491   7.721   5.640   0.510  0.4101  0.7495  1.0810
   64MOL     C645492   7.698   5.591   0.650  0.2024 -0.1497 -0.2315
   64MOL     C745493   7.563   5.641   0.707  0.5839 -0.2573 -0.7646
   64MOL     C845494   7.529   5.787   0.684  0.3647  0.0377  0.1272
   64MOL     O945495   7.627   5.868   0.736  0.2339  0.1848 -0.5727
   64MOL    C1045496   7.617   5.999   0.731  0.5093 -0.1861  0.4833
   64MOL    O1145497   7.514   6.068   0.707 -0.2008  0.5715 -0.6827
   64MOL    C1245498   7.745   6.066   0.768  0.0514 -0.2853 -0.0230
   64MOL    C1345499   0.020   6.006   0.907  0.0119 -0.5238 -0.1013
   64MOL    C1445500   0.073   6.049   0.657  0.2430 -0.5072 -0.2791
   64MOL    H1545501   0.489   5.608   0.550  1.7255  0.5601 -0.6943
   64MOL    H1645502   0.436   5.777   0.540 -1.4487 -1.4563  1.1601
   64MOL    H1745503   0.531   5.718   0.413 -0.1694  1.0937  0.1064
   64MOL    H1845504   0.323   5.550   0.363  0.4620 -0.3909  0.4516
   64MOL    H1945505   0.302   5.716   0.320 -1.2459  0.2002  1.1821
   64MOL    H2045506   0.227   5.639   0.594 -0.9036  2.6750  0.8179
   64MOL    H2145507   0.187   5.772   0.482  2.3939 -0.0059  1.5488
   64MOL    H2245508   0.062   5.588   0.331  0.2860 -1.6364  0.4351
   64MOL    H2345509   0.081   5.489   0.463  2.8425  0.2910 -0.4528
   64MOL    H2445510   7.635   5.624   0.445  1.0687  1.1612  0.0934
   64MOL    H2545511   7.730   5.749   0.512 -1.5870  0.9258  2.2705
   64MOL    H2645512   0.006   5.605   0.714  1.2424 -4.0023 -0.6927
   64MOL    H2745513   7.702   5.482   0.651 -0.5644 -0.2160 -2.0633
   64MOL    H2845514   7.564   5.611   0.812 -0.7743 -1.6793 -1.1329
   64MOL    H2945515   7.486   5.590   0.649 -0.5282  2.3024 -1.6170
   64MOL    H3045516   7.433   5.800   0.733  0.3094 -2.4209  0.7711
   64MOL    H3145517   7.494   5.815   0.585 -1.2325 -1.9728  0.0915
   64MOL    H3245518   7.737   6.027   0.994  1.1167  0.9505  0.3610
   64MOL    H3345519   0.058   5.904   0.915 -1.2090 -0.9299  0.7208
   64MOL    H3445520   0.114   6.057   0.932 -0.1712 -0.6922  0.9938
   64MOL    H3545521   0.046   5.965   0.593  0.7461  0.0186 -1.1879
   64MOL    H3645522   0.165   6.012   0.704 -0.6889 -1.0219  1.1640
   64MOL    H3745523   7.727   6.173   0.775 -2.4814 -0.6592 -0.4729
   64MOL    C3845524   7.698   7.007   0.281  1.0143 -0.0729 -0.1094
   64MOL    C3945525   7.633   6.997   0.421  0.2368 -0.1249  0.2356
   64MOL    C4045526   7.587   6.855   0.438 -0.2151 -0.0932 -0.0484
   64MOL    C4145527   7.567   6.811   0.581 -0.5337  0.4548 -0.5680
   64MOL    C4245528   7.494   6.675   0.601  0.3510 -0.9850  0.5576
   64MOL    C4345529   7.573   6.558   0.555 -0.2983  0.2131  0.6859
   64MOL    C4445530   7.504   6.418   0.573  0.4637 -0.1899  0.4863
   64MOL    C4545531   7.559   6.315   0.486  0.0202 -0.3067  0.1837
   64MOL    O4645532   7.681   6.277   0.539  0.0938  0.1971  0.1434
   64MOL    C4745533   7.767   6.203   0.476 -0.3446  0.8275  0.6291
   64MOL    O4845534   7.751   6.167   0.359 -0.3443  0.1522 -0.5288
   64MOL    C4945535   0.115   6.167   0.559 -0.2353  0.3242 -0.0866
   64MOL    C5045536   0.227   6.114   0.472  0.0928  0.5330  0.0804
   64MOL    C5145537   0.146   6.290   0.655  0.4228  0.0795 -0.4492
   64MOL    H5245538   7.626   6.979   0.204  0.2620 -0.7333  0.8285
   64MOL    H5345539   0.005   6.940   0.280  1.4469  0.4825  0.1920
   64MOL    H5445540   7.726   7.111   0.268 -0.7990  0.4295 -0.1328
   64MOL    H5545541   7.567   7.081   0.442  1.6335  0.9915  0.1942
   64MOL    H5645542   7.712   7.005   0.496 -1.6433  3.4544  1.9610
   64MOL    H5745543   7.500   6.836   0.375 -0.4195 -1.0458  0.5039
   64MOL    H5845544   7.670   6.796   0.398  0.3306  2.3077 -2.6328
   64MOL    H5945545   7.509   6.886   0.635  1.8489 -0.8029  4.0404
   64MOL    H6045546   7.661   6.811   0.636 -0.3839  0.7828 -0.8250
   64MOL    H6145547   7.464   6.668   0.705 -0.7238 -0.2783  0.3018
   64MOL    H6245548   7.395   6.681   0.554  0.9210  1.4616 -0.3678
   64MOL    H6345549   7.610   6.578   0.454 -0.6634 -1.8434  0.1190
   64MOL    H6445550   7.664   6.548   0.614  1.7123 -1.9958 -2.6066
   64MOL    H6545551   7.406   6.446   0.534  1.9179  1.8366 -1.8181
   64MOL    H6645552   7.482   6.390   0.676  0.3885  1.1094  0.8293
   64MOL    H6745553   7.576   6.344   0.382  0.3311  1.4551  0.7137
   64MOL    H6845554   7.487   6.233   0.492 -0.6539  0.2010 -0.7757
   64MOL    H6945555   0.299   6.056   0.530  0.6615  1.1230 -0.0286
   64MOL    H7045556   0.192   6.037   0.404 -1.0052  1.1653 -0.0796
   64MOL    H7145557   0.287   6.183   0.412  1.5650 -1.1535 -0.4283
   64MOL    H7245558   0.205   6.251   0.737 -1.5394 -0.8174  0.5767
   64MOL    H7345559   0.060   6.326   0.711  0.5435  0.4344 -0.4924
   64MOL    C7445560   1.355   6.712   0.415  0.0069  0.2697  0.5563
   64MOL    C7545561   1.243   6.652   0.324  0.8138 -0.7660 -0.4397
   64MOL    C7645562   1.097   6.678   0.372 -0.5648 -0.5001  0.0020
   64MOL    C7745563   0.999   6.605   0.278  0.0647 -0.0958  0.3965
   64MOL    C7845564   0.857   6.597   0.332  0.9217 -0.6913 -0.4118
   64MOL    C7945565   0.825   6.494   0.437 -0.2438 -0.0437  0.0975
   64MOL    C8045566   0.688   6.524   0.517 -0.5475  0.5558  0.1370
   64MOL    C8145567   0.583   6.430   0.458  0.1081 -0.1841 -0.0835
   64MOL    O8245568   0.446   6.465   0.493 -0.6469 -0.2742  0.0463
   64MOL    C8345569   0.379   6.385   0.591  0.0441 -0.3255  0.2016
   64MOL    O8445570   0.433   6.289   0.645 -0.0223  0.1512 -0.4835
   64MOL    C8545571   0.227   6.414   0.613  0.2796  0.3221  0.1317
   64MOL    C8645572   0.170   6.465   0.477 -0.4407  0.1348  0.2260
   64MOL    C8745573   0.214   6.529   0.720 -0.3876  0.7869  0.3980
   64MOL    H8845574   1.448   6.660   0.394  0.6924 -0.1394  4.2559
   64MOL    H8945575   1.344   6.688   0.521  1.2260  3.0579  1.3692
   64MOL    H9045576   1.359   6.820   0.426 -2.2852  0.5879 -1.3151
   64MOL    H9145577   1.273   6.548   0.321  0.2296 -0.9151 -1.1736
   64MOL    H9245578   1.259   6.690   0.223  0.6774  1.8106  0.4514
   64MOL    H9345579   1.085   6.644   0.475 -4.4070  1.8803  0.4301
   64MOL    H9445580   1.069   6.782   0.380 -1.6025 -0.7832  0.1054
   64MOL    H9545581   1.025   6.503   0.252 -1.1338 -0.3291  0.0666
   64MOL    H9645582   0.997   6.660   0.184 -0.4685  1.3441  1.2197
   64MOL    H9745583   0.820   6.690   0.375 -0.3046 -1.6349  0.6300
   64MOL    H9845584   0.784   6.592   0.251  0.8572  1.1155 -0.4849
   64MOL    H9945585   0.837   6.393   0.396 -0.0281  0.0945 -0.1806
   64MOL   H10045586   0.907   6.492   0.509 -0.6917 -1.6917  0.5772
   64MOL   H10145587   0.691   6.478   0.616  1.8692 -0.1027 -0.1988
   64MOL   H10245588   0.661   6.628   0.534 -0.1045  0.4123  1.8187
   64MOL   H10345589   0.607   6.325   0.474  1.3298 -0.2320 -2.1282
   64MOL   H10445590   0.574   6.457   0.353 -0.2202  0.6684  0.1550
   64MOL   H10545591   0.062   6.469   0.491 -0.6694 -2.1516 -0.5891
   64MOL   H10645592   0.192   6.396   0.395 -1.1128  0.6569 -0.3915
   64MOL   H10745593   0.206   6.564   0.453 -0.9105  0.3315  0.3184
   64MOL   H10845594   0.259   6.614   0.669 -1.1215 -0.0218 -1.6295
   64MOL   H10945595   0.106   6.543   0.716 -0.9292 -2.4883  1.8403
   64MOL   C11045596   0.375   6.115   1.619  0.1740 -0.5319 -0.1455
   64MOL   C11145597   0.333   6.256   1.560  0.2381  0.5999  0.3997
   64MOL   C11245598   0.207   6.258   1.474  0.4330 -0.1924 -0.3502
   64MOL   C11345599   0.155   6.395   1.424  0.2319 -0.3120  0.0237
   64MOL   C11445600   0.035   6.366   1.326 -0.5705 -0.0162  0.3164
   64MOL   C11545601   0.002   6.499   1.256  0.3604  0.7980 -0.2439
   64MOL   C11645602   7.677   6.494   1.138 -0.4284 -0.9693  0.1792
   64MOL   C11745603   7.702   6.407   1.021  0.5488 -0.5120 -0.4893
   64MOL   O11845604   0.023   6.466   0.940  0.3183  0.0709  0.1492
   64MOL   C11945605   0.148   6.423   0.943  0.1837  0.4855  1.2667
   64MOL   O12045606   0.184   6.319   0.997 -0.1831  0.2904 -0.0011
   64MOL   C12145607   0.248   6.519   0.866 -0.0712 -0.3767  0.2727
   64MOL   C12245608   0.219   6.659   0.924  0.1085 -1.4462 -0.4005
   64MOL   C12345609   0.398   6.481   0.890 -0.5785  0.1993 -0.0908
   64MOL   H12445610   0.461   6.121   1.685 -0.1336 -0.5669  0.2676
   64MOL   H12545611   0.288   6.078   1.674  0.5593 -0.5519  0.4500
   64MOL   H12645612   0.391   6.045   1.537  1.3942  0.1247 -0.4770
   64MOL   H12745613   0.416   6.282   1.493  1.8473 -0.6902  1.8347
   64MOL   H12845614   0.330   6.336   1.634  0.5918  0.4201  0.6101
   64MOL   H12945615   0.126   6.210   1.530  0.5187  0.3339  0.2257
   64MOL   H13045616   0.217   6.191   1.389 -0.9451  1.5565 -1.9344
   64MOL   H13145617   0.133   6.450   1.515 -1.3353 -1.4271  0.3351
   64MOL   H13245618   0.235   6.448   1.372 -1.1051  0.2872 -1.4755
   64MOL   H13345619   7.732   6.316   1.377  1.7744 -1.5508  2.7718
   64MOL   H13445620   0.057   6.297   1.244 -0.1498  0.0861  0.3446
   64MOL   H13545621   7.734   6.567   1.326 -0.7667 -0.6355  0.4051
   64MOL   H13645622   0.092   6.557   1.233  1.5605 -0.3714  1.3890
   64MOL   H13745623   7.663   6.594   1.098  0.3805 -1.0927 -0.4152
   64MOL   H13845624   7.581   6.462   1.180  0.6666 -0.7292  2.9830
   64MOL   H13945625   7.724   6.304   1.049  0.7745 -1.1774 -3.0190
   64MOL   H14045626   7.618   6.398   0.952  0.9194  1.5972 -1.2443
   64MOL   H14145627   0.121   6.700   0.900  0.4540 -0.4679 -0.1677
   64MOL   H14245628   0.232   6.661   1.032 -1.1444 -1.2374 -0.2501
   64MOL   H14345629   0.289   6.729   0.878  0.3306 -1.0495  0.5325
   64MOL   H14445630   0.449   6.530   0.807  1.6871 -2.6343 -0.4469
   64MOL   H14545631   0.410   6.373   0.877  1.4631  0.3707  0.2185
   64MOL   C14645632   1.371   6.925   0.855 -0.2762 -1.1701 -0.1656
   64MOL   C14745633   1.251   6.880   0.777  0.7478  0.0106 -0.1803
   64MOL   C14845634   1.167   6.793   0.874  0.4098 -0.2863 -0.5563
   64MOL   C14945635   1.036   6.745   0.802  0.5008  0.4412 -0.3291
   64MOL   C15045636   0.929   6.852   0.804  0.2164 -0.2009  0.0467
   64MOL   C15145637   0.802   6.794   0.724 -0.9871 -0.1886  0.4180
   64MOL   C15245638   0.668   6.862   0.762 -0.7203 -0.7083  0.0833
   64MOL   C15345639   0.634   6.837   0.910 -0.5459 -0.0364 -0.6585
   64MOL   O15445640   0.587   6.705   0.915 -0.4065 -0.0050  0.6284
   64MOL   C15545641   0.517   6.661   1.019  0.1224 -0.4934  0.3715
   64MOL   O15645642   0.488   6.732   1.118  0.2970 -0.4947 -0.2620
   64MOL   C15745643   0.488   6.512   1.014 -0.1075 -0.6451  0.1320
   64MOL   C15845644   0.412   6.466   1.139 -0.3362 -0.7997  1.1283
   64MOL   C15945645   0.631   6.435   1.001 -0.0489  0.3790 -0.1158
   64MOL   H16045646   1.431   6.838   0.880  2.1935  0.3343 -0.7361
   64MOL   H16145647   1.334   6.972   0.946  1.7244 -0.7757  0.4574
   64MOL   H16245648   1.436   6.995   0.803 -0.0434 -1.8850 -0.8451
   64MOL   H16345649   1.199   6.973   0.753  1.4549  1.3422  3.1625
   64MOL   H16445650   1.281   6.831   0.685  2.2352  0.3642  0.0974
   64MOL   H16545651   1.137   6.859   0.956 -1.6959 -1.6158 -0.2401
   64MOL   H16645652   1.232   6.719   0.922  1.8309  2.2636  1.6038
   64MOL   H16745653   1.053   6.695   0.708  0.6535 -0.4145  0.1501
   64MOL   H16845654   0.994   6.661   0.858  0.7594  0.6441  0.1748
   64MOL   H16945655   0.968   6.946   0.764  0.2613 -0.1594  0.1890
   64MOL   H17045656   0.919   6.858   0.913 -4.4379  1.1477 -0.3565
   64MOL   H17145657   0.784   6.687   0.737 -0.2199 -0.5425 -1.2844
   64MOL   H17245658   0.813   6.816   0.618  0.3659  2.9031  1.1641
   64MOL   H17345659   0.663   6.969   0.745 -0.7138 -0.8799 -1.0170
   64MOL   H17445660   0.588   6.820   0.701 -1.2159 -0.2754  0.4309
   64MOL   H17545661   0.718   6.843   0.979 -2.5570 -0.3678  1.8791
   64MOL   H17645662   0.560   6.909   0.946 -0.3585  0.0537 -0.4533
   64MOL   H17745663   0.458   6.484   1.237  0.5056  0.4510  0.5194
   64MOL   H17845664   0.418   6.357   1.135  0.7460 -0.6579 -2.5375
   64MOL   H17945665   0.309   6.495   1.158  0.7166  2.7313  1.8337
   64MOL   H18045666   0.676   6.478   0.911  0.9509 -1.5421 -0.5699
   64MOL   H18145667   0.609   6.330   0.979  1.3674  0.0054  0.1983
   64MOL   C18245668   0.782   6.025   0.459  0.3346 -0.8264 -0.2982
   64MOL   C18345669   0.803   5.974   0.598  0.0439 -0.2094  0.1493
   64MOL   C18445670   0.699   6.024   0.701  0.0627  0.4406 -0.1217
   64MOL   C18545671   0.732   5.962   0.834  0.3313 -0.0036 -0.2010
   64MOL   C18645672   0.637   6.022   0.939  0.5868  0.1036  0.4537
   64MOL   C18745673   0.652   5.951   1.074  0.4801  0.2240 -0.0336
   64MOL   C18845674   0.557   6.000   1.177 -0.1566  0.2681 -0.7453
   64MOL   C18945675   0.598   6.121   1.254 -0.7250 -0.0797 -0.1998
   64MOL   O19045676   0.655   6.214   1.164 -0.6730  0.1685  0.6300
   64MOL   C19145677   0.700   6.334   1.218  0.6007  0.0979  0.0356
   64MOL   O19245678   0.707   6.357   1.337 -0.0410  0.4037 -0.7594
   64MOL   C19345679   0.744   6.435   1.115  0.3774  0.4060 -0.0052
   64MOL   C19445680   0.768   6.575   1.183  0.5269  0.4331 -0.6740
   64MOL   C19545681   0.874   6.388   1.037 -0.0122 -0.1054  0.7797
   64MOL   H19645682   0.676   6.016   0.432 -0.5315 -1.2746  2.9627
   64MOL   H19745683   0.788   6.133   0.452  0.9513 -0.6631  2.2721
   64MOL   H19845684   0.839   5.976   0.380  0.6586 -1.4763  0.3334
   64MOL   H19945685   0.909   5.984   0.621 -0.0521  0.9716  0.1325
   64MOL   H20045686   0.794   5.866   0.602 -0.2399 -0.1480  1.5222
   64MOL   H20145687   0.689   6.132   0.702 -2.3014  0.2597 -2.1635
   64MOL   H20245688   0.598   5.995   0.672 -0.0439 -0.4467  1.0731
   64MOL   H20345689   0.729   5.854   0.842 -1.2690  0.1757  1.9291
   64MOL   H20445690   0.837   5.979   0.857 -0.3539 -0.0141  3.1220
   64MOL   H20545691   0.533   6.033   0.908  1.4149  1.5229 -1.9508
   64MOL   H20645692   0.668   6.126   0.945 -0.4169  0.2787  2.9870
   64MOL   H20745693   0.754   5.976   1.104 -0.1937  2.3383  0.6200
   64MOL   H20845694   0.653   5.843   1.065 -1.2581  0.1145  0.8272
   64MOL   H20945695   0.459   6.024   1.136 -1.0418 -0.2701  0.9994
   64MOL   H21045696   0.541   5.913   1.240 -0.4736  0.3074 -0.7679
   64MOL   H21145697   0.682   6.085   1.314  0.9266  1.1661 -1.7176
   64MOL   H21245698   0.523   6.164   1.321 -1.0189 -1.5231  0.4080
   64MOL   H21345699   0.690   6.623   1.242  0.7986  1.6318 -1.2776
   64MOL   H21445700   0.863   6.570   1.236 -1.1972 -2.3037  2.3551
   64MOL   H21545701   0.801   6.650   1.112 -2.8312  1.8698 -0.8064
   64MOL   H21645702   0.862   6.315   0.957 -0.3489  0.5463  0.2191
   64MOL   H21745703   0.894   6.466   0.963 -0.7503 -1.0238 -0.3901
   64MOL   C21845704   2.027   6.438   1.118 -0.5176 -0.0167  0.1236
   64MOL   C21945705   1.884   6.455   1.073 -0.3348  0.1603 -0.3487
   64MOL   C22045706   1.795   6.524   1.181 -0.2376 -0.6696 -0.2616
   64MOL   C22145707   1.652   6.539   1.136 -0.3176 -0.0357  0.5282
   64MOL   C22245708   1.562   6.588   1.243 -0.1733 -0.4280  0.1025
   64MOL   C22345709   1.421   6.603   1.196 -0.0332 -0.5098  0.0455
   64MOL   C22445710   1.320   6.651   1.307  0.4348 -0.1621 -0.2012
   64MOL   C22545711   1.165   6.656   1.256 -0.3175  0.2762 -0.2272
   64MOL   O22645712   1.132   6.549   1.168 -0.2007  0.0355  0.5487
   64MOL   C22745713   1.061   6.437   1.218  0.2228 -1.0029 -0.1260
   64MOL   O22845714   1.041   6.426   1.338  0.6053 -0.4003 -0.0432
   64MOL   C22945715   1.004   6.340   1.108 -0.7235 -0.4047 -0.4593
   64MOL   C23045716   1.105   6.339   0.988  0.3064 -0.4685 -0.8118
   64MOL   C23145717   0.987   6.198   1.166  0.0615  0.6116 -0.0101
   64MOL   H23245718   2.071   6.356   1.062 -1.4281  0.8863 -1.9572
   64MOL   H23345719   2.032   6.408   1.223  0.3294 -2.6796 -0.6299
   64MOL   H23445720   2.091   6.523   1.096  0.8741 -1.3855 -1.2212
   64MOL   H23545721   1.852   6.352   1.061  2.2382 -0.6347 -0.8278
   64MOL   H23645722   1.882   6.501   0.974  0.2174 -1.0318 -0.9236
   64MOL   H23745723   1.804   6.461   1.270  0.8714  0.9443  0.7996
   64MOL   H23845724   1.841   6.623   1.187  0.5251 -1.0486  0.1109
   64MOL   H23945725   1.639   6.605   1.050 -2.0808 -0.5721  0.3561
   64MOL   H24045726   1.619   6.439   1.106 -0.0493 -0.3743  1.3615
   64MOL   H24145727   1.554   6.508   1.318  0.4815 -1.8454 -1.3099
   64MOL   H24245728   1.595   6.682   1.286  0.9971 -0.2664 -1.1150
   64MOL   H24345729   1.422   6.684   1.123  1.9067 -0.7767 -0.2460
   64MOL   H24445730   1.390   6.515   1.140  0.9119 -0.7504 -0.1085
   64MOL   H24545731   1.343   6.747   1.353 -0.1427 -1.4662  2.8778
   64MOL   H24645732   1.330   6.589   1.396  0.6739 -0.7862 -0.6579
   64MOL   H24745733   1.160   6.754   1.208  0.7940 -0.0846 -1.0895
   64MOL   H24845734   1.095   6.675   1.338 -0.5511  1.0300 -0.6024
   64MOL   H24945735   1.081   6.270   0.907  0.5098  1.4809 -2.5781
   64MOL   H25045736   1.207   6.340   1.028 -1.0626 -1.4016  2.9119
   64MOL   H25145737   1.096   6.428   0.925 -0.7359  0.7981  1.0857
   64MOL   H25245738   0.944   6.217   1.264  1.5931  2.0361  0.4187
   64MOL   H25345739   0.910   6.154   1.104  0.3393 -1.5406  1.1298
   64MOL   C25445740   1.348   6.525   2.223 -0.3695  0.2903  0.4937
   64MOL   C25545741   1.340   6.504   2.070  0.2521  0.6733 -0.0834
   64MOL   C25645742   1.330   6.355   2.045  0.5146  0.1286 -0.6616
   64MOL   C25745743   1.345   6.322   1.895  0.1953  0.4557 -0.1487
   64MOL   C25845744   1.238   6.377   1.806  0.2584 -0.1390  0.4800
   64MOL   C25945745   1.278   6.367   1.658 -0.6062 -0.9051  0.4993
   64MOL   C26045746   1.273   6.220   1.608  0.6553  0.3304  0.2598
   64MOL   C26145747   1.314   6.200   1.464 -0.2442  0.2062 -0.4239
   64MOL   O26245748   1.203   6.154   1.384  0.0169  0.2866 -0.1019
   64MOL   C26345749   1.222   6.141   1.254 -0.3209 -0.5261 -0.7499
   64MOL   O26445750   1.328   6.166   1.192 -0.0840 -0.6062 -0.1822
   64MOL   C26545751   1.095   6.083   1.182  0.8741 -0.1301 -1.3541
   64MOL   C26645752   1.130   6.017   1.053  0.3162  0.6929 -0.1535
   64MOL   C26745753   1.025   5.973   1.273 -0.0335 -0.4042  0.3152
   64MOL   H26845754   1.374   6.630   2.240 -2.5251  0.5404  2.5198
   64MOL   H26945755   1.259   6.494   2.278 -0.4663  1.2422  0.8832
   64MOL   H27045756   1.424   6.462   2.270 -0.7286 -0.1005  0.5480
   64MOL   H27145757   1.268   6.573   2.025  1.2319  1.7977  0.0454
   64MOL   H27245758   1.437   6.529   2.027  0.2321 -2.7312 -2.2685
   64MOL   H27345759   1.230   6.326   2.078 -0.3201  2.8315 -0.6760
   64MOL   H27445760   1.397   6.297   2.108  0.4843  0.1004 -0.6552
   64MOL   H27545761   1.343   6.214   1.883  3.6598  0.2642  0.6067
   64MOL   H27645762   1.438   6.365   1.857 -1.4681  1.5252 -3.2280
   64MOL   H27745763   1.144   6.322   1.816  0.6159 -0.6548  0.9993
   64MOL   H27845764   1.211   6.481   1.822  0.3192  0.1448 -1.1740
   64MOL   H27945765   1.377   6.409   1.646 -0.8471 -0.3154  0.5504
   64MOL   H28045766   1.206   6.423   1.598  1.3951  1.2614  0.0479
   64MOL   H28145767   1.332   6.153   1.670  0.3306  0.6095  0.8865
   64MOL   H28245768   1.175   6.176   1.629 -0.5421  2.5826 -0.4165
   64MOL   H28345769   1.350   6.291   1.416  1.3132 -1.2475 -2.1251
   64MOL   H28445770   1.388   6.120   1.461 -1.2963 -0.8065  0.1673
   64MOL   H28545771   1.206   5.941   1.071  0.5281  0.9303 -0.0431
   64MOL   H28645772   1.046   5.968   1.002 -0.1345  0.0014  1.2481
   64MOL   H28745773   1.173   6.084   0.979 -1.5956  0.9833 -1.0488
   64MOL   H28845774   0.922   5.967   1.238  0.0363 -0.0255  0.0302
   64MOL   H28945775   1.005   6.024   1.367 -1.8034 -0.7010  0.1065
   64MOL   C29045776   0.803   5.587   0.370  1.0845 -0.7454 -0.2897
   64MOL   C29145777   0.953   5.572   0.407  0.0927  0.0082  0.5181
   64MOL   C29245778   1.038   5.697   0.402  0.6272 -0.2867 -0.6269
   64MOL   C29345779   1.172   5.699   0.478 -0.5988  0.2664 -0.0872
   64MOL   C29445780   1.176   5.758   0.620 -0.8876 -0.2762  0.8197
   64MOL   C29545781   1.129   5.664   0.727  0.0752  0.5191 -0.1297
   64MOL   C29645782   1.161   5.712   0.875 -0.3696 -0.1169  0.0710
   64MOL   C29745783   1.137   5.613   0.994 -0.2131 -0.2127 -0.0272
   64MOL   O29845784   1.157   5.679   1.117 -0.1297  0.5283 -0.0388
   64MOL   C29945785   1.048   5.747   1.171 -0.0317  0.5093  0.0724
   64MOL   O30045786   0.935   5.743   1.125 -0.1028  0.1964 -0.3857
   64MOL   C30145787   1.071   5.827   1.297  0.0224 -0.0152  0.4299
   64MOL   C30245788   1.219   5.828   1.342 -0.1398  0.3558  0.0245
   64MOL   C30345789   0.980   5.777   1.413  0.1042 -0.0302 -0.9221
   64MOL   H30445790   0.783   5.647   0.282  1.4046 -0.2783 -0.0431
   64MOL   H30545791   0.732   5.612   0.449  2.5640  0.3484  0.7294
   64MOL   H30645792   0.783   5.486   0.333  0.6077 -0.3122 -1.2167
   64MOL   H30745793   0.993   5.503   0.332 -1.7760  0.0123 -0.5309
   64MOL   H30845794   0.977   5.521   0.500 -2.4744  2.7319  2.7896
   64MOL   H30945795   0.981   5.784   0.435  1.9575  0.7828 -1.0901
   64MOL   H31045796   1.060   5.717   0.297 -0.8826 -1.4211 -1.1734
   64MOL   H31145797   1.221   5.601   0.478  0.7649  0.9285  0.1394
   64MOL   H31245798   1.242   5.756   0.416  1.6025  0.4263  2.4298
   64MOL   H31345799   1.279   5.787   0.638 -1.0929 -0.7691  2.9826
   64MOL   H31445800   1.114   5.847   0.626 -1.3388 -0.6104  1.1754
   64MOL   H31545801   1.159   5.561   0.710 -0.5328  0.0524  1.5141
   64MOL   H31645802   1.024   5.636   0.719  0.2099  0.0113 -0.1439
   64MOL   H31745803   1.110   5.807   0.891  0.6123  0.7658 -1.8400
   64MOL   H31845804   1.268   5.734   0.866 -0.3395  0.0823  0.9121
   64MOL   H31945805   1.194   5.520   0.981 -0.6401 -0.4880  0.0884
   64MOL   H32045806   1.034   5.579   0.994 -0.6592  1.1365  1.1071
   64MOL   H32145807   1.282   5.862   1.260  0.3754 -0.6435 -0.0052
   64MOL   H32245808   1.250   5.729   1.374  0.8816  0.8674  0.6693
   64MOL   H32345809   1.236   5.895   1.427 -0.7612 -2.0424  2.0968
   64MOL   H32445810   1.013   5.837   1.498 -0.6316  0.2947 -0.8599
   64MOL   H32545811   0.883   5.823   1.395  0.5527 -0.6185 -5.2277
   64MOL   C32645812   0.177   5.268   0.701 -0.6891 -0.0881 -0.2734
   64MOL   C32745813   0.306   5.208   0.752  0.8608  0.1775  0.2996
   64MOL   C32845814   0.397   5.305   0.826  0.1374  1.4580  0.0042
   64MOL   C32945815   0.521   5.233   0.885 -0.0199 -0.5062  0.3634
   64MOL   C33045816   0.607   5.329   0.977 -0.1514  0.8999  0.0561
   64MOL   C33145817   0.746   5.279   1.013 -0.5273 -0.0431  0.5329
   64MOL   C33245818   0.829   5.373   1.096 -0.2512 -0.6312 -0.4225
   64MOL   C33345819   0.815   5.364   1.248 -0.0506  0.3073 -0.5206
   64MOL   O33445820   0.904   5.445   1.327 -0.1589  0.2260 -0.5747
   64MOL   C33545821   0.860   5.555   1.376 -0.8679  0.2460  0.7446
   64MOL   O33645822   0.751   5.606   1.341  0.0274 -0.3300  0.3914
   64MOL   C33745823   0.965   5.629   1.470 -0.4445  0.1605 -0.0385
   64MOL   C33845824   1.102   5.556   1.469 -0.1586 -0.0017 -0.0601
   64MOL   C33945825   0.901   5.634   1.609 -0.1679  0.1535 -1.1470
   64MOL   H34045826   0.198   5.353   0.636  0.0697  1.6412  2.1575
   64MOL   H34145827   0.119   5.290   0.790  3.1968  0.8051  2.1973
   64MOL   H34245828   0.133   5.195   0.634  0.2505 -0.0691 -0.9206
   64MOL   H34345829   0.344   5.175   0.656 -0.6778 -0.4079 -0.1270
   64MOL   H34445830   0.278   5.120   0.809 -1.2138 -0.8075 -2.1611
   64MOL   H34545831   0.342   5.361   0.901 -1.8675  2.9161 -2.4828
   64MOL   H34645832   0.423   5.379   0.751 -1.9056  1.2449 -0.9457
   64MOL   H34745833   0.595   5.199   0.813  1.0078 -0.5983  1.4470
   64MOL   H34845834   0.492   5.150   0.949 -2.2524  1.1867  1.6242
   64MOL   H34945835   0.599   5.428   0.933  1.7125 -0.2004 -2.9554
   64MOL   H35045836   0.561   5.325   1.076  0.1317 -0.3587  0.1557
   64MOL   H35145837   0.742   5.178   1.054  0.3975  0.5934  2.2454
   64MOL   H35245838   0.797   5.268   0.917 -1.8050 -1.0160 -0.0439
   64MOL   H35345839   0.811   5.471   1.051  0.6964 -1.2089 -2.1352
   64MOL   H35445840   0.933   5.345   1.077 -0.3526 -2.3322  1.3697
   64MOL   H35545841   0.711   5.369   1.282 -0.3157  1.2932 -1.4551
   64MOL   H35645842   0.843   5.264   1.283 -1.9066 -0.2097 -0.4151
   64MOL   H35745843   1.168   5.616   1.531 -0.7669 -1.0917  1.6867
   64MOL   H35845844   1.106   5.454   1.507 -2.0402 -0.5507 -1.2596
   64MOL   H35945845   1.137   5.535   1.367  1.6852 -1.9499  0.9424
   64MOL   H36045846   0.920   5.730   1.657  1.6323 -0.5752 -0.3720
   64MOL   H36145847   0.794   5.644   1.591  0.1723 -1.0286 -4.0803
   64MOL   C36245848   1.235   5.625   2.328 -0.3156 -0.3542  0.7064
   64MOL   C36345849   1.389   5.671   2.319 -0.0737 -0.1994 -0.4633
   64MOL   C36445850   1.421   5.727   2.177 -0.6155 -0.6553  0.3068
   64MOL   C36545851   1.343   5.853   2.149  0.2898  0.2333 -0.9729
   64MOL   C36645852   1.389   5.938   2.031 -0.3757 -0.3877 -0.3295
   64MOL   C36745853   1.399   5.869   1.900 -0.4781 -0.0612 -0.3358
   64MOL   C36845854   1.258   5.823   1.836 -0.1175 -0.2374  0.3888
   64MOL   C36945855   1.226   5.676   1.856 -0.2107 -0.0691 -0.1162
   64MOL   O37045856   1.085   5.649   1.813 -0.1345  0.6480  0.1709
   64MOL   C37145857   1.047   5.530   1.785 -0.6152  0.5516 -0.2258
   64MOL   O37245858   1.119   5.430   1.806  0.4082 -0.2910  0.3056
   64MOL   C37345859   0.906   5.522   1.722  0.9064  0.7543  0.2509
   64MOL   C37445860   0.887   5.377   1.670 -0.3059 -0.6474 -0.2754
   64MOL   C37545861   0.791   5.558   1.825  0.5363 -0.2438 -0.0867
   64MOL   H37645862   1.169   5.707   2.299  1.8171  1.0580 -0.2828
   64MOL   H37745863   1.221   5.536   2.267  1.0481 -1.2216  1.6339
   64MOL   H37845864   1.213   5.599   2.431 -4.2685  2.0312  0.5747
   64MOL   H37945865   1.451   5.583   2.339 -2.5062 -1.9039 -0.1236
   64MOL   H38045866   1.406   5.745   2.397  1.5024 -0.9491 -0.0708
   64MOL   H38145867   1.403   5.649   2.103  3.3581  0.2410 -1.7326
   64MOL   H38245868   1.527   5.748   2.164 -0.8145 -1.0299 -2.1320
   64MOL   H38345869   1.355   5.914   2.238 -0.5968 -1.6786  0.5004
   64MOL   H38445870   1.236   5.834   2.140  0.2969 -0.2246 -0.0772
   64MOL   H38545871   1.329   6.028   2.032 -0.6934 -0.5979 -0.1750
   64MOL   H38645872   1.494   5.964   2.044 -0.5474 -0.3161  1.0038
   64MOL   H38745873   1.473   5.789   1.901 -0.0908  0.2985 -0.1415
   64MOL   H38845874   1.453   5.937   1.835 -0.4503 -0.8515 -1.1428
   64MOL   H38945875   1.236   5.854   1.734 -1.3096  0.4932  0.8609
   64MOL   H39045876   1.177   5.881   1.881 -1.3531 -1.0317 -0.7611
   64MOL   H39145877   1.304   5.612   1.815 -1.0578 -1.6951  0.7772
   64MOL   H39245878   1.222   5.656   1.963  0.0836  0.0979 -0.0758
   64MOL   H39345879   0.793   5.356   1.620 -0.5364  1.7285 -0.8804
   64MOL   H39445880   0.962   5.349   1.596 -1.4060  0.2504 -1.7554
   64MOL   H39545881   0.899   5.299   1.746  0.3604 -1.9103 -1.6494
   64MOL   H39645882   0.820   5.659   1.857 -2.9138  0.9696 -0.5677
   64MOL   H39745883   0.698   5.582   1.774 -0.9297  1.9722  3.4171
   64MOL   C39845884   7.449   5.276   2.077 -0.0346  0.5382 -0.2159
   64MOL   C39945885   7.597   5.238   2.065 -0.0675  0.5059 -0.0026
   64MOL   C40045886   7.620   5.176   1.922 -0.5114 -0.5904 -0.3063
   64MOL   C40145887   7.769   5.139   1.914 -0.0080  0.2677  0.0935
   64MOL   C40245888   0.080   5.257   1.871  0.2973  0.1399 -0.6822
   64MOL   C40345889   0.218   5.209   1.828 -1.2897  0.0693  0.2014
   64MOL   C40445890   0.325   5.317   1.857  0.1624 -0.2995  0.2318
   64MOL   C40545891   0.457   5.271   1.804  0.0241  0.0306 -0.2769
   64MOL   O40645892   0.557   5.368   1.831  0.2291 -0.3166  0.2104
   64MOL   C40745893   0.676   5.337   1.893  0.3667  0.4204  0.0857
   64MOL   O40845894   0.718   5.224   1.919  0.2269  0.6430  0.0835
   64MOL   C40945895   0.751   5.464   1.943  0.8076 -0.3837 -1.1582
   64MOL   C41045896   0.872   5.418   2.027  0.0503 -0.0154 -1.0226
   64MOL   C41145897   0.651   5.553   2.036 -0.1986 -0.5374 -0.0089
   64MOL   H41245898   7.422   5.349   2.001  2.4105  2.5267  0.7705
   64MOL   H41345899   7.428   5.316   2.175  1.2701  2.0875 -0.5572
   64MOL   H41445900   7.376   5.195   2.069  0.4099  0.0998  0.1367
   64MOL   H41545901   7.625   5.158   2.134 -1.5133 -1.7225 -1.9044
   64MOL   H41645902   7.662   5.324   2.083  1.4672 -0.6516  0.0679
   64MOL   H41745903   7.568   5.080   1.917 -1.0295 -0.3370  0.2920
   64MOL   H41845904   7.581   5.238   1.842  0.9560 -2.1396 -2.2704
   64MOL   H41945905   0.003   5.060   1.840 -0.8544  1.6645 -1.6049
   64MOL   H42045906   0.028   5.086   2.001  0.5703 -0.1744 -0.4300
   64MOL   H42145907   0.034   5.310   1.788 -2.0447  0.1249  0.5624
   64MOL   H42245908   0.082   5.319   1.961 -0.8181 -0.6046 -0.1412
   64MOL   H42345909   0.217   5.182   1.722  1.3172  2.0058 -0.3661
   64MOL   H42445910   0.242   5.112   1.870 -3.9636 -1.0349 -0.6747
   64MOL   H42545911   0.302   5.413   1.811  1.7713 -0.2539 -0.5114
   64MOL   H42645912   0.336   5.327   1.965  0.0065 -1.8076  0.4095
   64MOL   H42745913   0.490   5.174   1.841  2.6888  1.5563  1.4911
   64MOL   H42845914   0.459   5.259   1.695 -2.4750 -0.2827 -0.3064
   64MOL   H42945915   0.948   5.375   1.961 -0.6830 -0.0856 -1.8392
   64MOL   H43045916   0.851   5.346   2.106 -1.0452 -1.9459 -3.0045
   64MOL   H43145917   0.908   5.507   2.078  1.4506  0.5525 -2.9466
   64MOL   H43245918   0.554   5.556   1.986 -1.8297 -1.6913  2.9459
   64MOL   H43345919   0.684   5.657   2.033 -0.5917 -0.3446  1.7893
   64MOL   C43445920   0.793   6.068   1.596 -0.7739 -0.4289  0.6439
   64MOL   C43545921   0.904   6.096   1.696  0.2658  0.2346  0.1016
   64MOL   C43645922   0.844   6.055   1.839 -0.0107 -0.5075 -0.2484
   64MOL   C43745923   0.949   6.087   1.940  0.8020 -0.0458 -0.9241
   64MOL   C43845924   0.908   6.059   2.091 -1.2134 -0.2715  0.4677
   64MOL   C43945925   0.898   5.912   2.128 -0.0480 -0.1143  0.3661
   64MOL   C44045926   0.873   5.896   2.280 -0.0823  0.1253  1.1890
   64MOL   C44145927   0.861   5.746   2.325 -0.0076 -0.0164 -0.1052
   64MOL   O44245928   0.756   5.694   2.258 -0.1557 -0.3258  0.0734
   64MOL   C44345929   0.730   5.571   2.283  0.3538 -0.5485 -0.5254
   64MOL   O44445930   0.795   5.490   2.342 -0.5723  0.3868 -0.0371
   64MOL   C44545931   0.617   5.528   2.190  0.2556 -1.1777  0.6774
   64MOL   C44645932   0.578   5.373   2.196  0.0952  0.1839 -0.1675
   64MOL   C44745933   0.479   5.604   2.214 -0.2311  0.1043  0.1188
   64MOL   H44845934   0.826   6.076   1.492 -0.6855 -1.8245  0.5611
   64MOL   H44945935   0.711   6.140   1.602  1.3724  2.0468  1.2449
   64MOL   H45045936   0.756   5.967   1.612 -2.6111  0.5103  2.3757
   64MOL   H45145937   0.932   6.201   1.688 -0.6266  0.4690 -0.0703
   64MOL   H45245938   0.998   6.050   1.666 -0.7407 -1.5862 -0.3697
   64MOL   H45345939   0.828   5.947   1.834 -0.6777 -0.3889 -0.7069
   64MOL   H45445940   0.760   6.119   1.862  1.1094  0.5689  0.9100
   64MOL   H45545941   0.963   6.195   1.929  0.8801  0.1235  0.6846
   64MOL   H45645942   1.054   6.059   1.928  1.1720  0.3599  1.1209
   64MOL   H45745943   0.987   6.105   2.150 -1.5178  0.2467  0.4749
   64MOL   H45845944   0.818   6.115   2.115  0.4904  3.1505 -0.6081
   64MOL   H45945945   0.993   5.870   2.095 -1.5157 -2.4700 -0.9969
   64MOL   H46045946   0.825   5.863   2.064  0.3445  1.3563 -1.2453
   64MOL   H46145947   0.960   5.932   2.336  1.4356  1.3562 -1.8678
   64MOL   H46245948   0.796   5.964   2.317 -0.4223  0.1476  0.4363
   64MOL   H46345949   0.837   5.740   2.431 -1.2939  0.9811 -0.3244
   64MOL   H46445950   0.944   5.679   2.302  0.9725  0.1550  2.7636
   64MOL   H46545951   0.661   5.308   2.166  0.1783 -0.2596  1.0001
   64MOL   H46645952   0.542   5.338   2.293 -1.1956  0.4507 -0.5450
   64MOL   H46745953   0.497   5.356   2.125 -0.8626  1.7965  0.5364
   64MOL   H46845954   0.497   5.707   2.182  0.4172 -0.9155 -2.9971
   64MOL   H46945955   0.412   5.579   2.132  0.2775  0.8436 -0.5261
   64MOL   C47045956   7.766   5.812   3.188  1.2094  0.0472 -0.4876
   64MOL   C47145957   7.753   5.848   3.041 -0.2442 -0.2536 -0.3010
   64MOL   C47245958   0.037   5.748   2.950  0.0481  0.5145 -0.3211
   64MOL   C47345959   0.013   5.784   2.804 -0.0743 -0.4491  0.0498
   64MOL   C47445960   0.072   5.680   2.708 -0.2362  0.3491  0.4385
   64MOL   C47545961   7.754   5.563   2.680 -0.0959 -0.1354  0.2408
   64MOL   C47645962   0.036   5.434   2.630  0.1587  0.5372 -0.4458
   64MOL   C47745963   0.096   5.436   2.483 -0.3023  0.2676 -0.1461
   64MOL   O47845964   0.213   5.504   2.476 -0.5510  0.3595 -0.1203
   64MOL   C47945965   0.275   5.505   2.357  0.4864 -0.4639 -0.2721
   64MOL   O48045966   0.244   5.438   2.261 -0.3870 -0.3670 -0.4681
   64MOL   C48145967   0.395   5.606   2.347 -0.3200  0.5022 -0.2788
   64MOL   C48245968   0.478   5.583   2.467  0.4647  0.1799  0.0981
   64MOL   C48345969   0.342   5.752   2.364  0.6227 -0.4734  0.5674
   64MOL   H48445970   7.733   5.890   3.258  1.8940  0.3117 -0.4540
   64MOL   H48545971   0.092   5.786   3.187  1.1118 -0.7100  2.5950
   64MOL   H48645972   7.709   5.723   3.215 -1.0323  0.6836 -2.9148
   64MOL   H48745973   7.648   5.872   3.025 -0.3093  0.3623  0.9980
   64MOL   H48845974   0.026   5.943   3.024 -1.9226  1.3195  2.8613
   64MOL   H48945975   0.142   5.731   2.974 -0.1134  1.1594  0.8531
   64MOL   H49045976   7.763   5.655   2.971 -0.0629 -0.2214 -3.6333
   64MOL   H49145977   7.684   5.787   2.797 -0.1226 -1.4009  0.3082
   64MOL   H49245978   0.044   5.886   2.783  1.5166 -0.7525  0.8170
   64MOL   H49345979   0.110   5.718   2.613 -1.5613  1.8520  0.4771
   64MOL   H49445980   0.153   5.633   2.764  0.4380  1.7149  0.6200
   64MOL   H49545981   7.682   5.544   2.760 -0.0089 -0.0408  0.3401
   64MOL   H49645982   7.691   5.596   2.597  1.5104  0.4185 -0.7712
   64MOL   H49745983   0.104   5.399   2.707 -0.4500  0.1520 -0.0765
   64MOL   H49845984   7.726   5.371   2.627  0.3724  0.1939  0.2328
   64MOL   H49945985   0.024   5.484   2.417 -1.0134  1.0318  1.1504
   64MOL   H50045986   0.116   5.336   2.445 -1.4987  0.5493 -1.5741
   64MOL   H50145987   0.538   5.492   2.473  0.8335  0.4102 -0.0831
   64MOL   H50245988   0.430   5.603   2.563 -0.6668  2.5525 -0.9281
   64MOL   H50345989   0.545   5.668   2.473 -0.1649  0.6324  0.9012
   64MOL   H50445990   0.299   5.770   2.462  0.1499 -0.0775  0.2956
   64MOL   H50545991   0.426   5.821   2.354 -0.8717  1.3346  0.0971
   64MOL   C50645992   0.735   6.381   2.990  0.2093  0.2242 -0.1231
   64MOL   C50745993   0.636   6.367   2.864  0.1439  0.1850 -0.4615
   64MOL   C50845994   0.701   6.423   2.736 -0.1344 -0.2675 -0.0495
   64MOL   C50945995   0.620   6.387   2.610  0.0093  0.6112 -0.1044
   64MOL   C51045996   0.464   6.411   2.614  0.4886 -0.4665 -0.0655
   64MOL   C51145997   0.406   6.361   2.478  0.5438 -0.1725  0.6515
   64MOL   C51245998   0.367   6.209   2.482  0.0605  0.3650  0.5037
   64MOL   C51345999   0.278   6.175   2.363 -1.3126  0.2449  0.5668
   64MOL   O51446000   0.252   6.035   2.361 -0.5773 -0.0034 -0.3512
   64MOL   C51546001   0.258   5.962   2.254  0.1630 -0.3128 -1.0655
   64MOL   O51646002   0.281   6.012   2.141 -0.6145  0.2945 -0.0208
   64MOL   C51746003   0.226   5.814   2.272  0.2587 -0.7012 -0.4200
   64MOL   C51846004   0.212   5.751   2.137 -0.1714  0.1484  0.0431
   64MOL   C51946005   0.092   5.804   2.348  0.5056 -0.3675 -0.3915
   64MOL   H52046006   0.777   6.481   2.981  0.0405  0.2254 -0.9488
   64MOL   H52146007   0.814   6.307   2.993  0.8599  0.9755  1.7734
   64MOL   H52246008   0.677   6.381   3.083 -0.4255  0.6306 -0.5129
   64MOL   H52346009   0.545   6.422   2.884 -1.2534 -2.0359 -0.5096
   64MOL   H52446010   0.601   6.266   2.843  1.7579 -0.4100 -0.4235
   64MOL   H52546011   0.702   6.532   2.743  0.1151 -0.3255  0.9599
   64MOL   H52646012   0.807   6.401   2.721  0.2415 -0.0891  2.1544
   64MOL   H52746013   0.658   6.441   2.524 -1.8696  1.7922 -0.2228
   64MOL   H52846014   0.637   6.281   2.592  2.6844  1.1687 -0.9711
   64MOL   H52946015   0.414   6.371   2.702 -1.7616 -0.1391 -1.1703
   64MOL   H53046016   0.443   6.517   2.629  2.5471 -0.0524  0.0930
   64MOL   H53146017   0.474   6.390   2.399  0.2864  0.0361  0.5033
   64MOL   H53246018   0.310   6.413   2.471  0.1996 -0.6035  1.9615
   64MOL   H53346019   0.325   6.184   2.579 -0.8173  0.6759  0.2084
   64MOL   H53446020   0.462   6.155   2.480 -0.1430  0.0070  0.3511
   64MOL   H53546021   0.330   6.205   2.272  1.9583  0.0676  2.3294
   64MOL   H53646022   0.181   6.225   2.366 -2.0159 -1.0694  0.0688
   64MOL   H53746023   0.176   5.649   2.148 -0.0340  0.0723 -0.2270
   64MOL   H53846024   0.308   5.750   2.086 -0.1827 -1.3302  0.0282
   64MOL   H53946025   0.133   5.805   2.084 -0.1762 -2.0049 -2.2124
   64MOL   H54046026   0.093   5.705   2.392 -0.9050 -0.1609  0.1388
   64MOL   H54146027   0.101   5.869   2.435  0.7790 -0.7117 -0.1627
   64MOL   C54246028   0.525   5.818   1.744 -0.2414 -0.2451  0.2837
   64MOL   C54346029   0.424   5.700   1.734  0.2452 -0.5528 -0.7215
   64MOL   C54446030   0.281   5.751   1.707  0.5011 -0.3244 -0.0294
   64MOL   C54546031   0.177   5.641   1.685 -0.3947 -0.0325 -0.8844
   64MOL   C54646032   0.030   5.680   1.677  0.1653 -0.0486  0.1881
   64MOL   C54746033   7.730   5.726   1.806  0.5522  0.9664  0.1973
   64MOL   C54846034   7.676   5.613   1.904  0.2477 -0.3893 -0.1998
   64MOL   C54946035   7.569   5.674   1.992 -0.3214  0.8235 -0.0137
   64MOL   O55046036   7.622   5.769   2.090  0.2893 -0.0821  0.4155
   64MOL   C55146037   7.677   5.731   2.206 -0.8075 -1.0302  0.1657
   64MOL   O55246038   7.688   5.616   2.242 -0.5436  0.1715 -0.0075
   64MOL   C55346039   7.726   5.849   2.294  0.0094  0.3833  0.2410
   64MOL   C55446040   7.717   5.981   2.209  0.6428  0.1336  0.7243
   64MOL   C55546041   7.639   5.856   2.426  0.1279  0.1756  0.0348
   64MOL   H55646042   0.628   5.785   1.746 -0.5079 -1.1191 -0.4276
   64MOL   H55746043   0.514   5.884   1.831  0.0563 -0.3398  0.3917
   64MOL   H55846044   0.528   5.891   1.663  0.0823  0.1550  0.6542
   64MOL   H55946045   0.464   5.643   1.650  2.1105  1.5776 -1.3193
   64MOL   H56046046   0.415   5.637   1.823  1.8100  0.2752  0.0331
   64MOL   H56146047   0.287   5.801   1.610  0.3322  0.6030  0.4368
   64MOL   H56246048   0.238   5.820   1.779  0.9882  0.6104 -0.6191
   64MOL   H56346049   0.209   5.585   1.598 -0.4121  1.7853 -2.0842
   64MOL   H56446050   0.178   5.595   1.784  1.0247  3.0523  0.6159
   64MOL   H56546051   7.756   5.598   1.631  0.9307 -0.3704 -0.1362
   64MOL   H56646052   0.025   5.762   1.605  0.5232  0.4397  0.7146
   64MOL   H56746053   0.020   5.788   1.863 -1.1962  0.5867  2.8286
   64MOL   H56846054   7.646   5.785   1.768 -0.6618 -1.5429 -1.1013
   64MOL   H56946055   7.623   5.540   1.841  0.5309 -0.4790 -0.3333
   64MOL   H57046056   7.759   5.568   1.958 -0.5969 -2.6755 -0.7171
   64MOL   H57146057   7.501   5.602   2.038  0.0002  1.1272  0.9590
   64MOL   H57246058   7.503   5.728   1.924 -2.0137 -0.9168  0.1971
   64MOL   H57346059   7.751   6.067   2.266  0.2484  0.5858  0.2811
   64MOL   H57446060   7.624   6.004   2.157  0.6732 -0.5690  0.3520
   64MOL   H57546061   0.002   5.987   2.121  0.1910 -0.8425  0.3103
   64MOL   H57646062   7.686   5.936   2.484  1.0084 -0.3764  0.0892
   64MOL   H57746063   7.661   5.767   2.484  0.2169  0.5561  0.5910
   64MOL   C57846064   7.616   6.897   2.187 -0.2201 -0.0362 -0.1969
   64MOL   C57946065   7.728   6.798   2.183 -0.4930 -0.2967  0.5007
   64MOL   C58046066   7.687   6.660   2.231  1.0579  0.7249  0.5427
   64MOL   C58146067   0.021   6.568   2.257 -0.6715 -1.1027  0.0090
   64MOL   C58246068   7.758   6.419   2.252 -0.4463 -0.5111 -0.3845
   64MOL   C58346069   7.671   6.371   2.373  0.8746 -0.1515  0.5186
   64MOL   C58446070   7.530   6.342   2.319  0.7980 -0.1355  0.4144
   64MOL   C58546071   7.455   6.259   2.422 -0.7633  0.5854 -0.0800
   64MOL   O58646072   7.504   6.126   2.444 -0.1192 -0.2049 -0.0127
   64MOL   C58746073   7.450   6.021   2.377 -0.2078  0.6498  0.7632
   64MOL   O58846074   7.376   6.040   2.279  0.3294  0.0747 -0.6081
   64MOL   C58946075   7.479   5.877   2.433  0.2316  0.1328  0.0307
   64MOL   C59046076   7.439   5.877   2.588 -0.0628 -0.0234 -0.0499
   64MOL   C59146077   7.400   5.763   2.355 -0.6779  0.3024 -0.3686
   64MOL   H59246078   7.592   6.897   2.293  0.1244 -0.8495 -0.1112
   64MOL   H59346079   7.522   6.865   2.143 -1.4591 -0.3608  2.5823
   64MOL   H59446080   7.648   6.996   2.154  1.7668 -0.9418 -1.1056
   64MOL   H59546081   0.029   6.832   2.248  1.2169 -1.1551 -1.1309
   64MOL   H59646082   0.000   6.780   2.089 -0.5841  0.2824  0.3361
   64MOL   H59746083   7.611   6.606   2.175  1.6029 -1.0291  1.4715
   64MOL   H59846084   7.641   6.670   2.329 -1.5716  0.0497 -0.5851
   64MOL   H59946085   0.070   6.593   2.351 -1.0267 -0.8464  0.1258
   64MOL   H60046086   0.098   6.586   2.182 -0.4979 -0.1295  0.4199
   64MOL   H60146087   0.076   6.370   2.245  0.2428  0.9088 -0.8421
   64MOL   H60246088   7.707   6.397   2.158 -1.1999  1.1220 -0.3735
   64MOL   H60346089   7.670   6.452   2.445  2.3593 -1.3936  1.9753
   64MOL   H60446090   7.715   6.281   2.414 -0.1101  0.0719  2.0697
   64MOL   H60546091   7.534   6.273   2.236  1.3884 -1.0513  1.1883
   64MOL   H60646092   7.477   6.434   2.294 -1.2139 -1.0800  1.0731
   64MOL   H60746093   7.462   6.298   2.524 -2.8046 -0.9930  0.6966
   64MOL   H60846094   7.347   6.252   2.411 -0.5160 -1.5615 -1.4844
   64MOL   H60946095   7.334   5.905   2.603 -0.0611 -0.4970  0.8309
   64MOL   H61046096   7.452   5.775   2.623 -0.8014 -0.2955 -0.5400
   64MOL   H61146097   7.490   5.946   2.655  0.4466 -2.0942  1.7249
   64MOL   H61246098   7.462   5.673   2.354 -0.1388  0.6398  1.8427
   64MOL   H61346099   7.408   5.790   2.249  0.4965 -0.5657 -0.5140
   64MOL   C61446100   7.765   4.732   2.399  0.0065  0.3036 -0.7655
   64MOL   C61546101   7.669   4.817   2.485 -1.0595  0.2463 -0.5776
   64MOL   C61646102   7.607   4.938   2.403 -0.3764 -0.1226 -0.5474
   64MOL   C61746103   7.513   5.029   2.485 -0.4264 -0.0243 -0.4248
   64MOL   C61846104   7.449   5.135   2.397 -0.0193 -0.1687 -0.3983
   64MOL   C61946105   7.353   5.222   2.478  0.8353  0.4840 -0.4773
   64MOL   C62046106   7.417   5.319   2.581 -0.0293  0.1627 -0.2006
   64MOL   C62146107   7.339   5.451   2.622 -0.0215 -0.6110 -0.3712
   64MOL   O62246108   7.333   5.537   2.517  0.3665  0.1256 -0.1287
   64MOL   C62346109   7.241   5.641   2.510 -0.4155 -0.8327 -0.5006
   64MOL   O62446110   7.163   5.664   2.598  0.0227  0.2062  0.3676
   64MOL   C62546111   7.248   5.720   2.379 -0.2370  0.6216 -0.0843
   64MOL   C62646112   7.147   5.832   2.382  0.5807 -0.3008  0.3540
   64MOL   C62746113   7.223   5.612   2.271  0.5969 -0.5833  0.6889
   64MOL   H62846114   7.714   4.676   2.321  1.0179  0.6016 -1.6490
   64MOL   H62946115   0.038   4.665   2.467 -0.8346  0.3767 -0.0358
   64MOL   H63046116   0.063   4.794   2.356  0.1138  0.3623 -0.4905
   64MOL   H63146117   7.584   4.762   2.525 -2.1958  3.2958  1.4171
   64MOL   H63246118   7.720   4.850   2.575  0.0352 -0.3382 -0.9827
   64MOL   H63346119   7.552   4.896   2.319  0.0097 -0.5464 -0.5893
   64MOL   H63446120   7.690   5.002   2.375 -1.2780  0.7134 -1.3332
   64MOL   H63546121   7.573   5.082   2.558  1.2601 -1.6179 -0.6167
   64MOL   H63646122   7.438   4.977   2.545 -2.2385  2.2923 -0.5813
   64MOL   H63746123   7.528   5.193   2.350 -0.9896  0.3512 -1.4220
   64MOL   H63846124   7.397   5.075   2.322 -1.9572 -0.4583  1.1283
   64MOL   H63946125   7.273   5.267   2.420 -0.7619 -0.4165  0.9741
   64MOL   H64046126   7.297   5.148   2.535  0.5581  1.4618  0.5317
   64MOL   H64146127   7.518   5.347   2.548  0.0775  2.0152  1.6344
   64MOL   H64246128   7.436   5.265   2.674 -0.7424 -0.6382 -0.5142
   64MOL   H64346129   7.242   5.437   2.669 -0.0153 -0.8709 -0.4361
   64MOL   H64446130   7.391   5.496   2.707 -1.0076  0.1772 -0.1684
   64MOL   H64546131   7.137   5.878   2.284  0.4597 -1.1411 -0.0307
   64MOL   H64646132   7.186   5.903   2.455 -0.6504 -1.7624  2.4786
   64MOL   H64746133   7.049   5.791   2.404  0.0644 -0.0139 -1.3526
   64MOL   H64846134   7.281   5.520   2.281  0.0241 -0.7405  2.7645
   64MOL   H64946135   7.263   5.648   2.176 -2.8865  0.5328 -0.4433
   64MOL   C65046136   0.047   6.157   1.826  0.0683  0.5899  0.0075
   64MOL   C65146137   7.681   6.197   1.871  0.0226  0.3439 -0.4007
   64MOL   C65246138   7.565   6.118   1.808 -0.9886 -0.0125 -0.6153
   64MOL   C65346139   7.454   6.066   1.908 -0.4964 -0.0602 -0.1214
   64MOL   C65446140   7.324   6.032   1.843  0.1701  0.0885 -0.0094
   64MOL   C65546141   7.223   6.003   1.951  0.0376 -0.8092 -0.3005
   64MOL   C65646142   7.101   5.919   1.908 -0.5881 -0.6411 -0.3304
   64MOL   C65746143   7.013   5.861   2.026  0.4379 -0.4927  1.0407
   64MOL   O65846144   7.069   5.745   2.078 -0.0375  0.4758  0.4024
   64MOL   C65946145   6.998   5.668   2.170  0.2097  0.4002  0.3979
   64MOL   O66046146   6.879   5.686   2.199 -0.1284  0.0274 -0.0437
   64MOL   C66146147   7.084   5.558   2.225  0.2466 -0.3631 -0.5594
   64MOL   C66246148   7.015   5.497   2.352 -0.4810  0.3565  0.1194
   64MOL   C66346149   7.110   5.449   2.114 -0.2586 -0.0614 -0.2962
   64MOL   H66446150   0.065   6.053   1.856  2.6046  0.5253 -1.5396
   64MOL   H66546151   0.126   6.211   1.879  1.2349 -0.5380 -0.5281
   64MOL   H66646152   0.073   6.171   1.721 -1.6386 -1.3321 -0.7076
   64MOL   H66746153   7.678   6.305   1.858  0.4133  0.7422  2.5275
   64MOL   H66846154   7.666   6.180   1.977 -1.4583 -1.2615 -0.8424
   64MOL   H66946155   7.592   6.024   1.761  0.5193 -1.1039  2.3258
   64MOL   H67046156   7.512   6.173   1.730 -0.5958 -3.1857 -3.2070
   64MOL   H67146157   7.445   6.136   1.991 -0.1258 -0.7217  0.4800
   64MOL   H67246158   7.487   5.976   1.961 -1.1272 -2.1214 -3.1256
   64MOL   H67346159   7.338   5.938   1.788 -0.6631  0.0222 -0.1132
   64MOL   H67446160   7.278   6.106   1.778 -3.0147 -0.3754  1.6033
   64MOL   H67546161   7.268   5.949   2.035 -0.2126  0.4139  0.6341
   64MOL   H67646162   7.189   6.098   1.992 -0.6520 -0.4886 -1.5954
   64MOL   H67746163   7.135   5.831   1.854 -1.7516 -1.4433  0.2028
   64MOL   H67846164   7.030   5.978   1.849 -2.3854 -2.4605 -0.0687
   64MOL   H67946165   6.910   5.841   1.995  0.6343 -2.7994  1.7246
   64MOL   H68046166   7.009   5.939   2.102 -0.3599 -0.5653  1.0854
   64MOL   H68146167   7.081   5.426   2.403 -0.6640  1.4503  1.9193
   64MOL   H68246168   6.926   5.440   2.325  0.7357 -1.0838 -0.9409
   64MOL   H68346169   6.978   5.572   2.422  1.0968  2.2865 -1.0691
   64MOL   H68446170   7.183   5.489   2.044  0.2805 -1.4693 -0.5596
   64MOL   H68546171   7.166   5.364   2.152  0.1104  0.4104  0.2084
   64MOL   C68646172   6.634   6.346   1.981 -0.2588  0.0634  0.5236
   64MOL   C68746173   6.660   6.200   2.019 -0.5811 -0.1108 -0.3046
   64MOL   C68846174   6.553   6.108   1.945 -0.1404  0.1247 -0.1787
   64MOL   C68946175   6.580   5.955   1.962  0.6870 -0.1259 -0.5778
   64MOL   C69046176   6.668   5.898   1.851  0.5735 -0.7290 -0.4467
   64MOL   C69146177   6.678   5.749   1.868  0.2646 -0.2851  0.2195
   64MOL   C69246178   6.778   5.690   1.772 -0.5764 -0.2019 -0.7344
   64MOL   C69346179   6.777   5.539   1.763  0.1679 -0.5672  0.2436
   64MOL   O69446180   6.832   5.475   1.879  0.7231  0.6991  0.3262
   64MOL   C69546181   6.965   5.470   1.908  0.1237  0.9308 -0.0304
   64MOL   O69646182   7.050   5.538   1.850  0.2426  0.0587 -0.8078
   64MOL   C69746183   7.002   5.376   2.023  0.0398 -0.0755 -0.0761
   64MOL   C69846184   6.880   5.336   2.103 -0.9643 -0.1598 -0.7548
   64MOL   C69946185   7.061   5.240   1.962 -1.1628 -0.1320 -0.0253
   64MOL   H70046186   6.655   6.366   1.876 -1.3138 -1.6811 -0.0451
   64MOL   H70146187   6.702   6.407   2.041 -1.1216 -0.1196  1.7036
   64MOL   H70246188   6.529   6.362   2.005 -0.6627 -1.6472 -0.0393
   64MOL   H70346189   6.652   6.188   2.127 -0.5818 -0.2098 -0.3162
   64MOL   H70446190   6.759   6.166   1.988 -0.9531 -1.7565  0.2787
   64MOL   H70546191   6.545   6.129   1.839 -1.4702  1.2016  0.1175
   64MOL   H70646192   6.456   6.142   1.981 -0.4652  1.8307 -2.5749
   64MOL   H70746193   6.488   5.897   1.968  0.4461  0.0854 -1.9583
   64MOL   H70846194   6.624   5.933   2.059  1.6549  0.5016 -0.8656
   64MOL   H70946195   6.765   5.947   1.858  1.3804 -2.3292 -0.4094
   64MOL   H71046196   6.622   5.923   1.755 -1.1487 -1.8739  0.0530
   64MOL   H71146197   6.693   5.719   1.972 -2.2191  1.7035  1.2049
   64MOL   H71246198   6.579   5.708   1.846 -0.1994 -0.3215  2.2810
   64MOL   H71346199   6.746   5.727   1.674 -0.7107  1.8531  0.0769
   64MOL   H71446200   6.874   5.735   1.798 -0.8097 -0.5917  0.8092
   64MOL   H71546201   6.824   5.493   1.675  0.9021 -2.4805  1.6009
   64MOL   H71646202   6.676   5.501   1.773 -0.0255 -0.1281 -0.0589
   64MOL   H71746203   6.823   5.417   2.150 -1.1580  0.3462 -1.8560
   64MOL   H71846204   6.811   5.286   2.035  0.2452 -0.2863 -1.9039
   64MOL   H71946205   6.892   5.251   2.170 -0.9232 -1.1432 -1.9974
   64MOL   H72046206   7.146   5.260   1.897 -0.7493  0.2085  0.6155
   64MOL   H72146207   6.994   5.198   1.887  1.6908 -1.3861 -1.9614
   64MOL   H72246208   7.087   5.164   2.035 -1.4000  1.1876  1.4789
   65MOL     C146209   0.172   1.942   3.675  0.3543 -0.4750  0.0300
   65MOL     C246210   0.035   2.018   3.663 -0.0305  0.0038  0.0770
   65MOL     C346211   7.771   2.040   3.805  0.4112  0.3644  0.3808
   65MOL     C446212   7.675   2.156   3.817 -0.2003  0.2001 -0.0256
   65MOL     C546213   7.602   2.155   3.950 -0.3254 -0.4367 -0.4343
   65MOL     C646214   7.513   2.282   3.973  0.2142  0.0675  0.3523
   65MOL     C746215   7.439   2.279   4.112 -0.0623  0.4866 -0.2679
   65MOL     C846216   7.380   2.415   4.144 -0.7995 -0.5446 -0.3450
   65MOL     O946217   7.482   2.515   4.178 -0.0841 -0.6301 -0.3644
   65MOL    C1046218   7.536   2.530   4.294 -0.3616  0.3264 -0.8831
   65MOL    O1146219   7.516   2.456   4.391 -0.0509 -0.0944 -0.3665
   65MOL    C1246220   7.636   2.643   4.312 -0.0031 -0.2152 -0.4204
   65MOL    C1346221   7.549   2.770   4.300  0.2619  0.8482  0.0021
   65MOL    C1446222   7.717   2.645   4.444  0.2846 -0.2198 -0.2451
   65MOL    H1546223   0.240   1.994   3.743  1.1983  0.5494 -1.5634
   65MOL    H1646224   0.217   1.944   3.576  0.5518  1.2944  0.1405
   65MOL    H1746225   0.165   1.839   3.708 -0.1017 -0.3645  0.2890
   65MOL    H1846226   7.749   1.960   3.599  1.7493 -1.1648 -0.7300
   65MOL    H1946227   0.045   2.110   3.605  2.9677 -0.1280  0.3114
   65MOL    H2046228   7.725   1.942   3.821 -0.4088  0.6988  0.1118
   65MOL    H2146229   0.062   2.049   3.888  0.8776  0.4312 -0.0227
   65MOL    H2246230   7.722   2.253   3.798 -0.0309  0.3130  0.9106
   65MOL    H2346231   7.599   2.153   3.740  0.5925  2.8516 -0.9742
   65MOL    H2446232   7.679   2.140   4.026  0.9849  2.3908 -1.1666
   65MOL    H2546233   7.534   2.070   3.954 -0.0008 -0.7293 -1.2769
   65MOL    H2646234   7.437   2.295   3.897 -0.2730  1.2090  1.0266
   65MOL    H2746235   7.569   2.376   3.969 -0.5884  0.6140  1.7236
   65MOL    H2846236   7.514   2.240   4.181  1.1634 -0.1224 -1.9341
   65MOL    H2946237   7.365   2.199   4.120 -0.4426  0.8426 -0.1937
   65MOL    H3046238   7.297   2.412   4.215 -0.5915  0.6850 -0.0499
   65MOL    H3146239   7.335   2.451   4.052  1.4979  1.1791 -0.8268
   65MOL    H3246240   7.618   2.854   4.313  0.6794  0.3607  0.9884
   65MOL    H3346241   7.514   2.779   4.198 -0.2015 -0.4147  0.0483
   65MOL    H3446242   7.468   2.780   4.373  0.7789 -1.5308  0.9388
   65MOL    H3546243   7.660   2.606   4.528 -0.1173  2.2578  0.6592
   65MOL    H3646244   7.730   2.747   4.480  2.8160  0.0343 -1.7258
   65MOL    H3746245   7.711   2.640   4.232  1.0855  1.5954  0.4940
   65MOL    C3846246   1.030   3.350   4.296  0.6223 -0.4009 -0.7172
   65MOL    C3946247   0.880   3.343   4.249 -0.8395 -0.5099 -0.4244
   65MOL    C4046248   0.806   3.224   4.318 -0.4524 -0.3759 -0.5602
   65MOL    C4146249   0.658   3.212   4.265  0.5146 -0.2427 -0.1608
   65MOL    C4246250   0.601   3.081   4.318 -0.3424 -0.2082  0.1601
   65MOL    C4346251   0.455   3.050   4.268  0.3193 -0.3147 -0.2638
   65MOL    C4446252   0.380   2.936   4.342 -0.1043  0.3233  0.2459
   65MOL    C4546253   0.239   2.902   4.288 -0.4966 -0.7183  0.1847
   65MOL    O4646254   0.174   2.808   4.372  0.5127  0.3284  0.2210
   65MOL    C4746255   0.170   2.681   4.343 -0.5203  0.1223  0.0273
   65MOL    O4846256   0.225   2.638   4.241 -0.3396  0.1101 -0.4033
   65MOL    C4946257   0.080   2.591   4.442 -0.0949 -0.0184 -0.5117
   65MOL    C5046258   0.078   2.447   4.385  0.2074  0.4184 -0.3835
   65MOL    C5146259   0.128   2.594   4.590 -0.2846 -0.3374 -0.2049
   65MOL    H5246260   1.063   3.453   4.300  0.6119 -0.4311  0.2151
   65MOL    H5346261   1.088   3.290   4.226 -0.3753 -0.9981 -1.0593
   65MOL    H5446262   1.038   3.303   4.394  1.3096  0.8034 -0.1888
   65MOL    H5546263   0.866   3.345   4.141 -3.9985  0.8902 -0.0617
   65MOL    H5646264   0.825   3.434   4.271  2.1607  1.3710 -0.4392
   65MOL    H5746265   0.869   3.139   4.293  1.7137  1.5977 -1.9564
   65MOL    H5846266   0.805   3.239   4.426 -0.2037  1.1405 -0.7525
   65MOL    H5946267   0.662   3.203   4.157 -0.6256 -0.7774 -0.1623
   65MOL    H6046268   0.597   3.296   4.297  2.2825  0.8597  0.4010
   65MOL    H6146269   0.667   3.004   4.279  0.6194  0.5792  0.2039
   65MOL    H6246270   0.607   3.082   4.427  2.6836  1.7599  0.0629
   65MOL    H6346271   0.393   3.139   4.282  2.4458  0.9803  1.2897
   65MOL    H6446272   0.461   3.038   4.160 -0.5262  0.2576 -0.3799
   65MOL    H6546273   0.374   2.952   4.450 -0.1841  1.1489  0.1217
   65MOL    H6646274   0.444   2.849   4.327  0.4756  0.8221 -0.2111
   65MOL    H6746275   0.240   2.884   4.181  1.9360 -0.3521  0.1153
   65MOL    H6846276   0.188   2.996   4.312  0.9073 -0.2617  1.4777
   65MOL    H6946277   0.042   2.425   4.284 -1.0963 -0.6215  0.2922
   65MOL    H7046278   0.174   2.395   4.391 -1.2517 -2.2273  0.8344
   65MOL    H7146279   0.011   2.386   4.445 -0.1570 -0.7777 -1.9622
   65MOL    H7246280   0.054   2.537   4.647 -0.9581 -0.2585 -0.9944
   65MOL    H7346281   0.103   2.696   4.618 -0.0348  0.0072 -1.2098
   65MOL    C7446282   0.376   1.770   5.430 -0.0871 -0.2293 -0.2778
   65MOL    C7546283   0.466   1.778   5.307  0.1775 -0.3666  0.5439
   65MOL    C7646284   0.432   1.897   5.223 -0.2251 -0.0937  0.6075
   65MOL    C7746285   0.295   1.904   5.157  0.1029  0.4966 -0.5276
   65MOL    C7846286   0.287   2.043   5.075 -0.4335  0.0953 -0.5285
   65MOL    C7946287   0.159   2.054   4.992  0.6144 -0.8908  0.1413
   65MOL    C8046288   0.134   2.194   4.930  0.1035  0.2095  0.0494
   65MOL    C8146289   0.219   2.209   4.803  0.1868 -0.8255  0.0604
   65MOL    O8246290   0.196   2.342   4.750  0.6628  0.0478  0.2749
   65MOL    C8346291   0.286   2.393   4.662 -0.5809  0.3557  0.8526
   65MOL    O8446292   0.378   2.324   4.615  0.2687  0.2387 -0.5952
   65MOL    C8546293   0.269   2.549   4.643 -0.0351 -0.2497 -0.3249
   65MOL    C8646294   0.375   2.612   4.549  0.1430  0.1651 -0.3472
   65MOL    C8746295   0.274   2.614   4.785  0.5039  0.2226  0.1273
   65MOL    H8846296   0.358   1.667   5.460 -2.3599  0.6089  1.3324
   65MOL    H8946297   0.272   1.802   5.428 -0.3043 -0.6680  2.1461
   65MOL    H9046298   0.421   1.827   5.511  2.9925  0.1132 -2.1171
   65MOL    H9146299   0.445   1.690   5.246 -0.0354 -0.7710  1.1863
   65MOL    H9246300   0.573   1.789   5.327  0.0842 -1.3196  1.6481
   65MOL    H9346301   0.446   1.988   5.282  0.5996  0.5649 -0.5622
   65MOL    H9446302   0.516   1.902   5.154 -1.1320 -3.8079 -0.8834
   65MOL    H9546303   0.221   1.891   5.236 -0.1957 -0.0712 -0.8973
   65MOL    H9646304   0.272   1.818   5.093  1.0416  0.5491 -0.9400
   65MOL    H9746305   0.285   2.126   5.145 -1.2169  1.2162 -1.8816
   65MOL    H9846306   0.378   2.052   5.016  1.6104 -1.6795  2.1452
   65MOL    H9946307   0.157   1.969   4.925 -0.5779 -0.9461  0.2360
   65MOL   H10046308   0.072   2.040   5.057 -0.6247 -0.0536 -1.3105
   65MOL   H10146309   0.030   2.201   4.899 -0.1789 -1.3463  0.5646
   65MOL   H10246310   0.170   2.261   5.009 -1.9637  0.9575  0.3933
   65MOL   H10346311   0.192   2.137   4.725 -0.7657 -0.8929  0.4364
   65MOL   H10446312   0.323   2.182   4.822  0.5036  0.0636 -0.3839
   65MOL   H10546313   0.369   2.568   4.449 -1.6483 -1.9337  0.6417
   65MOL   H10646314   0.478   2.582   4.571 -0.3114 -0.3706  1.0750
   65MOL   H10746315   0.358   2.717   4.525 -0.0355  0.3132  0.4114
   65MOL   H10846316   0.224   2.711   4.776 -1.4014 -0.8280 -0.9183
   65MOL   H10946317   0.210   2.553   4.850  1.5956 -1.6596 -0.5284
   65MOL   C11046318   0.495   3.496   5.179 -0.3934  0.0149  0.3169
   65MOL   C11146319   0.449   3.567   5.050 -0.5242 -0.3011  0.2680
   65MOL   C11246320   0.434   3.480   4.924  0.0012  0.0504  0.0720
   65MOL   C11346321   0.310   3.384   4.939  0.5470 -0.6260 -0.2450
   65MOL   C11446322   0.309   3.275   4.828 -0.1951  0.0946 -0.1337
   65MOL   C11546323   0.408   3.159   4.843  0.7421 -0.0714 -0.2479
   65MOL   C11646324   0.443   3.094   4.711 -0.9208 -0.0998  0.1193
   65MOL   C11746325   0.524   2.964   4.722  0.0549  0.0333 -0.0009
   65MOL   O11846326   0.444   2.856   4.763 -0.2298  0.1890 -0.4184
   65MOL   C11946327   0.509   2.740   4.810  1.0008  0.1243  0.9908
   65MOL   O12046328   0.630   2.717   4.814  0.5369 -0.3320 -0.2472
   65MOL   C12146329   0.404   2.646   4.879  1.0303  0.0582  1.5710
   65MOL   C12246330   0.469   2.507   4.913  0.7184 -0.8076 -0.5449
   65MOL   C12346331   0.358   2.715   5.011  0.3262 -0.0715  0.5327
   65MOL   H12446332   0.585   3.439   5.156 -1.4133 -0.7810 -1.7973
   65MOL   H12546333   0.512   3.551   5.271  0.8136  2.5944 -1.3837
   65MOL   H12646334   0.417   3.431   5.220 -0.1263  0.4596  1.5516
   65MOL   H12746335   0.536   3.628   5.027  0.9313 -2.8832 -1.3233
   65MOL   H12846336   0.373   3.644   5.062  0.9111  1.2005 -0.0744
   65MOL   H12946337   0.514   3.408   4.910 -0.1843 -0.1931  0.2478
   65MOL   H13046338   0.430   3.538   4.832  0.0379 -0.0097  0.0329
   65MOL   H13146339   0.304   3.338   5.038 -0.6348  0.1747  0.0569
   65MOL   H13246340   0.234   3.462   4.932  0.4342 -0.7697 -0.6277
   65MOL   H13346341   0.327   3.308   4.726  1.1965 -1.3883 -0.3822
   65MOL   H13446342   0.214   3.221   4.821  0.8930 -1.7407 -1.1991
   65MOL   H13546343   0.494   3.182   4.906 -0.5647 -0.6790  1.8190
   65MOL   H13646344   0.359   3.079   4.898  0.3232  0.4262  0.1084
   65MOL   H13746345   0.497   3.157   4.641 -0.0732 -1.2405 -0.2771
   65MOL   H13846346   0.355   3.072   4.649 -1.8710  1.3405  0.9375
   65MOL   H13946347   0.566   2.943   4.624  0.0749  0.0798 -0.0015
   65MOL   H14046348   0.617   2.968   4.779  1.0391 -2.4054 -1.3649
   65MOL   H14146349   0.408   2.435   4.967 -0.3391  0.0334 -0.6198
   65MOL   H14246350   0.502   2.453   4.823 -1.4097 -0.2679 -1.6704
   65MOL   H14346351   0.567   2.511   4.960  0.3107  0.1072  0.2222
   65MOL   H14446352   0.261   2.678   5.043 -0.8764  1.3262 -1.4090
   65MOL   H14546353   0.329   2.813   4.974 -0.0640 -1.1704 -2.1961
   65MOL   C14646354   0.401   2.490   6.101  0.4046 -0.2459  0.2220
   65MOL   C14746355   0.406   2.525   5.947 -0.0632  0.5701  0.2722
   65MOL   C14846356   0.282   2.474   5.872 -0.0127 -0.0962 -0.1365
   65MOL   C14946357   0.305   2.507   5.721 -0.1757 -1.2379 -0.0407
   65MOL   C15046358   0.184   2.456   5.648 -0.7319  0.4322  0.0843
   65MOL   C15146359   0.191   2.479   5.495  0.7342  0.1485  0.0734
   65MOL   C15246360   0.299   2.398   5.435  0.3442  0.5576  0.1575
   65MOL   C15346361   0.296   2.408   5.284 -0.3145  0.3104 -0.0982
   65MOL   O15446362   0.319   2.537   5.225  0.0120 -0.1788  0.0538
   65MOL   C15546363   0.443   2.591   5.219 -0.0141  0.6604  0.4224
   65MOL   O15646364   0.546   2.536   5.256 -0.0604  0.2351 -0.2902
   65MOL   C15746365   0.436   2.730   5.146  0.2600  0.1246  0.6088
   65MOL   C15846366   0.583   2.776   5.127  0.3974 -0.3496 -0.6050
   65MOL   C15946367   0.363   2.842   5.230 -0.0615 -0.3762 -0.0246
   65MOL   H16046368   0.420   2.384   6.118  0.1250 -0.7692 -2.5100
   65MOL   H16146369   0.303   2.516   6.141 -0.2809 -0.8269 -1.0315
   65MOL   H16246370   0.479   2.549   6.149  0.4713 -1.1267  1.1988
   65MOL   H16346371   0.415   2.633   5.938  2.3579  0.3413 -0.5736
   65MOL   H16446372   0.490   2.476   5.898 -1.1075  0.5284 -1.5204
   65MOL   H16546373   0.191   2.520   5.912  0.2411 -0.1310  0.4979
   65MOL   H16646374   0.272   2.367   5.887 -0.7120 -0.0712 -0.4321
   65MOL   H16746375   0.338   2.609   5.699  0.2764 -1.6627 -1.3636
   65MOL   H16846376   0.388   2.449   5.681  0.7336  0.5999 -0.9038
   65MOL   H16946377   0.101   2.507   5.697  0.3971 -0.7822  3.4519
   65MOL   H17046378   0.180   2.350   5.674  0.7902  0.3759  0.1668
   65MOL   H17146379   0.190   2.586   5.473 -1.2865  0.1450  0.0180
   65MOL   H17246380   0.094   2.451   5.453  0.7670 -1.2046  0.8947
   65MOL   H17346381   0.396   2.424   5.477  0.2389 -1.2735  1.6321
   65MOL   H17446382   0.285   2.295   5.468  0.8503 -0.4354 -2.5540
   65MOL   H17546383   0.382   2.357   5.241 -0.4374  0.9016 -1.0471
   65MOL   H17646384   0.196   2.383   5.247  0.4589  0.0614 -2.0212
   65MOL   H17746385   0.629   2.790   5.225 -0.0219 -1.7608 -0.1916
   65MOL   H17846386   0.598   2.868   5.070  2.0512 -0.4063 -0.2744
   65MOL   H17946387   0.650   2.709   5.073  2.0191  0.7520 -0.0043
   65MOL   H18046388   0.288   2.782   5.281 -0.1663  0.5678  0.9414
   65MOL   H18146389   0.322   2.920   5.166 -1.6086 -0.1657  1.2018
   65MOL   C18246390   0.725   3.162   6.265 -0.3042 -0.4255 -0.3946
   65MOL   C18346391   0.801   3.267   6.188  0.1394  0.6082  0.0551
   65MOL   C18446392   0.872   3.224   6.062 -0.1964  0.0869  0.0551
   65MOL   C18546393   0.774   3.183   5.950 -0.1509  0.0247 -0.1893
   65MOL   C18646394   0.838   3.161   5.809 -0.4619  0.0588  0.2937
   65MOL   C18746395   0.728   3.141   5.695 -0.6262 -0.3996 -0.6580
   65MOL   C18846396   0.793   3.142   5.554 -0.0533 -0.2048  0.2649
   65MOL   C18946397   0.696   3.171   5.440 -0.3619  0.1075  0.2960
   65MOL   O19046398   0.592   3.075   5.446 -0.4294 -0.0048  0.5051
   65MOL   C19146399   0.531   3.026   5.332 -0.2640 -0.3343  0.2539
   65MOL   O19246400   0.552   3.068   5.221 -0.1921  0.1796  0.4138
   65MOL   C19346401   0.425   2.909   5.363 -0.3407 -0.6481 -0.6452
   65MOL   C19446402   0.491   2.800   5.453 -0.3521  0.0993  0.2702
   65MOL   C19546403   0.315   2.973   5.452  0.0280 -0.3716 -0.6716
   65MOL   H19646404   0.682   3.188   6.361  2.9300 -2.4030  1.6759
   65MOL   H19746405   0.637   3.129   6.210  0.0094 -0.2947 -0.9812
   65MOL   H19846406   0.780   3.068   6.275  0.0714 -0.2969 -1.1844
   65MOL   H19946407   0.877   3.308   6.255 -0.2279  0.2135  0.7280
   65MOL   H20046408   0.738   3.354   6.166  0.9590  0.3207 -3.6750
   65MOL   H20146409   0.939   3.299   6.020 -0.9971  0.6607 -0.2255
   65MOL   H20246410   0.942   3.143   6.081 -1.2965 -0.9078 -0.0932
   65MOL   H20346411   0.725   3.090   5.978 -3.5506  0.5174 -4.0162
   65MOL   H20446412   0.695   3.258   5.941  0.0794  0.2446 -0.3606
   65MOL   H20546413   0.898   3.069   5.807 -1.2325 -0.4306 -0.5364
   65MOL   H20646414   0.900   3.247   5.788  1.1745 -0.8982  1.1064
   65MOL   H20746415   0.650   3.217   5.699 -1.1217 -0.9738  1.4888
   65MOL   H20846416   0.670   3.050   5.715 -1.0490 -0.1970 -0.9560
   65MOL   H20946417   0.874   3.215   5.563 -1.4144  1.5349 -1.2359
   65MOL   H21046418   0.828   3.040   5.539  2.7264  0.9290 -1.3198
   65MOL   H21146419   0.743   3.167   5.342 -1.9107 -0.1205 -0.4542
   65MOL   H21246420   0.643   3.266   5.445 -1.8370 -0.5329 -2.2292
   65MOL   H21346421   0.588   2.761   5.421 -0.2494 -0.1070  0.8393
   65MOL   H21446422   0.508   2.842   5.552  2.0956 -2.5318  1.0190
   65MOL   H21546423   0.437   2.705   5.458 -1.5700  0.3828 -4.5110
   65MOL   H21646424   0.278   2.896   5.521  1.8887 -1.9705 -1.4198
   65MOL   H21746425   0.361   3.055   5.507 -0.2691 -1.3012  1.0006
   65MOL   C21846426   0.095   3.200   4.468 -0.0794 -0.0951 -0.6889
   65MOL   C21946427   7.776   3.095   4.523 -0.0428  0.2582 -1.2253
   65MOL   C22046428   0.021   3.056   4.670  0.4471  0.7270  0.0826
   65MOL   C22146429   7.699   2.958   4.728 -0.7417 -0.0782 -0.1483
   65MOL   C22246430   7.731   2.897   4.864 -0.1672  0.2312 -0.1017
   65MOL   C22346431   7.687   2.988   4.981 -0.3737 -0.0581 -0.1318
   65MOL   C22446432   7.670   2.915   5.109 -0.1166 -0.0143 -0.4020
   65MOL   C22546433   7.640   3.001   5.231 -0.4441  0.0997 -0.3712
   65MOL   O22646434   7.765   3.056   5.286  0.5539 -0.7981  0.4191
   65MOL   C22746435   0.072   2.984   5.352 -0.4918 -0.5448 -0.3235
   65MOL   O22846436   0.059   2.863   5.376 -0.0339  0.0605  0.0625
   65MOL   C22946437   0.196   3.069   5.398 -0.2107 -0.2935  0.5631
   65MOL   C23046438   0.240   3.172   5.286  0.2125  0.1706  1.0798
   65MOL   C23146439   0.127   3.154   5.519 -0.0201  0.0816  0.7129
   65MOL   H23246440   0.063   3.300   4.497 -0.2224  0.0772 -1.4249
   65MOL   H23346441   0.101   3.213   4.360  2.1600 -1.2510 -0.7390
   65MOL   H23446442   0.200   3.178   4.489 -0.3878 -0.0930  0.9209
   65MOL   H23546443   0.001   3.009   4.456 -0.2300 -1.4800  0.9515
   65MOL   H23646444   7.676   3.137   4.523  0.4831  1.6086  0.6876
   65MOL   H23746445   0.123   3.018   4.680  1.0442  1.6154 -2.3546
   65MOL   H23846446   0.009   3.150   4.722  1.9997  0.1810  1.4832
   65MOL   H23946447   7.599   3.003   4.732  0.2566  2.2285 -0.3396
   65MOL   H24046448   7.687   2.879   4.654 -2.2340 -0.0645  0.0634
   65MOL   H24146449   7.678   2.802   4.877  1.4954 -0.6579  0.2744
   65MOL   H24246450   0.056   2.869   4.876  0.2470  1.2890 -1.0906
   65MOL   H24346451   7.753   3.073   4.997 -0.3831 -0.2781  1.1531
   65MOL   H24446452   7.600   3.044   4.947  1.4541  2.4587 -0.8121
   65MOL   H24546453   7.752   2.846   5.128  0.3804  0.6072 -0.2816
   65MOL   H24646454   7.580   2.856   5.092  0.6437 -1.2910  0.0084
   65MOL   H24746455   7.603   2.946   5.318 -2.4038 -2.0378 -2.4866
   65MOL   H24846456   7.565   3.077   5.210 -1.4612 -0.8626 -0.2640
   65MOL   H24946457   0.303   3.253   5.324 -0.5349  0.5956  1.4291
   65MOL   H25046458   0.155   3.219   5.236  0.5780 -0.9201 -0.6197
   65MOL   H25146459   0.287   3.126   5.199  0.7528 -0.9155  1.9292
   65MOL   H25246460   0.194   3.237   5.542  1.1850  0.7333 -4.4051
   65MOL   H25346461   0.042   3.207   5.477 -0.2001 -0.7456  0.0190
   65MOL   C25446462   7.289   2.656   6.130  0.0450  0.2991  0.8989
   65MOL   C25546463   7.436   2.660   6.177 -0.1460 -0.0191 -0.2168
   65MOL   C25646464   7.522   2.758   6.107  0.1238  0.1209  0.0920
   65MOL   C25746465   7.667   2.736   6.154  0.0950 -0.4700 -0.6074
   65MOL   C25846466   7.756   2.840   6.075 -0.3217 -0.6426  0.5793
   65MOL   C25946467   0.126   2.808   6.110  0.0023 -0.2848  0.0871
   65MOL   C26046468   0.229   2.922   6.076 -0.3171  0.9855 -0.5821
   65MOL   C26146469   0.296   2.907   5.937  0.3761  0.1107  0.3545
   65MOL   O26246470   0.196   2.958   5.852  0.1967 -0.2864 -0.5361
   65MOL   C26346471   0.212   3.064   5.757 -0.3163  0.0018 -0.3350
   65MOL   O26446472   0.317   3.122   5.736 -0.0647  0.1215  0.0195
   65MOL   C26546473   0.088   3.093   5.668 -0.2308  0.4275  0.1496
   65MOL   C26646474   0.015   2.959   5.659 -0.6925 -0.4990  0.7393
   65MOL   C26746475   7.758   3.191   5.741 -0.1118 -0.2543 -0.5840
   65MOL   H26846476   7.242   2.752   6.149  0.1971  0.7594 -1.0076
   65MOL   H26946477   7.288   2.641   6.022  1.5259  3.0221  0.4673
   65MOL   H27046478   7.236   2.566   6.161 -0.3442  0.6433  1.2362
   65MOL   H27146479   7.437   2.671   6.285 -0.9427  0.3037 -0.2435
   65MOL   H27246480   7.475   2.561   6.153 -1.6796 -0.6164 -0.3245
   65MOL   H27346481   7.483   2.859   6.119 -0.5636 -0.1751  0.3571
   65MOL   H27446482   7.510   2.732   6.002  0.4990  2.6334 -0.6054
   65MOL   H27546483   7.703   2.635   6.139 -1.2848 -0.8989 -1.0657
   65MOL   H27646484   7.669   2.769   6.258  0.6153  3.4216 -1.7486
   65MOL   H27746485   7.739   2.824   5.969  0.3870 -0.5767  0.4538
   65MOL   H27846486   7.726   2.934   6.121  0.9311  1.4443 -2.6938
   65MOL   H27946487   0.165   2.719   6.061 -1.1035 -0.2997 -0.7806
   65MOL   H28046488   0.123   2.791   6.218  0.1284  0.7161  0.2542
   65MOL   H28146489   0.175   3.017   6.079  0.7476  1.5510  0.7676
   65MOL   H28246490   0.299   2.920   6.159 -0.8779 -0.4724 -0.1205
   65MOL   H28346491   0.389   2.961   5.923 -0.6725  1.7033 -0.5693
   65MOL   H28446492   0.312   2.803   5.906  0.1149  0.5736 -1.4169
   65MOL   H28546493   7.712   2.959   5.588 -0.2512  0.8689  0.2063
   65MOL   H28646494   0.073   2.875   5.620  0.3118 -0.5497  2.2902
   65MOL   H28746495   7.760   2.926   5.757 -3.2400 -0.5913 -0.1610
   65MOL   H28846496   7.745   3.144   5.838  0.3132  1.3731  0.2855
   65MOL   H28946497   7.662   3.191   5.689 -0.6771 -0.7013  0.4335
   65MOL   C29046498   0.429   2.849   6.456  0.0472 -0.0481  0.0102
   65MOL   C29146499   0.374   2.947   6.554  0.0391  0.6102 -1.0821
   65MOL   C29246500   0.395   3.092   6.515  0.0249  0.1690 -0.2516
   65MOL   C29346501   0.329   3.120   6.374  0.9934 -0.2126  0.3074
   65MOL   C29446502   0.331   3.273   6.353  0.4454  0.9861  0.1350
   65MOL   C29546503   0.278   3.335   6.225  0.4809  0.0555  0.0028
   65MOL   C29646504   0.351   3.286   6.102  0.3264  0.2713  0.7854
   65MOL   C29746505   0.317   3.347   5.969  0.1470 -0.7026  0.8015
   65MOL   O29846506   0.181   3.323   5.930 -0.6343 -0.1840 -0.2951
   65MOL   C29946507   0.138   3.388   5.820 -0.5038  0.1331  0.1628
   65MOL   O30046508   0.207   3.472   5.762  0.3579 -0.1883  0.0039
   65MOL   C30146509   7.777   3.345   5.768  0.1218 -0.4820  0.4237
   65MOL   C30246510   7.751   3.428   5.627 -0.1710  0.1207  0.3904
   65MOL   C30346511   7.660   3.405   5.861  0.0301  0.1186 -0.0446
   65MOL   H30446512   0.359   2.849   6.373 -0.2203  1.2389  0.2291
   65MOL   H30546513   0.423   2.750   6.500  1.0170  0.4423  1.2667
   65MOL   H30646514   0.531   2.865   6.422  0.0833 -3.2858 -1.5207
   65MOL   H30746515   0.418   2.934   6.654 -0.5793 -2.3149 -1.1404
   65MOL   H30846516   0.271   2.923   6.580 -0.3372  0.7946 -2.3806
   65MOL   H30946517   0.502   3.104   6.498 -0.0795  0.6432 -0.6004
   65MOL   H31046518   0.367   3.164   6.591  2.2967 -0.4126  1.1846
   65MOL   H31146519   0.371   3.063   6.291  0.0689  0.1514 -0.4129
   65MOL   H31246520   0.232   3.070   6.378  2.2428 -2.7645  0.1323
   65MOL   H31346521   0.276   3.316   6.436  0.5797  0.3557  0.5542
   65MOL   H31446522   0.438   3.285   6.370  0.9021 -0.3050 -1.6838
   65MOL   H31546523   0.283   3.444   6.232  1.8980  0.0879 -1.2096
   65MOL   H31646524   0.179   3.292   6.209  1.3479 -1.8649 -0.3101
   65MOL   H31746525   0.341   3.178   6.096  1.0007  0.3260 -1.9742
   65MOL   H31846526   0.456   3.303   6.124  0.3891 -0.9301  1.4242
   65MOL   H31946527   0.379   3.309   5.888 -0.2030  0.1962  0.1052
   65MOL   H32046528   0.321   3.456   5.975 -1.5191 -0.6350  0.7763
   65MOL   H32146529   7.742   3.536   5.637  1.0554  0.3906 -1.3122
   65MOL   H32246530   7.660   3.390   5.579 -0.9771  1.8681  0.5198
   65MOL   H32346531   0.046   3.405   5.551 -0.6820  0.9370 -0.3611
   65MOL   H32446532   7.697   3.497   5.905 -1.0554 -0.1407  1.4644
   65MOL   H32546533   7.577   3.425   5.793  0.7245 -0.3515 -1.0387
   65MOL   C32646534   6.549   3.135   5.650  0.1868  0.4585  0.1034
   65MOL   C32746535   6.693   3.098   5.642  0.3805 -0.0284  0.1083
   65MOL   C32846536   6.768   3.136   5.766  0.7307 -0.4351  0.3271
   65MOL   C32946537   6.917   3.134   5.741  0.0739 -0.5549  0.3979
   65MOL   C33046538   6.990   3.226   5.833 -0.8805  0.6963 -0.5970
   65MOL   C33146539   7.141   3.229   5.795 -0.0428 -0.3309 -0.4146
   65MOL   C33246540   7.223   3.114   5.844 -0.5615 -0.0221  0.2589
   65MOL   C33346541   7.367   3.104   5.780 -0.6165  0.1324  0.1613
   65MOL   O33446542   7.439   3.208   5.834 -0.4762 -0.2161  0.0179
   65MOL   C33546543   7.520   3.192   5.943  0.8835 -0.1088 -0.3808
   65MOL   O33646544   7.547   3.085   5.999 -0.1005  0.4397  0.1472
   65MOL   C33746545   7.585   3.327   5.975 -0.3309 -0.5068 -0.1715
   65MOL   C33846546   7.703   3.306   6.075 -0.3053  0.2654  0.0945
   65MOL   C33946547   7.469   3.413   6.029  0.1566 -0.1151  0.3520
   65MOL   H34046548   6.502   3.064   5.582 -0.3458  0.4153  0.5143
   65MOL   H34146549   6.522   3.239   5.627 -0.3256  0.4997  0.8761
   65MOL   H34246550   6.508   3.111   5.748 -0.6954 -0.8357 -0.5847
   65MOL   H34346551   6.745   3.140   5.556  0.6960 -0.5770  0.0279
   65MOL   H34446552   6.717   2.993   5.622  0.8081  0.4274 -1.8863
   65MOL   H34546553   6.727   3.078   5.849 -0.2103  0.3689  0.4373
   65MOL   H34646554   6.743   3.239   5.789  0.5350  0.0293 -1.8705
   65MOL   H34746555   6.957   3.170   5.646  0.0246  0.0063  0.5891
   65MOL   H34846556   6.959   3.033   5.741 -0.9589 -0.9875 -0.3914
   65MOL   H34946557   6.956   3.329   5.817 -1.3019  0.3876 -1.7840
   65MOL   H35046558   6.984   3.203   5.939 -0.7455 -0.1998 -0.7819
   65MOL   H35146559   7.164   3.250   5.691 -1.0297 -1.7414 -0.9485
   65MOL   H35246560   7.182   3.312   5.852 -0.7709  0.4068 -0.9727
   65MOL   H35346561   7.168   3.021   5.841 -0.0870 -0.3389  1.2205
   65MOL   H35446562   7.242   3.134   5.950  1.0095  0.3179 -0.0770
   65MOL   H35546563   7.417   3.011   5.805  1.1656  1.0969  0.2229
   65MOL   H35646564   7.365   3.108   5.672 -2.3475 -0.5700  0.1427
   65MOL   H35746565   7.747   3.400   6.106  1.5520 -1.2259  2.1360
   65MOL   H35846566   7.676   3.263   6.172  0.2392  1.7086  0.8882
   65MOL   H35946567   7.775   3.235   6.033 -2.2347 -2.4042  1.1717
   65MOL   H36046568   7.496   3.516   6.004 -0.2921  0.4496  2.1609
   65MOL   H36146569   7.383   3.388   5.967 -1.1523  1.5189  1.4564
   65MOL   C36246570   6.271   3.368   5.973 -0.3352 -0.0973 -0.2875
   65MOL   C36346571   6.402   3.416   5.913 -0.2683  0.6787 -0.6176
   65MOL   C36446572   6.536   3.358   5.989  0.2420  0.3334 -0.4688
   65MOL   C36546573   6.555   3.413   6.130  0.6399  0.0283  1.1029
   65MOL   C36646574   6.689   3.360   6.198 -0.1599  0.7799  0.1448
   65MOL   C36746575   6.803   3.430   6.130 -0.4187  0.1620  0.3623
   65MOL   C36846576   6.945   3.411   6.187 -1.0751  0.1757 -0.5779
   65MOL   C36946577   7.057   3.503   6.126 -0.5167  0.0275 -1.0947
   65MOL   O37046578   7.180   3.441   6.144  0.0205 -0.6725 -0.2046
   65MOL   C37146579   7.293   3.513   6.180  0.5777 -0.3371 -0.5502
   65MOL   O37246580   7.299   3.632   6.201 -0.6362 -0.2814 -0.2139
   65MOL   C37346581   7.421   3.426   6.179 -0.0446  0.0438  0.3289
   65MOL   C37446582   7.518   3.503   6.266 -0.1939  0.4906 -0.3425
   65MOL   C37546583   7.389   3.277   6.239 -0.8638 -0.6610  0.8861
   65MOL   H37646584   6.292   3.278   6.031  1.2179  0.0013 -0.6679
   65MOL   H37746585   6.220   3.448   6.026 -2.5498 -0.1566 -2.2351
   65MOL   H37846586   6.205   3.346   5.889 -0.0828  3.6277 -1.5250
   65MOL   H37946587   6.403   3.525   5.911 -1.6598  0.7101 -0.4269
   65MOL   H38046588   6.397   3.382   5.809 -0.2006 -2.8475  0.4695
   65MOL   H38146589   6.609   3.404   5.923 -0.8380 -1.2815 -2.8532
   65MOL   H38246590   6.547   3.250   5.978  1.5968  0.5719 -1.6692
   65MOL   H38346591   6.470   3.395   6.195  1.3825 -4.2199  1.0835
   65MOL   H38446592   6.552   3.521   6.121 -1.4288  0.2029  3.3623
   65MOL   H38546593   6.694   3.383   6.304 -1.5342  0.1688  0.3598
   65MOL   H38646594   6.699   3.251   6.190 -0.3743  0.7035  0.9308
   65MOL   H38746595   6.785   3.537   6.127 -0.5161  0.1518  0.6360
   65MOL   H38846596   6.808   3.412   6.022 -1.3207  0.5838  0.2486
   65MOL   H38946597   6.960   3.312   6.144 -1.2100 -0.0503 -0.1129
   65MOL   H39046598   6.928   3.418   6.295  0.9687  2.4646 -0.3693
   65MOL   H39146599   7.029   3.520   6.022  0.7023 -1.4707 -1.6901
   65MOL   H39246600   7.056   3.600   6.177 -1.0902 -0.0659 -0.9276
   65MOL   H39346601   7.617   3.457   6.260 -0.5382 -0.1756 -0.9720
   65MOL   H39446602   7.538   3.596   6.212  2.2960  0.0027 -0.3264
   65MOL   H39546603   7.482   3.532   6.365 -0.5716 -1.1865  0.0264
   65MOL   H39646604   7.309   3.237   6.177  0.5821  0.0484 -1.5009
   65MOL   H39746605   7.472   3.214   6.207  0.1692  1.7126 -1.3454
   65MOL   C39846606   7.668   2.423   6.418  0.0242  0.5194  0.2349
   65MOL   C39946607   0.004   2.434   6.518 -0.3136 -0.3087  0.3321
   65MOL   C40046608   0.017   2.557   6.600  0.6033  0.5254  0.4064
   65MOL   C40146609   0.002   2.686   6.523 -0.1921 -0.0155 -0.2061
   65MOL   C40246610   7.776   2.820   6.604 -0.2144 -0.3648 -0.7602
   65MOL   C40346611   7.727   2.930   6.510 -0.0766  0.5472  0.0225
   65MOL   C40446612   7.742   3.073   6.564  0.2639 -0.3388 -0.2122
   65MOL   C40546613   7.720   3.178   6.463 -0.0036  0.1712  0.2954
   65MOL   O40646614   7.587   3.179   6.418 -0.2221 -0.0879  0.4963
   65MOL   C40746615   7.497   3.261   6.469 -0.3088 -0.1603  0.5966
   65MOL   O40846616   7.508   3.335   6.565  0.0495 -0.5810 -0.2830
   65MOL   C40946617   7.361   3.237   6.388 -0.1703 -0.1453 -0.3837
   65MOL   C41046618   7.243   3.326   6.439 -0.3433 -0.8358 -0.4385
   65MOL   C41146619   7.315   3.088   6.384 -0.3852 -1.0022 -0.3139
   65MOL   H41246620   7.656   2.317   6.394 -1.0675  0.6754  0.0521
   65MOL   H41346621   7.690   2.473   6.324 -0.7038 -0.7961 -0.6477
   65MOL   H41446622   7.573   2.464   6.455  0.0967  0.1425  0.8396
   65MOL   H41546623   0.092   2.421   6.455 -0.4135 -0.9258  0.3154
   65MOL   H41646624   7.779   2.355   6.593 -0.6306  0.9136  1.6271
   65MOL   H41746625   7.717   2.560   6.675 -1.8229  0.0551 -2.0534
   65MOL   H41846626   0.109   2.555   6.659  0.0303  0.0441  1.2946
   65MOL   H41946627   7.693   2.674   6.461 -1.6110  3.0152  1.1513
   65MOL   H42046628   0.087   2.699   6.456  1.7613  1.1207  2.4173
   65MOL   H42146629   7.716   2.809   6.694  2.1051  0.1901  0.8988
   65MOL   H42246630   0.095   2.843   6.642  0.9426 -3.0760 -1.9574
   65MOL   H42346631   7.619   2.919   6.495  0.0980 -2.0829  0.5326
   65MOL   H42446632   7.777   2.921   6.413  1.9768  0.3406  1.0918
   65MOL   H42546633   7.667   3.096   6.639  0.2744  0.2170 -0.3752
   65MOL   H42646634   0.063   3.088   6.604 -0.0335  0.9108  0.0570
   65MOL   H42746635   7.751   3.271   6.510  0.0532  0.3559 -0.1092
   65MOL   H42846636   0.013   3.167   6.382 -1.1868 -0.2690 -0.7236
   65MOL   H42946637   7.156   3.310   6.376  0.0444 -2.3107 -0.6099
   65MOL   H43046638   7.262   3.433   6.443  0.7741 -0.9643 -1.9647
   65MOL   H43146639   7.222   3.290   6.540 -0.2007 -0.3132 -0.2182
   65MOL   H43246640   7.406   3.039   6.351  0.7437  1.0156 -0.2892
   65MOL   H43346641   7.240   3.095   6.306 -0.2890 -2.1528 -0.5182
   65MOL   C43446642   7.761   3.688   7.047  0.2278  0.4201 -0.2072
   65MOL   C43546643   7.626   3.756   7.074  0.2690 -0.3810  0.7105
   65MOL   C43646644   7.533   3.694   7.181 -0.6443  0.4023  0.4239
   65MOL   C43746645   7.498   3.539   7.159 -0.0712  0.0310  0.2299
   65MOL   C43846646   7.433   3.504   7.021 -0.4740 -0.0161 -0.9884
   65MOL   C43946647   7.422   3.357   6.994 -0.6674 -0.3985  0.7210
   65MOL   C44046648   7.352   3.315   6.860  0.8644  0.2339 -0.1194
   65MOL   C44146649   7.367   3.167   6.825  0.1188  0.5397  0.0144
   65MOL   O44246650   7.294   3.122   6.712 -0.3757  0.7002  0.0025
   65MOL   C44346651   7.336   3.018   6.642  0.4901  0.1405  0.8225
   65MOL   O44446652   7.425   2.946   6.687 -0.5215 -0.1295  0.3027
   65MOL   C44546653   7.260   2.995   6.506  0.3733 -0.0506  0.4177
   65MOL   C44646654   7.295   2.853   6.456 -0.0371 -0.2869  0.6085
   65MOL   C44746655   7.100   3.019   6.516  0.9286  0.5484 -0.8366
   65MOL   H44846656   0.046   3.695   7.135  0.5353 -2.0819 -0.1975
   65MOL   H44946657   0.039   3.748   6.976  1.0346  2.2240  1.9118
   65MOL   H45046658   7.750   3.589   7.003 -0.5887  1.3863 -2.2048
   65MOL   H45146659   7.570   3.777   6.983 -1.4655 -1.3874  1.5274
   65MOL   H45246660   7.649   3.853   7.118 -0.4634  0.2905 -0.3898
   65MOL   H45346661   7.442   3.748   7.207 -1.1532 -0.7389  1.0473
   65MOL   H45446662   7.577   3.691   7.281 -1.1401  0.0003  0.6328
   65MOL   H45546663   7.419   3.501   7.224 -2.9077 -0.4336 -3.3101
   65MOL   H45646664   7.581   3.477   7.190  1.9599  2.1731 -0.7642
   65MOL   H45746665   7.332   3.539   7.002 -0.2428  2.0867  1.4851
   65MOL   H45846666   7.497   3.549   6.944  1.2435 -0.0252  0.4040
   65MOL   H45946667   7.388   3.292   7.074  0.9515 -2.5050 -0.2357
   65MOL   H46046668   7.519   3.309   6.977 -0.0796  0.7535  0.7938
   65MOL   H46146669   7.244   3.326   6.858  0.6433 -1.4953  1.2239
   65MOL   H46246670   7.387   3.376   6.776 -0.1536  0.2576 -0.5296
   65MOL   H46346671   7.348   3.105   6.913  0.8925 -0.3304 -0.4255
   65MOL   H46446672   7.475   3.151   6.829  0.0289 -0.6562 -1.6523
   65MOL   H46546673   7.269   2.774   6.526 -0.2403  0.8533  1.8425
   65MOL   H46646674   7.238   2.833   6.366 -0.2047 -0.5117  0.7633
   65MOL   H46746675   7.400   2.835   6.432 -0.7953  0.4797 -3.5535
   65MOL   H46846676   7.093   3.114   6.569 -0.0314 -0.3861  0.7599
   65MOL   H46946677   7.065   3.034   6.414  2.7897  0.1103 -1.5586
   65MOL   C47046678   6.354   3.105   6.389 -0.9378  0.2917 -0.6088
   65MOL   C47146679   6.395   3.071   6.249  0.4991 -0.7792  0.3344
   65MOL   C47246680   6.514   2.970   6.254 -0.0685  0.5750  0.6396
   65MOL   C47346681   6.554   2.913   6.115 -0.7356  0.1025  0.7664
   65MOL   C47446682   6.662   2.807   6.112  0.4162 -0.7391 -0.8372
   65MOL   C47546683   6.802   2.872   6.113 -0.0770  0.3587  0.3220
   65MOL   C47646684   6.920   2.777   6.129 -0.1898  0.0098 -0.0569
   65MOL   C47746685   6.941   2.710   6.265  1.1377  0.0596  0.4482
   65MOL   O47846686   6.968   2.813   6.356  0.2209 -0.2486 -0.2318
   65MOL   C47946687   6.992   2.786   6.478 -0.7021  0.1183  0.4295
   65MOL   O48046688   7.002   2.674   6.521  0.0745 -0.1680  0.3655
   65MOL   C48146689   7.002   2.911   6.571 -0.0782 -0.4601 -0.1491
   65MOL   C48246690   7.051   2.863   6.706 -0.2969  0.4344 -0.7459
   65MOL   C48346691   6.852   2.957   6.566  0.1266 -0.1124  0.2320
   65MOL   H48446692   6.288   3.188   6.367 -0.9667 -0.3061 -2.8539
   65MOL   H48546693   6.439   3.135   6.451 -0.5565  0.4482 -1.2128
   65MOL   H48646694   6.301   3.029   6.447  0.2569  2.7526  3.9739
   65MOL   H48746695   6.307   3.032   6.199  0.0410  1.3001 -0.5204
   65MOL   H48846696   6.423   3.160   6.193 -0.6495 -0.3835  0.3815
   65MOL   H48946697   6.602   2.993   6.315  0.3282 -1.0002  0.6684
   65MOL   H49046698   6.466   2.881   6.294  0.5605  0.5275  1.2980
   65MOL   H49146699   6.464   2.870   6.070 -0.0206 -0.3609 -0.2480
   65MOL   H49246700   6.582   2.991   6.044  0.4669 -0.6926  0.3536
   65MOL   H49346701   6.645   2.747   6.201  1.3394  1.5352  0.9201
   65MOL   H49446702   6.654   2.745   6.023  2.0932 -0.3875 -1.2646
   65MOL   H49546703   6.804   2.939   6.027  0.0923  1.4680  1.1754
   65MOL   H49646704   6.798   2.947   6.193  0.3458 -0.6915  1.3323
   65MOL   H49746705   6.903   2.700   6.053 -0.2003  0.1306 -0.1790
   65MOL   H49846706   7.012   2.820   6.090  2.2470 -2.2387  3.0207
   65MOL   H49946707   7.021   2.638   6.249 -0.7907 -1.7834 -1.0896
   65MOL   H50046708   6.855   2.657   6.305  1.3966 -0.4822  0.2814
   65MOL   H50146709   7.151   2.820   6.707 -1.2092 -1.7829  2.3735
   65MOL   H50246710   6.995   2.777   6.744  2.4373 -2.2289 -2.4589
   65MOL   H50346711   7.057   2.945   6.777 -3.0375 -0.5138  0.6421
   65MOL   H50446712   6.835   3.032   6.489  1.4171  0.1174  0.1579
   65MOL   H50546713   6.788   2.880   6.522  0.9318 -0.4607 -0.3246
   65MOL   C50646714   7.478   3.775   6.666  0.2541 -0.6263  0.2331
   65MOL   C50746715   7.363   3.854   6.613 -0.3400 -0.8329  0.9679
   65MOL   C50846716   7.221   3.799   6.640  0.1501  0.4011  0.7847
   65MOL   C50946717   7.169   3.722   6.517  0.4252 -0.7217 -0.1627
   65MOL   C51046718   7.025   3.656   6.533  0.6328  0.4977  0.0639
   65MOL   C51146719   7.026   3.542   6.636 -0.0976 -0.1827  0.3241
   65MOL   C51246720   6.917   3.442   6.622 -1.0126 -0.3638 -0.0808
   65MOL   C51346721   6.914   3.334   6.728 -0.1724 -0.7142 -0.0911
   65MOL   O51446722   6.853   3.227   6.678 -0.4112 -0.2388 -0.2165
   65MOL   C51546723   6.835   3.121   6.754 -0.6309  0.3527 -0.1322
   65MOL   O51646724   6.872   3.115   6.874  0.4581 -0.2764  0.6526
   65MOL   C51746725   6.767   3.001   6.692  0.2188 -0.6243  0.9264
   65MOL   C51846726   6.625   3.048   6.635  0.7014 -0.3729 -0.6519
   65MOL   C51946727   6.738   2.880   6.790 -0.1192  0.6689 -0.2067
   65MOL   H52046728   7.479   3.683   6.608 -0.0032 -0.5954  0.1809
   65MOL   H52146729   7.463   3.746   6.771  1.0438  2.1549  1.1474
   65MOL   H52246730   7.574   3.823   6.647  0.0686 -0.4739 -0.3264
   65MOL   H52346731   7.382   3.883   6.510  2.2331  0.4114  1.7348
   65MOL   H52446732   7.384   3.949   6.663 -1.1692 -1.2382  2.1133
   65MOL   H52546733   7.233   3.729   6.722  1.0393  0.2730  0.5558
   65MOL   H52646734   7.157   3.880   6.675 -0.0321  1.2113 -1.3011
   65MOL   H52746735   7.157   3.792   6.434 -1.1174  2.0632  2.3142
   65MOL   H52846736   7.244   3.651   6.484  2.4737  0.3952  2.0056
   65MOL   H52946737   6.955   3.740   6.547 -0.8375 -0.8653  1.1058
   65MOL   H53046738   6.996   3.615   6.437  0.3789 -1.7230  1.0747
   65MOL   H53146739   7.018   3.590   6.734  0.6584 -1.6483  1.1219
   65MOL   H53246740   7.123   3.491   6.636 -1.8345 -3.6340  0.9170
   65MOL   H53346741   6.912   3.390   6.526  2.2309  0.4934 -0.7644
   65MOL   H53446742   6.825   3.498   6.640  0.8692  1.7055  3.8175
   65MOL   H53546743   6.855   3.366   6.815  0.6528 -0.4447  0.3756
   65MOL   H53646744   7.014   3.308   6.762  0.8067  3.3143  0.3847
   65MOL   H53746745   6.563   3.092   6.714  1.1478  1.3037 -1.2012
   65MOL   H53846746   6.565   2.971   6.588  0.8512  0.5109 -2.3173
   65MOL   H53946747   6.642   3.132   6.568 -0.8149  0.0337 -0.5464
   65MOL   H54046748   6.732   2.789   6.729 -1.5749  0.1016  0.7348
   65MOL   H54146749   6.822   2.869   6.859 -0.5014 -1.4508 -0.0357
   65MOL   C54246750   5.626   2.788   6.315 -0.7424  0.0488  0.0331
   65MOL   C54346751   5.760   2.698   6.327 -1.0585 -0.4514  0.0975
   65MOL   C54446752   5.864   2.766   6.417 -0.3652  0.0033 -0.5425
   65MOL   C54546753   6.002   2.707   6.398  0.5196  0.0342 -0.6118
   65MOL   C54646754   6.120   2.780   6.472 -0.8754  0.5697  0.1633
   65MOL   C54746755   6.252   2.707   6.444 -0.0455 -0.1662  0.1538
   65MOL   C54846756   6.374   2.747   6.527  0.4237  0.1461 -0.1372
   65MOL   C54946757   6.384   2.687   6.671 -0.6288  0.2411 -0.3582
   65MOL   O55046758   6.492   2.729   6.751  0.0649 -0.5234  0.5333
   65MOL   C55146759   6.484   2.843   6.829 -0.4486  0.1901  0.0833
   65MOL   O55246760   6.396   2.923   6.835  0.6756  0.6929  0.0661
   65MOL   C55346761   6.622   2.870   6.897 -0.1753 -0.2946 -0.7867
   65MOL   C55446762   6.608   3.005   6.980  0.0935  0.7087  0.6229
   65MOL   C55546763   6.662   2.754   6.998  0.0672 -1.1131  0.4620
   65MOL   H55646764   5.547   2.731   6.267 -0.1254  0.7348 -1.8558
   65MOL   H55746765   5.651   2.872   6.250 -1.0588 -0.7284 -1.1093
   65MOL   H55846766   5.599   2.816   6.417 -2.2001 -1.3894  0.0659
   65MOL   H55946767   5.733   2.603   6.373 -2.1010  0.5700  1.6613
   65MOL   H56046768   5.800   2.670   6.230  0.4900  0.8537  0.3412
   65MOL   H56146769   5.848   2.759   6.525  2.9506 -0.3966 -0.0262
   65MOL   H56246770   5.867   2.873   6.398 -0.3937 -0.3481 -2.5641
   65MOL   H56346771   5.998   2.606   6.440 -1.8693  0.3699  0.0642
   65MOL   H56446772   6.028   2.686   6.295  0.4185  1.4781 -0.9360
   65MOL   H56546773   6.104   2.777   6.580 -1.5128 -0.6135  0.0367
   65MOL   H56646774   6.123   2.887   6.450  1.8612  0.8564  1.6276
   65MOL   H56746775   6.231   2.602   6.463 -2.4620  0.5907  1.9430
   65MOL   H56846776   6.274   2.718   6.338 -0.3948 -1.6084 -0.0721
   65MOL   H56946777   6.463   2.719   6.471  1.2047  1.3943  0.4478
   65MOL   H57046778   6.376   2.856   6.532 -0.2618  0.1332  0.5185
   65MOL   H57146779   6.404   2.580   6.667 -2.3020 -0.0541 -1.1244
   65MOL   H57246780   6.294   2.710   6.728 -0.2742  0.2457  0.1992
   65MOL   H57346781   6.595   3.094   6.920 -0.3728 -1.0962 -2.0178
   65MOL   H57446782   6.698   3.029   7.038  0.0288  0.8593  0.6611
   65MOL   H57546783   6.519   3.002   7.043  0.4428  1.3218  1.1534
   65MOL   H57646784   6.738   2.791   7.067  0.9213 -1.2671 -0.3845
   65MOL   H57746785   6.726   2.678   6.954  1.9554 -0.0387  1.3033
   65MOL   C57846786   7.307   2.270   6.489  0.0962  0.5316 -0.0012
   65MOL   C57946787   7.199   2.358   6.563  0.4629  0.1576  0.2332
   65MOL   C58046788   7.082   2.267   6.612 -0.3470 -0.0217 -0.6746
   65MOL   C58146789   6.969   2.356   6.670  0.2322  0.2443  0.1212
   65MOL   C58246790   6.845   2.279   6.713  0.4866 -0.8820  0.1830
   65MOL   C58346791   6.741   2.373   6.784  0.2641 -0.9394 -0.8174
   65MOL   C58446792   6.610   2.306   6.818  0.4366 -0.0355 -0.4837
   65MOL   C58546793   6.507   2.398   6.871 -0.0769  0.4170  0.2986
   65MOL   O58646794   6.560   2.488   6.964 -0.2565 -0.0065  0.2791
   65MOL   C58746795   6.484   2.567   7.034  0.3580  0.1775  0.5037
   65MOL   O58846796   6.359   2.563   7.034 -0.3197 -0.0400 -0.1982
   65MOL   C58946797   6.559   2.683   7.105 -0.1818 -0.1091 -0.1569
   65MOL   C59046798   6.459   2.779   7.172  0.3416  0.4350 -0.6642
   65MOL   C59146799   6.653   2.601   7.205  0.0994 -0.0569 -0.2060
   65MOL   H59246800   7.354   2.188   6.543  0.4358 -0.5173 -1.8194
   65MOL   H59346801   7.387   2.326   6.439 -1.6548  0.6048 -2.8408
   65MOL   H59446802   7.261   2.217   6.405 -1.4386 -0.2260  1.2953
   65MOL   H59546803   7.165   2.433   6.492  1.3676  0.6766  0.3416
   65MOL   H59646804   7.249   2.415   6.641  1.0162  0.2187 -0.1551
   65MOL   H59746805   7.117   2.198   6.689  2.3250  3.0029  0.9235
   65MOL   H59846806   7.053   2.207   6.526  1.3387 -0.0796 -1.2178
   65MOL   H59946807   6.931   2.425   6.594  0.0377  1.3831  1.2434
   65MOL   H60046808   7.002   2.430   6.742  0.2640 -0.0734  0.4352
   65MOL   H60146809   6.877   2.198   6.779  1.1936 -1.9940 -1.4897
   65MOL   H60246810   6.787   2.224   6.638 -0.5611 -0.0724  0.3800
   65MOL   H60346811   6.713   2.454   6.716 -0.4692  0.8233  1.5135
   65MOL   H60446812   6.784   2.418   6.873 -1.5448 -0.3463 -0.2231
   65MOL   H60546813   6.624   2.230   6.895 -1.0043 -0.5943 -0.7640
   65MOL   H60646814   6.570   2.254   6.731  0.8525  0.0056 -0.7027
   65MOL   H60746815   6.469   2.461   6.790 -0.8064 -1.2183 -0.6746
   65MOL   H60846816   6.432   2.338   6.924 -0.1469  0.1975 -0.0434
   65MOL   H60946817   6.402   2.835   7.098  0.7793  3.1956  1.0095
   65MOL   H61046818   6.388   2.722   7.232  0.0300  0.7510 -0.7336
   65MOL   H61146819   6.507   2.855   7.234 -0.6022  0.5638 -0.0749
   65MOL   H61246820   6.737   2.668   7.227 -0.5995  0.7821 -0.0668
   65MOL   H61346821   6.700   2.516   7.156 -0.0653 -0.1419 -0.2178
   65MOL   C61446822   7.013   3.369   7.085  0.2576  0.5176  0.5844
   65MOL   C61546823   6.978   3.415   7.229 -0.5477  0.2553 -0.3572
   65MOL   C61646824   6.859   3.339   7.285  0.1119  0.4378 -0.0085
   65MOL   C61746825   6.886   3.192   7.321  0.2126  0.3520 -0.2668
   65MOL   C61846826   6.775   3.145   7.414 -0.4015 -0.1198 -0.0338
   65MOL   C61946827   6.798   2.997   7.455  0.1892  0.7690  0.2032
   65MOL   C62046828   6.695   2.953   7.558 -0.4578  0.5784 -0.5198
   65MOL   C62146829   6.719   2.810   7.591  0.2256 -0.4651 -0.6397
   65MOL   O62246830   6.720   2.710   7.485 -0.0623  0.1948  0.0237
   65MOL   C62346831   6.599   2.660   7.448 -0.5743 -0.1780  0.0299
   65MOL   O62446832   6.490   2.698   7.482  0.3033  0.7562 -0.0032
   65MOL   C62546833   6.613   2.544   7.343  0.4866  0.5914  0.6619
   65MOL   C62646834   6.480   2.466   7.332  0.0422 -0.1790  0.0467
   65MOL   C62746835   6.723   2.445   7.398  0.4856  0.1301  0.9184
   65MOL   H62846836   7.103   3.409   7.038  0.2266 -1.6772 -1.4519
   65MOL   H62946837   6.935   3.407   7.018  0.5687  1.5253  0.7917
   65MOL   H63046838   7.012   3.260   7.086 -0.1920  0.5150  0.2484
   65MOL   H63146839   7.059   3.395   7.299 -1.7599 -3.1198  0.1900
   65MOL   H63246840   6.961   3.523   7.236 -3.4599 -0.2461  1.3205
   65MOL   H63346841   6.776   3.355   7.216 -0.2909  3.8793  1.1749
   65MOL   H63446842   6.829   3.393   7.375  0.1046  1.1000 -0.4035
   65MOL   H63546843   6.985   3.173   7.363 -0.9321 -2.2614  1.3770
   65MOL   H63646844   6.887   3.137   7.227  0.4686 -3.1197  1.6967
   65MOL   H63746845   6.787   3.203   7.506  2.2454  0.1329 -0.4983
   65MOL   H63846846   6.676   3.153   7.371  0.6066 -0.8929 -2.5872
   65MOL   H63946847   6.805   2.925   7.374  0.5838  3.2046 -1.9793
   65MOL   H64046848   6.898   2.983   7.496  0.2994  0.2375 -0.2520
   65MOL   H64146849   6.592   2.965   7.523 -1.0274 -2.2303  0.1330
   65MOL   H64246850   6.695   3.007   7.653 -1.1300  0.9280 -0.7141
   65MOL   H64346851   6.821   2.789   7.623  0.1455 -0.0638 -0.1202
   65MOL   H64446852   6.661   2.790   7.681  3.3965 -3.2717  0.9060
   65MOL   H64546853   6.448   2.416   7.423 -2.1661 -0.3722 -0.7994
   65MOL   H64646854   6.490   2.394   7.252  1.1919  0.2902 -0.2414
   65MOL   H64746855   6.399   2.531   7.299 -0.5872  1.3005  4.1805
   65MOL   H64846856   6.809   2.509   7.418  1.1044  0.2292 -1.8475
   65MOL   H64946857   6.754   2.375   7.320  0.5031  0.9149  0.2213
   65MOL   C65046858   6.619   2.390   0.522  0.0536  0.2391  0.4636
   65MOL   C65146859   6.502   2.285   0.483  1.0302 -0.5286 -0.0902
   65MOL   C65246860   6.486   2.299   0.326  0.1074 -0.3173 -0.0128
   65MOL   C65346861   6.386   2.204   0.257 -0.0793  0.5380 -0.0199
   65MOL   C65446862   6.440   2.145   0.126 -0.5857  0.2664 -0.5317
   65MOL   C65546863   6.336   2.090   0.037 -0.1898  0.3478 -0.1903
   65MOL   C65646864   6.401   2.002   7.707  0.1595 -0.2197  0.3100
   65MOL   C65746865   6.441   2.079   7.579 -0.4124 -0.0767  0.1121
   65MOL   O65846866   6.546   2.171   7.603 -0.2296 -0.5161  0.0409
   65MOL   C65946867   6.623   2.227   7.498  0.0641  0.9490  0.0190
   65MOL   O66046868   6.619   2.185   7.384  0.6492  0.2352 -0.1270
   65MOL   C66146869   6.708   2.352   7.530 -0.2136 -0.2725  0.3955
   65MOL   C66246870   6.632   2.425   7.644  0.5346 -0.0202  0.1739
   65MOL   C66346871   6.849   2.318   7.579 -0.1314  0.1153 -0.6484
   65MOL   H66446872   6.585   2.490   0.495 -2.7061 -1.3941 -2.4314
   65MOL   H66546873   6.712   2.365   0.471 -0.4687  0.9804 -0.8841
   65MOL   H66646874   6.641   2.392   0.629 -0.2480 -0.6659  0.5448
   65MOL   H66746875   6.409   2.311   0.532  0.9786 -1.4117  0.2967
   65MOL   H66846876   6.531   2.184   0.512 -1.0037 -0.9794  0.4337
   65MOL   H66946877   6.588   2.276   0.294  0.8456  1.4420  0.9839
   65MOL   H67046878   6.465   2.402   0.298 -1.2509 -0.2646  1.1868
   65MOL   H67146879   6.292   2.254   0.233  0.9801  1.2557 -2.7936
   65MOL   H67246880   6.347   2.123   0.320  0.8288 -0.2705 -0.4870
   65MOL   H67346881   6.511   2.066   0.150 -1.5242 -0.5357 -0.3813
   65MOL   H67446882   6.504   2.213   0.069 -0.2359 -1.4446 -2.2053
   65MOL   H67546883   6.263   2.036   0.097  1.0589 -1.5638 -0.3723
   65MOL   H67646884   6.281   2.170   7.767 -0.8554  0.0893  0.1208
   65MOL   H67746885   6.325   1.929   7.679  0.0490 -0.5180  1.3877
   65MOL   H67846886   6.482   1.939   7.742  1.2412  0.3727 -1.0793
   65MOL   H67946887   6.356   2.140   7.548 -0.6142  0.1918  1.1639
   65MOL   H68046888   6.466   2.012   7.497  1.4636  2.3242 -1.3678
   65MOL   H68146889   6.685   2.514   7.676  1.0369 -0.2450 -0.0261
   65MOL   H68246890   6.604   2.365   7.731  0.6338  0.8969  0.8500
   65MOL   H68346891   6.537   2.463   7.605  0.0947 -1.1134  0.1568
   65MOL   H68446892   6.905   2.278   7.495  0.9470 -0.2284  0.2288
   65MOL   H68546893   6.908   2.408   7.594 -1.0285  0.2948  2.0044
   65MOL   C68646894   6.681   3.322   0.460  0.7164 -0.1230  0.3296
   65MOL   C68746895   6.641   3.179   0.461  0.3371  0.3798  0.2729
   65MOL   C68846896   6.711   3.082   0.357  0.1138  0.2105 -0.7866
   65MOL   C68946897   6.676   2.928   0.374 -0.4706 -0.0543 -0.6428
   65MOL   C69046898   6.740   2.835   0.273  0.0164  0.2313  0.5468
   65MOL   C69146899   6.736   2.686   0.295 -0.2561 -0.2926  0.1202
   65MOL   C69246900   6.796   2.625   0.164  0.5617  0.0151 -0.2671
   65MOL   C69346901   6.821   2.476   0.184 -0.3425 -1.1315  0.1789
   65MOL   O69446902   6.847   2.403   0.066  0.0745 -0.1584 -0.0600
   65MOL   C69546903   6.830   2.271   0.049  0.2446 -0.2428  0.0009
   65MOL   O69646904   6.773   2.202   0.134  0.5370  0.1651 -0.4664
   65MOL   C69746905   6.886   2.221   7.697 -0.9232  0.0281 -0.4721
   65MOL   C69846906   7.040   2.216   7.721 -0.1258 -0.0858 -0.1898
   65MOL   C69946907   6.847   2.074   7.669 -0.5632 -0.6956 -0.4485
   65MOL   H70046908   6.615   3.386   0.518  0.1018 -0.8228  0.4141
   65MOL   H70146909   6.676   3.361   0.359 -1.2373 -0.2394  0.3591
   65MOL   H70246910   6.785   3.340   0.489  0.4472  2.2433 -0.1369
   65MOL   H70346911   6.536   3.172   0.432  1.0195 -1.1050 -2.0286
   65MOL   H70446912   6.657   3.145   0.563 -1.3816  1.7193  1.0077
   65MOL   H70546913   6.819   3.088   0.371 -0.1544  0.3882  1.3931
   65MOL   H70646914   6.683   3.120   0.258 -1.3202 -1.3959 -1.0353
   65MOL   H70746915   6.567   2.921   0.371 -0.7463  0.8590  3.7007
   65MOL   H70846916   6.693   2.887   0.474 -0.9851 -1.1878 -1.0087
   65MOL   H70946917   6.847   2.850   0.281  0.4308 -1.4116 -1.3948
   65MOL   H71046918   6.719   2.864   0.170  1.1511 -1.7701 -0.2735
   65MOL   H71146919   6.788   2.655   0.385 -1.2573 -2.9217 -0.1630
   65MOL   H71246920   6.634   2.652   0.312 -0.6904  0.3874 -1.0276
   65MOL   H71346921   6.718   2.635   0.089 -1.7606 -1.0155  1.9488
   65MOL   H71446922   6.887   2.668   0.122  1.7515  0.5220  2.6913
   65MOL   H71546923   6.726   2.440   0.224  0.7374 -1.9010  2.0851
   65MOL   H71646924   6.903   2.453   0.252  0.0921  0.1373  0.0944
   65MOL   H71746925   7.101   2.172   7.642 -0.5077 -0.2079 -0.4132
   65MOL   H71846926   7.084   2.313   7.746 -0.3269  0.1136 -0.6186
   65MOL   H71946927   7.079   2.154   0.022  0.7706 -1.8440 -1.9565
   65MOL   H72046928   6.892   2.010   7.745  1.7777 -0.6914 -1.7584
   65MOL   H72146929   6.892   2.043   7.575  2.2438  2.3551 -0.2354
   65MOL   H72246930   6.740   2.056   7.675 -0.0380 -3.9452 -0.2246
   66MOL     C146931   2.560   1.003   0.711 -0.2895  0.2065  0.3791
   66MOL     C246932   2.696   1.061   0.765 -0.1751  0.1841 -0.4288
   66MOL     C346933   2.816   0.951   0.744  0.0108 -0.2616 -0.5695
   66MOL     C446934   2.959   0.997   0.788 -0.9314 -0.1685 -0.1442
   66MOL     C546935   3.077   0.914   0.731  0.7361  0.0462  0.7485
   66MOL     C646936   3.212   0.936   0.808  0.4744  0.9552 -0.1847
   66MOL     C746937   3.208   0.863   0.947 -0.2363  0.5437 -0.3621
   66MOL     C846938   3.336   0.882   1.035  0.0910 -0.6199  0.3570
   66MOL     O946939   3.418   0.769   1.024  0.1599 -0.0706  0.2084
   66MOL    C1046940   3.506   0.732   1.118  0.2401  0.8137 -0.0975
   66MOL    O1146941   3.533   0.786   1.229  0.5858  0.2439  0.2269
   66MOL    C1246942   3.573   0.596   1.073 -0.0642 -0.9752  0.2661
   66MOL    C1346943   3.676   0.627   0.956  0.3370  0.1290 -0.2167
   66MOL    C1446944   3.636   0.514   1.183  0.2768  0.5134 -0.6343
   66MOL    H1546945   2.546   0.903   0.751 -1.7409  1.2264  2.4414
   66MOL    H1646946   2.575   0.985   0.604 -2.0296  1.7920 -0.1553
   66MOL    H1746947   2.471   1.064   0.724  0.6690  1.8158 -0.3408
   66MOL    H1846948   2.688   1.085   0.871  3.2317  2.6542 -0.6312
   66MOL    H1946949   2.713   1.158   0.718 -1.0807  0.0681 -1.0009
   66MOL    H2046950   2.802   0.857   0.798  0.7920  0.4701  0.9356
   66MOL    H2146951   2.810   0.903   0.647 -1.7103 -2.4185  0.5500
   66MOL    H2246952   2.976   1.103   0.767  2.4219 -0.6256 -0.0669
   66MOL    H2346953   2.965   1.003   0.897  0.3313  0.8156 -0.2451
   66MOL    H2446954   3.108   0.936   0.629 -0.9672 -1.5413 -0.1482
   66MOL    H2546955   3.054   0.808   0.729 -1.2363  0.4562  0.5705
   66MOL    H2646956   3.235   1.043   0.808  2.7523  0.4996  0.4659
   66MOL    H2746957   3.293   0.902   0.743 -0.5265 -0.0029 -0.9381
   66MOL    H2846958   3.198   0.755   0.936 -1.9589  0.7130 -0.4905
   66MOL    H2946959   3.125   0.898   1.009 -0.4452  1.0449 -0.9289
   66MOL    H3046960   3.305   0.886   1.139 -1.6250 -4.4583  0.0701
   66MOL    H3146961   3.385   0.977   1.010  1.2417 -0.8721  1.5868
   66MOL    H3246962   3.620   0.656   0.867  1.5479 -0.3245 -1.1371
   66MOL    H3346963   3.744   0.702   0.997  1.9095 -1.0415 -0.6406
   66MOL    H3446964   3.721   0.537   0.916  1.5102  1.3390 -1.7065
   66MOL    H3546965   3.678   0.579   1.260 -1.4404  0.7764  0.0913
   66MOL    H3646966   3.724   0.469   1.137  0.8426  0.0821  0.8299
   66MOL    H3746967   3.498   0.540   1.017 -3.1497  1.5631  1.7366
   66MOL    C3846968   3.203   0.301   0.235  0.1425 -0.1601  0.5837
   66MOL    C3946969   3.237   0.221   0.351  1.1628  0.0919  0.6831
   66MOL    C4046970   3.387   0.203   0.375 -0.3216 -0.0534  0.3036
   66MOL    C4146971   3.419   0.107   0.499 -0.3829 -0.4622  0.4588
   66MOL    C4246972   3.450   0.193   0.625  0.0872  0.4268  0.4952
   66MOL    C4346973   3.480   0.113   0.751  0.0038 -0.4881 -0.3372
   66MOL    C4446974   3.518   0.215   0.860 -0.2894  0.1417 -0.0461
   66MOL    C4546975   3.569   0.144   0.986 -0.4130  0.4839  0.6316
   66MOL    O4646976   3.601   0.244   1.085 -0.1968 -0.0072 -0.2683
   66MOL    C4746977   3.507   0.293   1.162 -0.0265  0.1568  0.7718
   66MOL    O4846978   3.387   0.265   1.150 -0.1791 -0.5328  0.6062
   66MOL    C4946979   3.557   0.401   1.269 -0.2129 -0.2145 -0.1839
   66MOL    C5046980   3.444   0.474   1.345  0.3968  0.1461  0.0918
   66MOL    C5146981   3.660   0.346   1.369 -0.6113 -0.0846 -0.1197
   66MOL    H5246982   3.248   0.400   0.232 -0.2983  0.0589  1.1511
   66MOL    H5346983   3.095   0.315   0.227 -0.1670 -1.2131  2.6134
   66MOL    H5446984   3.242   0.248   0.148 -0.5577 -0.3256  0.3713
   66MOL    H5546985   3.194   0.121   0.335 -0.5621  1.0619 -0.9421
   66MOL    H5646986   3.192   0.261   0.442 -1.9608 -0.5608 -0.4935
   66MOL    H5746987   3.433   0.154   0.289  1.4299  1.8092  0.1414
   66MOL    H5846988   3.428   0.304   0.380 -1.2701  0.3419  0.2755
   66MOL    H5946989   3.507   0.049   0.470 -0.7192  0.2607 -2.1818
   66MOL    H6046990   3.336   0.038   0.509  0.2049 -0.8936  2.4512
   66MOL    H6146991   3.522   0.272   0.605  1.4701 -0.8801  0.1794
   66MOL    H6246992   3.372   0.260   0.660  0.3420  0.6741  0.5936
   66MOL    H6346993   3.392   0.057   0.782 -0.6801  0.1062 -1.1642
   66MOL    H6446994   3.556   0.037   0.732  0.3847  0.0304 -0.9070
   66MOL    H6546995   3.439   0.282   0.895  0.2804  0.0770  1.4267
   66MOL    H6646996   3.603   0.273   0.824 -0.1734 -1.4477 -2.4367
   66MOL    H6746997   3.653   0.079   0.962 -0.5556 -0.3703  2.3229
   66MOL    H6846998   3.499   0.075   1.032 -0.4982 -0.1912 -0.4861
   66MOL    H6946999   3.375   0.412   1.403 -0.1104  0.3466 -0.2873
   66MOL    H7047000   3.481   0.543   1.420 -1.7462 -1.4925  2.7355
   66MOL    H7147001   3.374   0.526   1.279 -1.8200 -0.5015  1.8658
   66MOL    H7247002   3.697   0.433   1.423 -0.5019 -0.0314 -0.2809
   66MOL    H7347003   3.743   0.312   1.307 -0.2165 -1.3832  1.0898
   66MOL    C7447004   3.739   0.989   2.305  0.0934 -0.0224 -0.2915
   66MOL    C7547005   3.743   0.908   2.176 -0.0797 -0.7604  0.6979
   66MOL    C7647006   3.598   0.886   2.130 -0.4680  0.4431 -0.2140
   66MOL    C7747007   3.597   0.778   2.022 -0.3101  0.1005 -0.0406
   66MOL    C7847008   3.453   0.769   1.952 -0.7851 -0.2570 -0.1034
   66MOL    C7947009   3.411   0.627   1.917  0.4244  0.2743  0.5133
   66MOL    C8047010   3.480   0.588   1.785 -0.3230 -0.2478  0.1676
   66MOL    C8147011   3.452   0.448   1.728  0.3469  0.1553 -0.7155
   66MOL    O8247012   3.543   0.400   1.632  1.0585 -0.4844  0.1816
   66MOL    C8347013   3.524   0.278   1.575 -0.6122 -0.0636 -0.3731
   66MOL    O8447014   3.430   0.208   1.607  0.2087  0.2930 -1.0588
   66MOL    C8547015   3.637   0.231   1.477 -0.4004  0.1270 -0.0720
   66MOL    C8647016   3.585   0.096   1.412 -0.4271  0.2491 -0.3120
   66MOL    C8747017   3.772   0.195   1.552 -0.2833 -0.2560  0.1723
   66MOL    H8847018   3.843   0.996   2.337  0.9514 -0.4184 -2.8708
   66MOL    H8947019   3.675   0.947   2.382  1.7365 -1.2985  0.4200
   66MOL    H9047020   3.699   1.088   2.282  0.0838  0.0539  0.0546
   66MOL    H9147021   3.792   0.812   2.192 -1.3442 -1.3947  0.8982
   66MOL    H9247022   3.799   0.965   2.102 -1.7725  1.9537  1.4534
   66MOL    H9347023   3.526   0.851   2.204  1.2251 -2.4871  0.1649
   66MOL    H9447024   3.561   0.976   2.081 -0.3427  0.1148 -0.9354
   66MOL    H9547025   3.622   0.681   2.066  1.3318 -0.3275 -1.8517
   66MOL    H9647026   3.673   0.793   1.945  0.3147 -0.8478  0.3783
   66MOL    H9747027   3.389   0.818   2.025 -0.7004  1.5693 -1.2197
   66MOL    H9847028   3.451   0.832   1.864  1.6569 -0.4548 -0.3448
   66MOL    H9947029   3.445   0.558   1.994 -1.3492 -1.4326 -0.1925
   66MOL   H10047030   3.302   0.625   1.916  0.4409 -2.3341  0.9548
   66MOL   H10147031   3.464   0.661   1.706 -0.8832 -0.4019  0.1386
   66MOL   H10247032   3.588   0.588   1.803 -0.3843  0.0850  0.5269
   66MOL   H10347033   3.352   0.439   1.685  0.3134  3.1347 -1.3310
   66MOL   H10447034   3.476   0.382   1.812 -0.4156 -1.1837 -1.5270
   66MOL   H10547035   3.576   0.010   1.477 -0.3326  1.3819  1.2162
   66MOL   H10647036   3.641   0.074   1.321 -0.6176 -0.7100 -0.1930
   66MOL   H10747037   3.482   0.116   1.381 -0.7684 -0.6024  0.2679
   66MOL   H10847038   3.847   0.183   1.474  0.5310  1.4846  0.6593
   66MOL   H10947039   3.801   0.289   1.598  1.4355 -1.5514  1.7729
   66MOL   C11047040   4.354   6.928   1.700  0.4688  0.7857  0.6917
   66MOL   C11147041   4.263   7.033   1.780  0.2936  0.5131 -0.1721
   66MOL   C11247042   4.116   7.008   1.772  0.3747  0.1352  0.6422
   66MOL   C11347043   4.025   7.073   1.880 -0.4414 -0.5617 -0.2926
   66MOL   C11447044   4.034   7.229   1.872  0.2080 -0.0627 -0.8654
   66MOL   C11547045   3.961   7.298   1.759 -0.5872  0.7513  0.3725
   66MOL   C11647046   3.922   7.442   1.791 -0.0953  0.6542  0.3633
   66MOL   C11747047   3.876   7.520   1.672 -0.6971 -0.1932  0.1127
   66MOL   O11847048   3.849   7.650   1.715  0.1967  0.1367  1.0318
   66MOL   C11947049   3.823   7.732   1.609  0.3414  0.3502  0.9314
   66MOL   O12047050   3.828   7.706   1.491  0.4992 -0.7836  0.0425
   66MOL   C12147051   3.793   0.092   1.670  0.1942 -0.4842 -0.8170
   66MOL   C12247052   3.670   0.073   1.761  0.0207  0.0526  0.0678
   66MOL   C12347053   3.919   0.129   1.753 -0.1958 -1.0472  0.3860
   66MOL   H12447054   4.352   6.937   1.592  1.5234 -2.1775  0.3825
   66MOL   H12547055   4.459   6.954   1.717 -0.0897  1.7928  2.8905
   66MOL   H12647056   4.346   6.827   1.740 -0.4464  1.2298  1.6497
   66MOL   H12747057   4.282   7.138   1.761  0.9738  0.4372  0.0774
   66MOL   H12847058   4.292   7.019   1.884  0.4125  0.8975 -0.1539
   66MOL   H12947059   4.100   6.900   1.773 -3.8306  0.6438 -1.2059
   66MOL   H13047060   4.076   7.036   1.674 -2.6721 -0.5372  1.6416
   66MOL   H13147061   3.926   7.031   1.864 -0.3642 -0.1652 -1.8887
   66MOL   H13247062   4.056   7.029   1.975  0.8465  0.7215 -0.0984
   66MOL   H13347063   4.138   7.262   1.869  0.4705 -1.0203 -2.7854
   66MOL   H13447064   3.994   7.268   1.966 -1.2262 -0.2148 -1.4098
   66MOL   H13547065   4.027   7.302   1.672 -2.9334  1.3630 -1.4211
   66MOL   H13647066   3.872   7.239   1.737 -1.5015  2.6766 -1.1796
   66MOL   H13747067   4.016   7.487   1.820  1.1384 -0.2412 -2.1143
   66MOL   H13847068   3.851   7.457   1.873 -0.5150 -0.3053  0.1911
   66MOL   H13947069   3.947   7.511   1.591 -1.2633  1.2280 -0.5675
   66MOL   H14047070   3.779   7.480   1.641  0.3445 -2.2133 -0.6055
   66MOL   H14147071   3.646   0.169   1.807  2.0985  3.2081 -4.9158
   66MOL   H14247072   3.587   0.029   1.707  1.0618  1.3083 -2.6631
   66MOL   H14347073   3.697   7.779   1.836  3.4192 -0.2849 -1.3600
   66MOL   H14447074   3.930   0.054   1.832 -0.5502 -0.8154  0.6576
   66MOL   H14547075   3.886   0.217   1.809  0.6494 -0.0690 -0.6288
   66MOL   C14647076   4.140   7.711   0.486  0.0833 -0.6079 -0.0551
   66MOL   C14747077   4.191   7.649   0.618 -0.0778 -0.4099 -0.8638
   66MOL   C14847078   4.170   7.756   0.726  0.5963  0.5404  0.5461
   66MOL   C14947079   4.164   7.690   0.869 -0.5679  0.4406  0.0072
   66MOL   C15047080   4.146   0.023   0.977  0.0210  0.4545 -0.0897
   66MOL   C15147081   4.172   7.751   1.120 -0.3664  0.0552  0.5488
   66MOL   C15247082   4.160   0.076   1.232  0.1460  0.7152 -0.2340
   66MOL   C15347083   4.154   0.013   1.373 -0.2764 -0.5632 -0.1620
   66MOL   O15447084   4.130   0.110   1.471 -0.1304 -0.6703 -0.1694
   66MOL   C15547085   4.114   0.066   1.598 -0.4282 -0.2829 -0.2094
   66MOL   O15647086   4.146   7.730   1.633  0.3085 -0.6583  0.3683
   66MOL   C15747087   4.062   0.168   1.695 -0.0988  0.7179 -0.3187
   66MOL   C15847088   4.055   0.307   1.630  0.0327 -0.3813 -1.6615
   66MOL   C15947089   4.148   0.157   1.828 -0.2388  0.1739 -0.4791
   66MOL   H16047090   4.135   7.637   0.406  2.0323  0.2235 -0.9753
   66MOL   H16147091   4.201   0.013   0.448  0.1646 -1.6267 -2.1779
   66MOL   H16247092   4.041   7.757   0.494  1.0818  2.0405 -2.0499
   66MOL   H16347093   4.134   7.559   0.644  0.5691 -0.1061  1.7856
   66MOL   H16447094   4.292   7.610   0.609 -0.4694 -1.6074 -0.1011
   66MOL   H16547095   4.078   0.033   0.709 -0.4091 -0.8103  1.4064
   66MOL   H16647096   4.251   0.050   0.727  1.6461 -0.5696 -1.3601
   66MOL   H16747097   4.084   7.616   0.874 -2.0981  1.8701 -2.4251
   66MOL   H16847098   4.262   7.646   0.888 -1.4905 -1.5695  0.2929
   66MOL   H16947099   4.050   0.073   0.967  0.2773  0.5191 -2.5992
   66MOL   H17047100   4.227   0.094   0.960 -1.2378  1.4582 -1.9790
   66MOL   H17147101   4.264   7.692   1.118 -1.4596 -1.7978  2.4685
   66MOL   H17247102   4.088   7.682   1.130  0.2339 -0.4542  2.2014
   66MOL   H17347103   4.242   0.149   1.235 -0.4196  1.3864 -1.0570
   66MOL   H17447104   4.067   0.127   1.209 -0.7179 -0.9138 -0.3530
   66MOL   H17547105   4.073   7.719   1.372 -1.2186  0.4098 -3.5044
   66MOL   H17647106   4.236   7.725   1.398 -1.1055 -0.5183  2.7518
   66MOL   H17747107   4.010   0.309   1.531 -2.9564 -0.5581 -0.3438
   66MOL   H17847108   4.160   0.330   1.611  0.5147 -0.3970  0.8164
   66MOL   H17947109   3.996   0.378   1.688  0.1539 -2.0644  0.6306
   66MOL   H18047110   4.134   0.055   1.861  0.3821  0.4862  0.7507
   66MOL   H18147111   4.097   0.223   1.899 -2.2299  0.1417 -1.8173
   66MOL   C18247112   4.122   1.379   2.166  0.3930 -0.2805 -0.7528
   66MOL   C18347113   4.160   1.280   2.052  0.9882  0.1784 -0.2182
   66MOL   C18447114   4.106   1.134   2.067  1.3104 -0.1235 -0.2071
   66MOL   C18547115   4.173   1.037   1.967  0.6006 -0.3405  0.3468
   66MOL   C18647116   4.112   0.896   1.976  0.2617 -0.5171 -0.1609
   66MOL   C18747117   4.198   0.792   1.911 -0.4724  0.1769 -0.3146
   66MOL   C18847118   4.158   0.654   1.914  0.7236  0.3749  0.3966
   66MOL   C18947119   4.276   0.571   1.867 -0.1510  0.1564  0.1643
   66MOL   O19047120   4.245   0.431   1.874 -0.2070  0.3423  0.4296
   66MOL   C19147121   4.325   0.344   1.805 -0.0504 -0.2629  0.0055
   66MOL   O19247122   4.410   0.384   1.723  0.1299 -0.1443  0.3180
   66MOL   C19347123   4.304   0.191   1.832  0.0397  0.4617 -0.3563
   66MOL   C19447124   4.394   0.116   1.734 -0.4180 -0.2216 -0.4281
   66MOL   C19547125   4.362   0.160   1.977 -0.2805  0.3024 -0.4842
   66MOL   H19647126   4.162   1.350   2.263 -2.2033  1.7444  0.9911
   66MOL   H19747127   4.165   1.478   2.152  2.1616 -0.6414  1.8236
   66MOL   H19847128   4.013   1.376   2.173  0.1686  1.3728 -2.8210
   66MOL   H19947129   4.269   1.274   2.043  1.2626 -0.7421  2.9869
   66MOL   H20047130   4.135   1.327   1.957 -2.6333  1.0365  1.0747
   66MOL   H20147131   4.132   1.088   2.162  3.1471 -0.2435 -0.7492
   66MOL   H20247132   3.997   1.133   2.063  1.2246 -1.4510  1.9673
   66MOL   H20347133   4.163   1.084   1.869  2.2000  1.5952  1.0808
   66MOL   H20447134   4.274   1.036   2.008  1.3775  1.5510 -1.4697
   66MOL   H20547135   4.009   0.892   1.941  0.2127 -1.2765  0.0579
   66MOL   H20647136   4.108   0.863   2.080  0.9740  0.2009  0.0985
   66MOL   H20747137   4.296   0.796   1.959 -1.4039 -0.2058  1.6663
   66MOL   H20847138   4.219   0.823   1.808  0.4423 -0.2410 -0.2616
   66MOL   H20947139   4.122   0.609   2.006 -1.2474 -1.8113 -1.3614
   66MOL   H21047140   4.086   0.625   1.837  0.4167  0.1126  0.7779
   66MOL   H21147141   4.369   0.572   1.925  3.2194 -2.1716 -4.8966
   66MOL   H21247142   4.299   0.605   1.766 -0.9888  0.7459  0.1688
   66MOL   H21347143   4.400   0.163   1.636 -1.2691  0.7922  0.0027
   66MOL   H21447144   4.496   0.126   1.771  0.0834 -1.3450 -1.4465
   66MOL   H21547145   4.373   0.009   1.735  0.2019 -0.3609  1.8519
   66MOL   H21647146   4.466   0.192   1.980 -0.5439  1.0713  0.6973
   66MOL   H21747147   4.311   0.230   2.043 -0.6568 -0.8071  0.4288
   66MOL   C21847148   3.575   7.216   2.566 -0.4361 -0.8981  0.3133
   66MOL   C21947149   3.691   7.177   2.472 -0.7855  0.1840 -0.1065
   66MOL   C22047150   3.805   7.277   2.477  0.6222  0.5328  0.0470
   66MOL   C22147151   3.776   7.404   2.392 -0.6196  0.0983 -0.0066
   66MOL   C22247152   3.884   7.514   2.404 -0.3226  0.1538 -0.1538
   66MOL   C22347153   3.873   7.626   2.292 -0.6342 -0.5518  0.5962
   66MOL   C22447154   3.999   7.716   2.301  0.1675 -0.1659  0.1686
   66MOL   C22547155   3.997   0.042   2.189 -0.2319  0.3097 -0.7592
   66MOL   O22647156   4.132   0.073   2.145  0.0283  0.0170 -0.1545
   66MOL   C22747157   4.212   7.761   2.077  0.4108 -0.1314  0.5192
   66MOL   O22847158   4.164   7.652   2.042  0.0571  0.4529 -0.3379
   66MOL   C22947159   4.356   0.022   2.057 -0.1012  0.1768 -0.4185
   66MOL   C23047160   4.407   0.051   2.199  0.0001  0.0274 -0.0826
   66MOL   C23147161   4.446   7.695   1.979  0.3506 -0.2857 -0.4607
   66MOL   H23247162   3.618   7.230   2.666  0.2545  1.1608 -0.2504
   66MOL   H23347163   3.504   7.133   2.571 -1.6714  0.1275  0.0168
   66MOL   H23447164   3.533   7.311   2.535 -0.8916 -1.3818 -0.5462
   66MOL   H23547165   3.661   7.156   2.369  0.0590  1.3732 -0.6054
   66MOL   H23647166   3.721   7.075   2.495 -0.3988  0.6410  1.4382
   66MOL   H23747167   3.825   7.296   2.583 -3.8934 -1.4837  1.3609
   66MOL   H23847168   3.891   7.227   2.432 -0.4784  1.1533 -2.7890
   66MOL   H23947169   3.777   7.375   2.287  2.9441 -0.0503  0.0189
   66MOL   H24047170   3.681   7.444   2.429  0.3274  1.4381  1.0040
   66MOL   H24147171   3.891   7.539   2.510  0.5085  1.3807 -0.4770
   66MOL   H24247172   3.982   7.473   2.379 -0.5881  0.3241 -1.5204
   66MOL   H24347173   3.872   7.569   2.199 -2.1261  1.0570 -0.4150
   66MOL   H24447174   3.784   7.687   2.306 -0.7696 -1.0222  1.9738
   66MOL   H24547175   4.085   7.651   2.290 -0.5248 -1.4700  2.1094
   66MOL   H24647176   4.012   7.761   2.400 -0.3825 -1.0067  0.6289
   66MOL   H24747177   3.950   0.133   2.227 -0.4317 -0.6914  1.4761
   66MOL   H24847178   3.943   0.008   2.101  1.0160 -1.4100 -0.8862
   66MOL   H24947179   4.512   0.081   2.188  0.0185 -0.4569 -1.2020
   66MOL   H25047180   4.398   7.754   2.276 -0.3815 -0.4604 -0.6106
   66MOL   H25147181   4.365   0.142   2.243 -2.1029  0.2467 -2.4199
   66MOL   H25247182   4.377   7.640   1.915  1.3734 -2.7622  0.5173
   66MOL   H25347183   4.520   7.746   1.917  1.5802 -1.1027  0.3186
   66MOL   C25447184   4.083   6.577   2.557 -0.2655 -0.3624  0.0752
   66MOL   C25547185   4.037   6.696   2.484 -0.4542  0.1755  0.4233
   66MOL   C25647186   4.134   6.795   2.416  0.4565 -0.1756 -0.1003
   66MOL   C25747187   4.069   6.906   2.330  0.3974 -0.1052  0.0785
   66MOL   C25847188   4.166   6.976   2.235 -0.1790  0.4139  0.5410
   66MOL   C25947189   4.137   7.125   2.222  0.1926 -0.2688  0.5733
   66MOL   C26047190   4.245   7.206   2.134 -0.3935 -0.6771 -0.2482
   66MOL   C26147191   4.220   7.359   2.135 -0.1239  0.5186 -0.5703
   66MOL   O26247192   4.320   7.428   2.069 -0.2399 -0.4935 -0.0055
   66MOL   C26347193   4.426   7.483   2.137  0.6273  0.2789 -0.6036
   66MOL   O26447194   4.450   7.453   2.254  0.2160 -0.0094  0.1016
   66MOL   C26547195   4.516   7.566   2.046 -0.0121 -0.2573  0.2047
   66MOL   C26647196   4.640   7.611   2.126 -0.5488  0.1417 -0.1352
   66MOL   C26747197   4.558   7.475   1.918 -0.9849  0.3153 -0.1297
   66MOL   H26847198   4.129   6.501   2.495 -0.9201 -1.8669  1.3975
   66MOL   H26947199   4.156   6.619   2.626 -1.7242  2.1161  0.2032
   66MOL   H27047200   4.008   6.528   2.619  0.6624  1.7790  3.0056
   66MOL   H27147201   3.960   6.668   2.412 -0.5993  2.3942 -0.3038
   66MOL   H27247202   3.978   6.757   2.552 -0.9139 -0.3034  0.4543
   66MOL   H27347203   4.206   6.733   2.362  1.6293  1.6939 -0.7810
   66MOL   H27447204   4.199   6.834   2.495 -0.3686  0.2911  0.3502
   66MOL   H27547205   4.012   6.969   2.398 -2.7030 -1.6707 -1.0121
   66MOL   H27647206   3.991   6.853   2.276  0.9663 -0.0463 -0.8101
   66MOL   H27747207   4.269   6.960   2.266 -0.4412  0.7816  1.6173
   66MOL   H27847208   4.160   6.918   2.143 -1.9727  0.7015  0.4720
   66MOL   H27947209   4.149   7.167   2.322  0.1047  1.7890 -0.2624
   66MOL   H28047210   4.036   7.138   2.184  0.7626  0.9719 -0.5714
   66MOL   H28147211   4.343   7.183   2.176 -0.4594  1.4902  1.1843
   66MOL   H28247212   4.254   7.173   2.030  1.7803 -0.2304 -0.2428
   66MOL   H28347213   4.124   7.379   2.087 -1.2976  0.0737  1.5302
   66MOL   H28447214   4.220   7.388   2.240  0.7625 -3.8999  0.7590
   66MOL   H28547215   4.703   7.524   2.145  0.5536  0.9758  0.0792
   66MOL   H28647216   4.699   7.685   2.072  0.5658 -0.8503 -0.2941
   66MOL   H28747217   4.623   7.658   2.223  3.3135 -0.6135  0.9566
   66MOL   H28847218   4.583   7.537   1.832  0.0816  0.4020  0.2361
   66MOL   H28947219   4.471   7.422   1.880  0.0977  0.1191 -2.4019
   66MOL   C29047220   4.908   7.732   2.662 -0.5275  0.6174  0.5687
   66MOL   C29147221   4.821   7.769   2.543  0.3135 -0.7586 -0.3222
   66MOL   C29247222   4.875   7.728   2.411  0.1846  0.2571  0.4965
   66MOL   C29347223   4.902   7.575   2.399 -0.4691  0.1368  0.6823
   66MOL   C29447224   4.975   7.521   2.276  0.3758 -0.7036 -0.6886
   66MOL   C29547225   4.959   7.371   2.255  0.3320  0.1426  0.2971
   66MOL   C29647226   5.046   7.307   2.144 -0.3436  0.4043  0.2261
   66MOL   C29747227   5.027   7.358   2.003 -0.8788  0.6681 -0.2031
   66MOL   O29847228   4.900   7.315   1.958 -0.0227 -0.1194  0.4871
   66MOL   C29947229   4.803   7.409   1.927  0.2085 -0.0854 -0.0593
   66MOL   O30047230   4.828   7.528   1.902 -0.1533  0.4712 -0.1802
   66MOL   C30147231   4.660   7.356   1.914 -0.4438 -0.5134  0.1180
   66MOL   C30247232   4.622   7.264   2.029  0.0609 -0.4000 -0.0333
   66MOL   C30347233   4.647   7.262   1.789  0.3966 -0.0926 -0.7411
   66MOL   H30447234   4.873   7.758   2.762 -3.3872 -0.9712  0.0241
   66MOL   H30547235   5.004   0.004   2.662 -0.4445  0.5196  2.7692
   66MOL   H30647236   4.912   7.624   2.677 -0.1786  1.0513  4.1604
   66MOL   H30747237   4.806   0.097   2.542  1.2694 -0.6067  1.1703
   66MOL   H30847238   4.729   7.710   2.553 -0.3951  0.3586 -0.1362
   66MOL   H30947239   4.965   0.008   2.396 -0.5991  1.1509 -0.7905
   66MOL   H31047240   4.804   7.748   2.331  0.2531  2.0787  0.8732
   66MOL   H31147241   4.962   7.539   2.482 -1.3125 -1.5792  0.5704
   66MOL   H31247242   4.809   7.520   2.413  0.1268 -1.5182 -1.5323
   66MOL   H31347243   4.939   7.576   2.190 -2.2423 -1.0529  0.1177
   66MOL   H31447244   5.079   7.545   2.299  0.0611  1.6642 -1.6499
   66MOL   H31547245   4.856   7.350   2.227 -0.2775  1.6722  1.3172
   66MOL   H31647246   4.968   7.313   2.347 -0.8760  1.9804  1.6212
   66MOL   H31747247   5.036   7.199   2.146 -1.9534  0.5486  0.4153
   66MOL   H31847248   5.150   7.331   2.170 -0.6656  2.0900  0.0285
   66MOL   H31947249   5.112   7.319   1.948  0.4546  1.5299  1.2229
   66MOL   H32047250   5.036   7.466   2.010 -2.8072  0.8166  0.2854
   66MOL   H32147251   4.515   7.242   2.033  0.5714 -2.7346  3.5744
   66MOL   H32247252   4.651   7.301   2.127 -1.3195  0.6640 -0.0080
   66MOL   H32347253   4.667   7.165   2.038  0.3726 -0.0330  3.1103
   66MOL   H32447254   4.722   7.184   1.795  0.7501  0.2824 -0.2008
   66MOL   H32547255   4.562   7.196   1.807  0.0284  0.3650 -0.8060
   66MOL   C32647256   4.694   0.301   2.128  0.1752 -0.4507 -1.0307
   66MOL   C32747257   4.789   0.331   2.010  0.1196 -0.1369  0.3494
   66MOL   C32847258   4.765   0.247   1.884 -0.3624  0.2788 -0.6064
   66MOL   C32947259   4.861   0.305   1.777  0.7417  0.2854  0.6069
   66MOL   C33047260   4.823   0.246   1.637 -0.0000 -0.3419 -0.0700
   66MOL   C33147261   4.882   0.107   1.617  0.2315 -0.3466  0.7999
   66MOL   C33247262   4.775   7.777   1.644 -0.1532  0.6884 -0.7495
   66MOL   C33347263   4.814   7.636   1.583 -0.5340  0.9113 -0.6790
   66MOL   O33447264   4.720   7.534   1.612 -0.2085 -0.3649  0.0554
   66MOL   C33547265   4.741   7.405   1.601 -0.3996  0.2185 -0.3019
   66MOL   O33647266   4.854   7.361   1.566 -0.2944 -0.1833  0.2277
   66MOL   C33747267   4.630   7.304   1.638  0.6708 -0.4208  0.2086
   66MOL   C33847268   4.652   7.175   1.548 -0.4551  0.1175 -0.2484
   66MOL   C33947269   4.491   7.365   1.606 -0.1745  0.5195  0.6290
   66MOL   H34047270   4.700   0.201   2.169 -0.4183 -0.0588  0.0296
   66MOL   H34147271   4.589   0.324   2.106  0.0507  0.4158  0.4498
   66MOL   H34247272   4.731   0.363   2.209 -0.3068 -2.2410  0.5895
   66MOL   H34347273   4.892   0.315   2.042 -0.2554 -1.8889  0.7090
   66MOL   H34447274   4.771   0.433   1.975  0.6285  0.4189  1.6647
   66MOL   H34547275   4.660   0.243   1.854 -0.1965 -4.0370 -1.0016
   66MOL   H34647276   4.802   0.147   1.906 -1.4392  0.3223  1.4833
   66MOL   H34747277   4.966   0.289   1.800  0.4204 -3.5321 -0.2636
   66MOL   H34847278   4.849   0.413   1.769  0.2951  0.1406 -0.9786
   66MOL   H34947279   4.719   0.264   1.610  0.4463  0.3041 -1.4192
   66MOL   H35047280   4.889   0.309   1.577  0.2094 -1.2833 -0.8441
   66MOL   H35147281   4.916   0.095   1.514 -0.6929 -1.4962  0.6241
   66MOL   H35247282   4.964   0.086   1.684  0.6903 -0.5312  0.1883
   66MOL   H35347283   4.674   0.019   1.610 -0.9756  1.3139  1.9929
   66MOL   H35447284   4.753   7.768   1.751 -0.2727  0.0379 -0.8281
   66MOL   H35547285   4.808   7.641   1.474 -0.4100  0.1161 -0.7248
   66MOL   H35647286   4.914   7.609   1.619 -1.7420  0.2577  2.2957
   66MOL   H35747287   4.593   7.089   1.580  0.9258 -1.0256 -0.7291
   66MOL   H35847288   4.659   7.186   1.440  0.6404 -1.4595 -0.3627
   66MOL   H35947289   4.748   7.139   1.584 -0.2614  0.2601 -0.6218
   66MOL   H36047290   4.419   7.317   1.673 -0.7774 -0.7827 -0.8952
   66MOL   H36147291   4.483   7.466   1.646 -0.5198  1.7641 -2.4466
   66MOL   C36247292   4.478   0.280   0.511  0.3148 -0.2317  0.1325
   66MOL   C36347293   4.575   0.238   0.618  0.4286 -0.3403 -0.4189
   66MOL   C36447294   4.501   0.147   0.721  0.2013 -0.1794  0.1614
   66MOL   C36547295   4.594   0.131   0.845  0.1974 -0.1812  0.0441
   66MOL   C36647296   4.536   0.024   0.937  0.0835 -0.4107  0.3429
   66MOL   C36747297   4.613   7.769   1.070  0.6959  0.3474  0.0328
   66MOL   C36847298   4.527   7.693   1.171  0.3929  0.6208  0.2578
   66MOL   C36947299   4.616   7.638   1.281  0.4465  0.3208 -0.8288
   66MOL   O37047300   4.541   7.569   1.378  0.1376  0.2867 -0.0607
   66MOL   C37147301   4.519   7.435   1.364 -0.6179  0.6283 -0.1488
   66MOL   O37247302   4.580   7.359   1.278 -0.1845 -0.1623 -0.0044
   66MOL   C37347303   4.414   7.376   1.461 -0.3429 -0.0647 -0.9437
   66MOL   C37447304   4.298   7.469   1.484  0.2227  0.3936 -0.3746
   66MOL   C37547305   4.360   7.235   1.424 -0.7279 -0.1062  0.5951
   66MOL   H37647306   4.414   0.196   0.484  1.4772 -1.8001  2.0835
   66MOL   H37747307   4.412   0.361   0.542 -2.2073 -1.6361 -1.3929
   66MOL   H37847308   4.524   0.322   0.422  0.9269 -1.7071 -0.2689
   66MOL   H37947309   4.614   0.324   0.673  0.4181 -0.9492  0.5646
   66MOL   H38047310   4.660   0.192   0.569  1.0121  0.5836 -0.2880
   66MOL   H38147311   4.478   0.060   0.658 -1.1770  0.1025  0.2662
   66MOL   H38247312   4.405   0.188   0.753  0.1739  0.8386 -1.1869
   66MOL   H38347313   4.587   0.226   0.898  1.3519 -0.5653  0.9078
   66MOL   H38447314   4.697   0.107   0.817 -0.0961 -0.4760 -0.8175
   66MOL   H38547315   4.442   0.062   0.977 -0.8586 -2.4987  0.1928
   66MOL   H38647316   4.516   7.711   0.882 -3.6899  0.5908 -0.0967
   66MOL   H38747317   4.645   0.081   1.120 -1.9032  1.1082  0.3892
   66MOL   H38847318   4.704   7.719   1.036 -0.6650 -2.3300  0.2545
   66MOL   H38947319   4.463   7.621   1.120 -0.6961  1.8231 -0.1136
   66MOL   H39047320   4.462   7.768   1.216  0.7363  0.0035  1.8237
   66MOL   H39147321   4.693   7.579   1.231  0.6812  0.6339 -0.8400
   66MOL   H39247322   4.669   7.726   1.319  1.1717 -1.0168  1.3665
   66MOL   H39347323   4.333   7.551   1.547  0.7743  0.4208 -0.7073
   66MOL   H39447324   4.267   7.521   1.393 -1.3052 -1.9273 -1.2158
   66MOL   H39547325   4.210   7.427   1.533  2.1866  0.2415  3.2075
   66MOL   H39647326   4.449   7.178   1.398 -1.7220 -1.1410 -0.5516
   66MOL   H39747327   4.329   7.180   1.513  1.4605 -1.9065  0.2814
   66MOL   C39847328   4.661   6.894   0.476 -0.7826  0.0490  0.3138
   66MOL   C39947329   4.518   6.946   0.526  0.1128 -0.4301 -0.2814
   66MOL   C40047330   4.511   7.099   0.531 -0.3275 -0.7639 -0.4183
   66MOL   C40147331   4.366   7.144   0.564 -0.2007  0.7159  0.2392
   66MOL   C40247332   4.363   7.288   0.602  0.4007 -0.6328 -0.0279
   66MOL   C40347333   4.419   7.333   0.745 -0.2438 -0.9951  0.0757
   66MOL   C40447334   4.350   7.267   0.868 -0.6155 -0.7232  0.1526
   66MOL   C40547335   4.429   7.291   0.997 -1.0241 -0.1734  0.2655
   66MOL   O40647336   4.381   7.227   1.117 -0.4141 -0.6409  0.2404
   66MOL   C40747337   4.279   7.279   1.184  0.2559 -0.3512 -0.2428
   66MOL   O40847338   4.220   7.381   1.145  0.2822  0.2671  0.2697
   66MOL   C40947339   4.247   7.203   1.316  0.5173  0.0555  0.5165
   66MOL   C41047340   4.259   7.058   1.284 -0.2296  0.3728  0.7995
   66MOL   C41147341   4.102   7.241   1.362  0.4763  0.9084 -0.1073
   66MOL   H41247342   4.673   6.789   0.504 -1.0626  0.2934  1.3860
   66MOL   H41347343   4.730   6.945   0.543 -0.4731  1.8000 -1.3104
   66MOL   H41447344   4.684   6.915   0.372 -3.4485 -0.9376 -0.5152
   66MOL   H41547345   4.502   6.911   0.628  0.2152 -0.6253 -0.3336
   66MOL   H41647346   4.442   6.894   0.468  0.3149  2.1993 -3.0756
   66MOL   H41747347   4.591   7.145   0.588 -1.4567  0.8630 -0.0818
   66MOL   H41847348   4.521   7.136   0.429  1.9019 -1.0138 -0.3155
   66MOL   H41947349   4.334   7.090   0.653 -2.3306  2.8506  0.8367
   66MOL   H42047350   4.297   7.132   0.481 -0.9789  1.5739  0.7510
   66MOL   H42147351   4.415   7.350   0.529  2.1294 -1.4049  0.5157
   66MOL   H42247352   4.259   7.313   0.585  0.6084  0.8142  0.8188
   66MOL   H42347353   4.412   7.441   0.756  0.3952 -0.8747 -0.6594
   66MOL   H42447354   4.524   7.307   0.753 -0.7120 -2.6420  1.1059
   66MOL   H42547355   4.252   7.312   0.888  0.9037  2.5214  0.6130
   66MOL   H42647356   4.328   7.163   0.845  0.2386 -0.3927 -2.2394
   66MOL   H42747357   4.528   7.252   0.974 -0.4859  0.5485  1.3126
   66MOL   H42847358   4.442   7.399   1.006 -0.0753 -0.3194  0.6510
   66MOL   H42947359   4.199   7.015   1.204 -0.5031 -0.2953  1.3513
   66MOL   H43047360   4.224   7.009   1.375 -1.5061  1.8929  1.1377
   66MOL   H43147361   4.356   7.022   1.249  0.3125  1.2479  1.3880
   66MOL   H43247362   4.094   7.350   1.362 -0.1526  0.8817  1.5831
   66MOL   H43347363   4.093   7.217   1.468 -0.1544  0.0977 -0.3391
   66MOL   C43447364   3.300   6.526   1.865 -0.1650 -0.6171 -0.1788
   66MOL   C43547365   3.425   6.578   1.797 -0.7422  0.1406 -0.1165
   66MOL   C43647366   3.430   6.730   1.786 -0.4615  0.1664  0.8710
   66MOL   C43747367   3.549   6.791   1.702  0.7303  0.4358  0.8324
   66MOL   C43847368   3.690   6.776   1.766  0.7326  0.5618 -0.1283
   66MOL   C43947369   3.797   6.837   1.677  0.5910  0.3335  0.1118
   66MOL   C44047370   3.822   6.784   1.537 -0.4639  0.1761 -0.0878
   66MOL   C44147371   3.954   6.832   1.467 -0.5498  0.2265 -0.3179
   66MOL   O44247372   3.958   6.972   1.443  0.0099  0.4148  0.2460
   66MOL   C44347373   3.960   7.026   1.316  0.6382  0.2686  0.0179
   66MOL   O44447374   3.954   6.954   1.217 -0.5149  0.4439 -0.3281
   66MOL   C44547375   3.965   7.181   1.306 -0.2637 -0.3564  0.3340
   66MOL   C44647376   3.950   7.229   1.166  0.0822 -0.1355 -0.6137
   66MOL   C44747377   3.844   7.227   1.394  0.1005  0.1565  0.4147
   66MOL   H44847378   3.266   6.600   1.938 -0.4499 -0.1334 -0.7943
   66MOL   H44947379   3.317   6.437   1.925 -1.9493 -0.0657  1.2065
   66MOL   H45047380   3.223   6.521   1.788  0.9184  2.4241 -1.5411
   66MOL   H45147381   3.429   6.534   1.698 -3.4926  1.7295 -0.9621
   66MOL   H45247382   3.509   6.547   1.859  0.9898  0.8777 -2.0480
   66MOL   H45347383   3.442   6.772   1.886 -1.5953  0.7733  0.7542
   66MOL   H45447384   3.336   6.757   1.739  0.7891 -0.7180 -2.2538
   66MOL   H45547385   3.522   6.896   1.702  0.9867  0.5213  2.8166
   66MOL   H45647386   3.541   6.755   1.599 -0.1679  0.8605  0.7520
   66MOL   H45747387   3.695   6.824   1.864 -2.3434  0.6941  0.0085
   66MOL   H45847388   3.710   6.671   1.786  0.3852  0.4158 -0.5407
   66MOL   H45947389   3.886   6.831   1.740  1.6504  0.2281 -1.3908
   66MOL   H46047390   3.765   6.939   1.660 -0.3755 -0.2452 -1.6637
   66MOL   H46147391   3.821   6.676   1.553  0.5700  0.3318  1.1388
   66MOL   H46247392   3.732   6.812   1.483 -1.7690  1.3453  2.5846
   66MOL   H46347393   3.984   6.773   1.381 -0.0674 -0.4111  0.2758
   66MOL   H46447394   4.045   6.810   1.523  0.5315 -3.8763 -3.4652
   66MOL   H46547395   3.955   7.337   1.153  0.6948 -0.0977 -0.1165
   66MOL   H46647396   4.025   7.189   1.097 -1.8336 -1.5431 -1.9087
   66MOL   H46747397   3.855   7.200   1.122 -0.7091  1.2050  0.1603
   66MOL   H46847398   3.849   7.167   1.485  0.9569 -0.4282 -0.0115
   66MOL   H46947399   3.875   7.328   1.421 -0.3842  0.0355  1.4327
   66MOL   C47047400   3.966   7.336   0.490 -0.6786 -0.8857 -0.1397
   66MOL   C47147401   3.827   7.372   0.550 -0.9895 -0.0927  0.4836
   66MOL   C47247402   3.850   7.477   0.660 -0.1045  0.3040 -0.1793
   66MOL   C47347403   3.722   7.514   0.723  0.2518  0.5192 -0.4755
   66MOL   C47447404   3.741   7.598   0.851  0.2258  0.4409  0.7441
   66MOL   C47547405   3.809   7.523   0.966  0.3760  0.1706 -0.1813
   66MOL   C47647406   3.808   7.596   1.106  0.5952 -0.4880 -0.2951
   66MOL   C47747407   3.693   7.570   1.201 -0.0015  0.1647 -0.1962
   66MOL   O47847408   3.713   7.454   1.274 -0.1509  0.2638  0.1730
   66MOL   C47947409   3.662   7.337   1.244 -0.2805  1.2192 -0.3683
   66MOL   O48047410   3.591   7.313   1.146 -0.0461  0.0396 -0.6815
   66MOL   C48147411   3.690   7.228   1.351 -1.1676 -0.0434 -0.2101
   66MOL   C48247412   3.648   7.091   1.295 -0.7134  0.4887  0.3472
   66MOL   C48347413   3.607   7.259   1.487  0.4475 -0.1337 -0.1264
   66MOL   H48447414   4.017   7.423   0.446 -0.1419 -1.1265 -0.0031
   66MOL   H48547415   3.957   7.254   0.419 -1.8579 -0.3555 -0.6153
   66MOL   H48647416   4.034   7.309   0.571  2.9733  2.4187 -1.9379
   66MOL   H48747417   3.755   7.401   0.474  0.2468 -0.0986 -0.7224
   66MOL   H48847418   3.792   7.276   0.587 -0.0533  0.6617  3.5399
   66MOL   H48947419   3.924   7.440   0.732 -0.4504 -0.1327 -0.0464
   66MOL   H49047420   3.892   7.562   0.606  0.5505 -1.8549 -3.2517
   66MOL   H49147421   3.657   7.571   0.657  1.2689  3.0662  0.6786
   66MOL   H49247422   3.677   7.421   0.757  0.3949  0.5246 -0.2748
   66MOL   H49347423   3.812   7.680   0.836  0.8288  0.0397  1.3962
   66MOL   H49447424   3.638   7.630   0.871  0.1940 -0.6461  2.3789
   66MOL   H49547425   3.763   7.426   0.987  1.1533  0.1780  1.6928
   66MOL   H49647426   3.914   7.514   0.937  1.3348  0.2521  3.0313
   66MOL   H49747427   3.901   7.573   1.157  0.1397 -0.0271  0.7508
   66MOL   H49847428   3.820   7.704   1.096 -1.0857 -0.3192 -0.7565
   66MOL   H49947429   3.594   7.565   1.157 -0.5098  1.8127  0.7164
   66MOL   H50047430   3.710   7.659   1.261  1.3919 -0.1291 -0.1265
   66MOL   H50147431   3.622   7.004   1.355 -0.6690 -0.0713 -0.4550
   66MOL   H50247432   3.725   7.060   1.225 -0.8627 -0.1289  0.4529
   66MOL   H50347433   3.563   7.095   1.228  0.9893 -2.5948 -2.0906
   66MOL   H50447434   3.616   7.172   1.552 -1.6455  1.3160  2.1918
   66MOL   H50547435   3.667   7.326   1.550 -0.6911 -0.9042  1.8331
   66MOL   C50647436   3.234   7.307   0.552  0.1239 -0.4116  0.0372
   66MOL   C50747437   3.292   7.333   0.684  0.0308  0.5284 -0.7091
   66MOL   C50847438   3.227   7.447   0.762 -0.1525 -0.0208 -1.1771
   66MOL   C50947439   3.303   7.473   0.889 -0.0330 -0.7829  0.0274
   66MOL   C51047440   3.224   7.559   0.992  0.0601  0.5084 -0.1793
   66MOL   C51147441   3.305   7.575   1.113 -1.0465 -0.4596  0.1055
   66MOL   C51247442   3.240   7.636   1.236  0.2210 -0.1761  0.8156
   66MOL   C51347443   3.323   7.636   1.356 -0.1370 -0.1814  0.1171
   66MOL   O51447444   3.341   7.504   1.393 -0.3539 -0.0168  0.1644
   66MOL   C51547445   3.452   7.462   1.456  0.3647  0.8261  0.3559
   66MOL   O51647446   3.543   7.538   1.483  0.0149  0.5753 -0.6221
   66MOL   C51747447   3.458   7.308   1.495  1.1981 -0.4959  0.2402
   66MOL   C51847448   3.372   7.241   1.382  0.5362  0.0351  0.0091
   66MOL   C51947449   3.381   7.270   1.630  0.1013 -0.7104 -0.4065
   66MOL   H52047450   3.216   7.400   0.498 -2.2069 -1.1229 -0.4401
   66MOL   H52147451   3.142   7.252   0.568  1.8776 -3.1080  1.3656
   66MOL   H52247452   3.291   7.245   0.483 -0.0825  0.8062 -1.2418
   66MOL   H52347453   3.398   7.352   0.669  0.9164 -0.6185  3.4010
   66MOL   H52447454   3.293   7.248   0.752 -2.7579  0.0765 -1.1811
   66MOL   H52547455   3.214   7.532   0.695 -0.2008 -1.8948 -3.6086
   66MOL   H52647456   3.126   7.409   0.780  0.7908 -1.3658  1.4746
   66MOL   H52747457   3.333   7.381   0.941  0.1384 -0.4583  0.5057
   66MOL   H52847458   3.394   7.529   0.868  0.8838 -1.3048  2.4525
   66MOL   H52947459   3.203   7.662   0.963  2.7809  1.0819 -0.2797
   66MOL   H53047460   3.129   7.518   1.027 -0.5647 -1.2569 -3.6906
   66MOL   H53147461   3.391   7.630   1.075 -0.8836 -0.2700  0.7449
   66MOL   H53247462   3.346   7.478   1.142  0.0588 -0.1726 -0.4575
   66MOL   H53347463   3.152   7.572   1.240 -0.5136  0.5039 -2.8096
   66MOL   H53447464   3.206   7.735   1.207  0.5123  0.3916  2.3614
   66MOL   H53547465   3.266   7.676   1.440  1.4107 -0.6240  1.4092
   66MOL   H53647466   3.414   7.690   1.331 -2.1115  2.7205 -0.9696
   66MOL   H53747467   3.266   7.258   1.403  0.4084  2.3072 -2.2503
   66MOL   H53847468   3.381   7.132   1.377  0.5926 -0.0490  1.7031
   66MOL   H53947469   3.390   7.271   1.279  0.7241  1.9494  0.5906
   66MOL   H54047470   3.280   7.309   1.620  0.8016  1.6935  1.3978
   66MOL   H54147471   3.364   7.163   1.631  2.3195 -1.0731  0.9937
   66MOL   C54247472   2.752   7.246   1.365  0.2469 -0.6738 -0.3275
   66MOL   C54347473   2.787   7.388   1.400 -0.0534  0.0685 -0.1290
   66MOL   C54447474   2.911   7.394   1.487 -0.9054 -0.0130  0.3116
   66MOL   C54547475   2.943   7.544   1.526  0.2547  0.7459 -1.0919
   66MOL   C54647476   3.068   7.545   1.623  0.2491 -0.6158 -0.3653
   66MOL   C54747477   3.093   7.688   1.662  0.7768 -0.6138 -0.3472
   66MOL   C54847478   3.206   7.711   1.767  0.4078  0.2938  0.1515
   66MOL   C54947479   3.345   7.659   1.735  0.3608 -0.4032 -0.5212
   66MOL   O55047480   3.342   7.519   1.750  0.1671 -0.3794  0.8961
   66MOL   C55147481   3.454   7.455   1.786 -0.5447  0.3317  0.0207
   66MOL   O55247482   3.560   7.505   1.818  0.4164 -0.3072  0.3618
   66MOL   C55347483   3.432   7.303   1.782 -0.0091 -0.2591  0.1111
   66MOL   C55447484   3.568   7.230   1.805  0.5335  0.0639  0.1963
   66MOL   C55547485   3.321   7.262   1.886 -0.2314 -0.2731  0.0383
   66MOL   H55647486   2.676   7.254   1.286 -1.8695 -2.1867  1.5146
   66MOL   H55747487   2.708   7.184   1.443 -0.8046  1.4075  0.7738
   66MOL   H55847488   2.830   7.185   1.320  2.1185  1.9253 -0.7332
   66MOL   H55947489   2.816   7.448   1.313  0.8538 -1.3443 -0.8289
   66MOL   H56047490   2.694   7.435   1.433 -0.3112 -0.2610 -0.3808
   66MOL   H56147491   2.995   7.350   1.434  0.5127 -0.3109  2.7545
   66MOL   H56247492   2.898   7.327   1.571 -3.4900  0.6563  0.4879
   66MOL   H56347493   2.970   7.593   1.433  1.1844 -0.0251 -1.2314
   66MOL   H56447494   2.854   7.593   1.565 -0.5290 -1.1087 -0.5071
   66MOL   H56547495   3.152   7.498   1.570 -0.5664 -1.4863 -0.9097
   66MOL   H56647496   3.059   7.495   1.719  0.5217  1.3415  0.7035
   66MOL   H56747497   3.102   7.754   1.576  1.7905  0.1506  0.3406
   66MOL   H56847498   2.999   7.725   1.704 -0.2713 -4.2492  0.7273
   66MOL   H56947499   3.208   0.039   1.782  0.2639  0.1587  1.1774
   66MOL   H57047500   3.186   7.665   1.864 -0.5536 -0.7545 -0.5182
   66MOL   H57147501   3.422   7.699   1.800  1.0276 -2.0192 -0.2984
   66MOL   H57247502   3.376   7.685   1.634 -2.7911 -1.2132 -1.7603
   66MOL   H57347503   3.601   7.217   1.908 -3.0181  0.9781  1.5513
   66MOL   H57447504   3.653   7.283   1.762 -0.0266  0.3397 -0.5966
   66MOL   H57547505   3.563   7.133   1.756 -1.6456 -1.4369  3.2497
   66MOL   H57647506   3.262   7.191   1.828 -0.3225 -0.1333 -0.0377
   66MOL   H57747507   3.260   7.350   1.903 -2.4879 -2.1737  2.3003
   66MOL   C57847508   3.020   0.273   1.894  0.0471  0.1882  0.2713
   66MOL   C57947509   3.160   0.336   1.923 -0.3954  0.1730 -0.1496
   66MOL   C58047510   3.221   0.298   2.059  0.7389 -0.5081 -0.3429
   66MOL   C58147511   3.303   0.170   2.059  0.5632  0.3563 -0.5464
   66MOL   C58247512   3.376   0.148   2.190 -0.0469 -0.0569  0.2098
   66MOL   C58347513   3.463   0.019   2.194  0.0759 -0.6363  0.0378
   66MOL   C58447514   3.389   7.664   2.169  0.0851 -0.2427 -0.0119
   66MOL   C58547515   3.483   7.549   2.151  0.0296 -0.5785 -0.2869
   66MOL   O58647516   3.414   7.438   2.105  0.0258 -0.3915  0.5816
   66MOL   C58747517   3.458   7.308   2.103 -0.3184  0.2175  0.7574
   66MOL   O58847518   3.566   7.271   2.146 -0.6695 -0.1496  0.2225
   66MOL   C58947519   3.352   7.213   2.034  0.7518 -0.3989 -0.0361
   66MOL   C59047520   3.397   7.069   2.033 -0.3367 -0.5977 -0.3123
   66MOL   C59147521   3.213   7.220   2.118 -0.3314  0.1201  1.0185
   66MOL   H59247522   2.955   0.325   1.823 -0.3498  2.8357  2.5137
   66MOL   H59347523   2.961   0.267   1.985  1.7890 -0.4729  1.3668
   66MOL   H59447524   3.031   0.169   1.863 -0.8867  0.2892 -0.4464
   66MOL   H59547525   3.158   0.444   1.916  1.6913  0.0413 -3.6669
   66MOL   H59647526   3.227   0.319   1.840  1.6982  0.1877  1.4989
   66MOL   H59747527   3.138   0.288   2.129  2.8465 -0.0706  2.2941
   66MOL   H59847528   3.280   0.381   2.098  1.7136 -0.8788 -0.9940
   66MOL   H59947529   3.378   0.157   1.980  0.3085  1.0478 -0.9039
   66MOL   H60047530   3.230   0.089   2.051  2.5929 -1.5409 -0.3523
   66MOL   H60147531   3.297   0.138   2.264 -1.7881  2.1819 -1.2760
   66MOL   H60247532   3.439   0.233   2.217 -0.5556  0.2547  0.4353
   66MOL   H60347533   3.515   0.016   2.290 -0.8297 -2.6909  0.4983
   66MOL   H60447534   3.537   0.032   2.115 -0.7284 -3.5559 -1.2820
   66MOL   H60547535   3.328   7.675   2.080 -2.6586  0.3760  1.8813
   66MOL   H60647536   3.318   7.643   2.249 -0.8152  1.3659 -0.3642
   66MOL   H60747537   3.572   7.560   2.089 -0.7304 -0.0173 -1.3028
   66MOL   H60847538   3.527   7.526   2.248 -1.1935  1.8118  0.8828
   66MOL   H60947539   3.470   7.054   1.953 -1.2165 -1.3743 -0.9957
   66MOL   H61047540   3.447   7.039   2.125 -0.6858  2.5529  0.9697
   66MOL   H61147541   3.315   6.998   2.020 -1.5732  0.4448  1.6366
   66MOL   H61247542   3.146   7.157   2.059  1.0575 -0.3478 -0.1134
   66MOL   H61347543   3.175   7.322   2.106  0.2529  0.0944 -1.2132
   66MOL   C61447544   3.685   6.492   2.810 -0.2084 -0.8117 -0.6379
   66MOL   C61547545   3.605   6.516   2.682 -0.4513 -0.6658 -0.1814
   66MOL   C61647546   3.700   6.558   2.562 -0.1535 -0.3315 -0.9032
   66MOL   C61747547   3.625   6.618   2.441  0.5834  0.0317 -0.3281
   66MOL   C61847548   3.613   6.762   2.428  0.0748 -0.3900  0.4325
   66MOL   C61947549   3.574   6.804   2.287  0.2292 -0.3817  0.4816
   66MOL   C62047550   3.431   6.756   2.256 -0.1537 -0.6274  0.2612
   66MOL   C62147551   3.313   6.813   2.339  0.3706 -0.0094 -0.2273
   66MOL   O62247552   3.299   6.956   2.330 -0.2420  0.0062  0.4882
   66MOL   C62347553   3.202   7.010   2.257  0.4346  0.1203  0.3156
   66MOL   O62447554   3.117   6.947   2.196  0.0264 -0.5411 -0.4463
   66MOL   C62547555   3.196   7.162   2.263  0.5700  0.2192 -0.2159
   66MOL   C62647556   3.306   7.217   2.350  0.3409 -0.2040 -0.2194
   66MOL   C62747557   3.048   7.207   2.312  0.3828 -0.1372 -0.9063
   66MOL   H62847558   3.767   6.428   2.778  0.9256 -0.0121  0.6079
   66MOL   H62947559   3.615   6.450   2.882 -0.5388  1.3898  0.3634
   66MOL   H63047560   3.724   6.585   2.852 -0.5056 -0.8266 -0.3300
   66MOL   H63147561   3.541   6.434   2.647 -1.1555 -0.3766  0.4176
   66MOL   H63247562   3.523   6.587   2.694  0.8957  1.3523 -2.3081
   66MOL   H63347563   3.743   6.466   2.522  0.7807  0.6993 -2.2868
   66MOL   H63447564   3.777   6.631   2.586  0.4100 -1.3010  0.3340
   66MOL   H63547565   3.525   6.576   2.437  1.1036 -1.1311 -1.1004
   66MOL   H63647566   3.661   6.585   2.344  0.1748 -1.3155 -0.0262
   66MOL   H63747567   3.526   6.777   2.492  1.0534  2.6596  1.1346
   66MOL   H63847568   3.705   6.810   2.460 -0.3564 -0.4132  1.7496
   66MOL   H63947569   3.563   6.912   2.289 -1.3718 -0.5436  1.6241
   66MOL   H64047570   3.644   6.782   2.206 -0.8457 -1.5045 -0.1669
   66MOL   H64147571   3.437   6.647   2.255  1.4174 -0.5553 -1.4722
   66MOL   H64247572   3.423   6.776   2.149  0.5037  1.2366  0.5386
   66MOL   H64347573   3.214   6.780   2.307 -0.9525  1.8167  1.9145
   66MOL   H64447574   3.325   6.778   2.441  2.0675  1.7692  0.2046
   66MOL   H64547575   3.323   7.325   2.343  0.6602 -0.0856  2.0580
   66MOL   H64647576   3.406   7.177   2.329  0.1998 -0.1795 -0.9736
   66MOL   H64747577   3.294   7.183   2.452  0.4279  0.1436 -0.0931
   66MOL   H64847578   2.977   7.152   2.250 -1.8048 -0.2707  1.6352
   66MOL   H64947579   3.028   7.311   2.284 -1.5838  0.1389  1.3087
   66MOL   C65047580   3.564   6.788   3.095  0.1855 -0.0366  0.5040
   66MOL   C65147581   3.500   6.892   2.995 -0.1042 -0.1176 -0.1670
   66MOL   C65247582   3.458   7.024   3.059  0.2775  0.1924  0.0129
   66MOL   C65347583   3.341   7.093   2.988  0.5084 -0.3660  0.5105
   66MOL   C65447584   3.382   7.161   2.854 -0.2717 -0.3323 -0.4855
   66MOL   C65547585   3.264   7.220   2.780  0.2553  0.5041  0.0608
   66MOL   C65647586   3.164   7.312   2.862  0.0046  0.9705 -0.6648
   66MOL   C65747587   3.070   7.398   2.774 -0.6487  1.0140  0.2028
   66MOL   O65847588   2.999   7.316   2.677 -0.7846 -0.3158  0.1342
   66MOL   C65947589   3.049   7.310   2.551 -0.4147  0.3050  1.0465
   66MOL   O66047590   3.130   7.391   2.503 -0.5802  0.0214 -0.2487
   66MOL   C66147591   2.998   7.194   2.461  0.3235  0.2167  0.5008
   66MOL   C66247592   3.048   7.063   2.528  0.3711 -0.2434  0.4823
   66MOL   C66347593   2.838   7.193   2.469  0.0130  0.2048 -0.0229
   66MOL   H66447594   3.578   6.686   3.060  2.2763  0.9786 -1.6972
   66MOL   H66547595   3.498   6.783   3.182  0.5997  0.7575  0.8713
   66MOL   H66647596   3.666   6.814   3.122  0.8195 -0.4204 -1.4922
   66MOL   H66747597   3.416   6.846   2.943 -0.3709 -0.0144  0.1641
   66MOL   H66847598   3.576   6.904   2.918 -1.3125  0.3514 -1.3057
   66MOL   H66947599   3.546   7.087   3.064  1.3053 -1.2640  0.4467
   66MOL   H67047600   3.423   6.999   3.159  0.3412  2.7096  0.6893
   66MOL   H67147601   3.304   7.174   3.052  2.5086  0.6044  0.4719
   66MOL   H67247602   3.259   7.028   2.958  2.0038 -2.9060  1.7535
   66MOL   H67347603   3.426   7.083   2.792  0.3908 -0.7325  0.4720
   66MOL   H67447604   3.458   7.237   2.874 -2.1343  1.3602  0.3055
   66MOL   H67547605   3.305   7.278   2.697 -0.9922 -0.2539 -1.0954
   66MOL   H67647606   3.209   7.140   2.729  0.9008  0.2619 -0.2626
   66MOL   H67747607   3.226   7.377   2.924  1.0915  0.3672 -1.1158
   66MOL   H67847608   3.112   7.239   2.924  2.1083  0.2006  0.2493
   66MOL   H67947609   3.136   7.471   2.726  1.9652 -1.5151 -0.1968
   66MOL   H68047610   3.006   7.453   2.843 -1.4680 -0.3802  0.5658
   66MOL   H68147611   3.003   7.064   2.627  0.4089  2.7125  0.5367
   66MOL   H68247612   3.156   7.057   2.539  0.2151 -2.9761  0.8084
   66MOL   H68347613   3.000   6.976   2.485  0.2442 -1.6344  3.3360
   66MOL   H68447614   2.808   7.089   2.455 -0.9492  0.3794  0.7088
   66MOL   H68547615   2.809   7.210   2.573  1.8953  0.2272  0.5194
   66MOL   C68647616   2.641   0.166   1.925 -0.1420 -0.5609  0.2096
   66MOL   C68747617   2.582   0.055   2.020 -0.5944  0.0803  0.4673
   66MOL   C68847618   2.650   7.700   1.986  0.3989 -0.0808  0.6239
   66MOL   C68947619   2.589   7.625   1.869  0.9292 -0.0990 -0.3570
   66MOL   C69047620   2.690   7.519   1.820  0.4990  0.3057  0.5116
   66MOL   C69147621   2.684   7.402   1.921 -0.5825 -0.6876  0.0577
   66MOL   C69247622   2.806   7.311   1.910  0.1061  0.2495 -0.4268
   66MOL   C69347623   2.818   7.209   2.023 -0.2962  0.1477 -0.0066
   66MOL   O69447624   2.799   7.270   2.149  0.4301  0.6713  0.8696
   66MOL   C69547625   2.713   7.214   2.242 -0.4978  0.5367  0.0121
   66MOL   O69647626   2.623   7.130   2.216  0.1215  0.1291  0.4580
   66MOL   C69747627   2.735   7.283   2.386 -0.0078 -0.2544 -0.3605
   66MOL   C69847628   2.769   7.430   2.375  1.1276 -0.0714 -0.7551
   66MOL   C69947629   2.592   7.268   2.456  0.4299 -0.7482 -0.6988
   66MOL   H70047630   2.744   0.146   1.894 -0.1798  0.9571 -0.9937
   66MOL   H70147631   2.642   0.269   1.962  0.9706 -0.6074  0.3251
   66MOL   H70247632   2.576   0.164   1.838  1.5918 -1.1683 -1.1011
   66MOL   H70347633   2.474   0.049   2.006 -0.5694  2.4144 -1.0447
   66MOL   H70447634   2.608   0.079   2.123  1.3537  0.3385 -0.0563
   66MOL   H70547635   2.632   7.636   2.072  2.2700  0.1002  1.1693
   66MOL   H70647636   2.759   7.708   1.979  0.2364  1.5239 -0.3734
   66MOL   H70747637   2.565   7.686   1.782 -1.6890  1.9107  1.7106
   66MOL   H70847638   2.495   7.576   1.895  0.5274  0.4458 -0.7745
   66MOL   H70947639   2.789   7.556   1.794  0.2293  0.9854  0.4463
   66MOL   H71047640   2.658   7.463   1.732 -1.5876  0.8350  0.9020
   66MOL   H71147641   2.679   7.437   2.024 -2.2692 -0.7796  0.0254
   66MOL   H71247642   2.594   7.341   1.913 -0.1131 -1.5855  1.4668
   66MOL   H71347643   2.816   7.259   1.815  0.6613 -0.7233  0.1454
   66MOL   H71447644   2.900   7.366   1.914  0.1138  0.1066  3.5260
   66MOL   H71547645   2.911   7.153   2.027 -0.6534 -0.5145 -0.7860
   66MOL   H71647646   2.735   7.140   2.006 -3.3010  3.7430 -0.9045
   66MOL   H71747647   2.872   7.446   2.345  1.9551 -2.3532  0.7305
   66MOL   H71847648   2.708   7.483   2.301  2.4285  1.0696 -1.0224
   66MOL   H71947649   2.761   7.477   2.473 -1.7570 -1.8152 -0.0859
   66MOL   H72047650   2.552   7.166   2.458 -1.3338 -0.0522  0.2013
   66MOL   H72147651   2.516   7.334   2.415 -1.3319 -2.1160  0.2958
   66MOL   H72247652   2.604   7.307   2.557 -0.0889 -0.0610 -0.8994
   67MOL     C147653   2.145   3.196   5.792  0.7545 -0.3556  0.0081
   67MOL     C247654   2.073   3.261   5.905 -0.2806 -0.4839  0.7544
   67MOL     C347655   1.935   3.197   5.930 -0.1439 -0.1875 -0.0853
   67MOL     C447656   1.859   3.270   6.042  0.6224  0.2776 -0.1562
   67MOL     C547657   1.727   3.201   6.070 -0.2712 -0.4644 -0.5251
   67MOL     C647658   1.615   3.267   6.151  0.1718  0.0041  0.0389
   67MOL     C747659   1.486   3.193   6.175 -0.1724 -0.4608  0.3559
   67MOL     C847660   1.398   3.258   6.278 -0.0575 -0.0685  0.2787
   67MOL     O947661   1.282   3.177   6.302  0.1778 -0.1735  0.0428
   67MOL    C1047662   1.292   3.077   6.395 -0.0412  1.2772  0.0110
   67MOL    O1147663   1.387   3.061   6.467 -0.2360 -0.5156  0.3831
   67MOL    C1247664   1.162   2.993   6.404  0.0053 -0.3776 -0.6174
   67MOL    C1347665   1.043   3.087   6.418  0.0123 -0.4966  0.2504
   67MOL    C1447666   1.147   2.890   6.287 -0.2753  0.0660  0.0295
   67MOL    H1547667   2.099   3.215   5.695 -1.1686 -0.9170  0.8006
   67MOL    H1647668   2.130   3.088   5.787 -0.2991 -0.2309  0.3563
   67MOL    H1747669   2.251   3.221   5.786  0.3718  1.2171 -0.2727
   67MOL    H1847670   2.044   3.359   5.867 -1.1755 -1.9107 -2.3862
   67MOL    H1947671   2.141   3.280   5.989  0.4640  2.9475 -0.5286
   67MOL    H2047672   1.875   3.222   5.843  1.6595  0.0870 -1.2588
   67MOL    H2147673   1.933   3.088   5.940  1.6418 -0.2843 -0.7320
   67MOL    H2247674   1.918   3.264   6.133 -0.4684 -1.0368  0.4771
   67MOL    H2347675   1.841   3.373   6.010  0.0177  0.6599  1.3762
   67MOL    H2447676   1.755   3.102   6.107 -0.1644 -0.5112 -0.7338
   67MOL    H2547677   1.694   3.190   5.967  1.8097  0.1075 -1.2912
   67MOL    H2647678   1.599   3.369   6.116  1.1268  0.3333  0.5691
   67MOL    H2747679   1.665   3.283   6.246  0.5063 -0.3572 -0.0739
   67MOL    H2847680   1.508   3.088   6.192 -1.2937 -1.1169 -1.9480
   67MOL    H2947681   1.428   3.184   6.083  0.7628 -0.5500 -0.2263
   67MOL    H3047682   1.368   3.353   6.236  2.7209  1.4382  1.5593
   67MOL    H3147683   1.450   3.292   6.368  2.9655  1.0285 -1.8107
   67MOL    H3247684   1.056   3.164   6.495 -0.8194  0.6858 -0.7676
   67MOL    H3347685   1.032   3.126   6.317 -0.5579  1.0790  0.8923
   67MOL    H3447686   0.949   3.035   6.438 -2.0747  2.9137 -0.3204
   67MOL    H3547687   1.225   2.913   6.213 -0.1600  0.5682  0.3059
   67MOL    H3647688   1.052   2.906   6.236  0.6684 -1.9809 -2.4732
   67MOL    H3747689   1.176   2.942   6.500  0.2880  1.5637  0.3920
   67MOL    C3847690   0.236   2.028   6.320 -0.7645 -0.4900  0.3656
   67MOL    C3947691   0.284   2.130   6.424 -0.1459  0.0768  1.1730
   67MOL    C4047692   0.428   2.170   6.405 -0.3952 -0.0969  0.5256
   67MOL    C4147693   0.458   2.316   6.458  0.4195 -0.0410 -0.6275
   67MOL    C4247694   0.598   2.361   6.427 -0.0063  0.2298 -0.6238
   67MOL    C4347695   0.612   2.510   6.454 -0.4482 -0.2868  0.1696
   67MOL    C4447696   0.761   2.550   6.416 -0.0281  0.0922  1.0352
   67MOL    C4547697   0.794   2.699   6.431  0.0072  0.0790 -0.4928
   67MOL    O4647698   0.914   2.715   6.350  0.3560 -0.0797  0.3698
   67MOL    C4747699   1.033   2.703   6.417 -1.4608  0.0372  0.9371
   67MOL    O4847700   1.042   2.675   6.534 -0.7745  0.1697 -0.3797
   67MOL    C4947701   1.154   2.738   6.329  0.2103 -0.7638 -0.2163
   67MOL    C5047702   1.285   2.710   6.407  0.0488  1.1572 -0.2753
   67MOL    C5147703   1.138   2.648   6.199 -0.2734 -0.9164 -0.2502
   67MOL    H5247704   0.311   1.950   6.305 -1.0051 -0.3117 -1.9648
   67MOL    H5347705   0.223   2.075   6.222  0.7009  4.0755  2.2229
   67MOL    H5447706   0.142   1.986   6.353 -1.7259  2.0838  1.0247
   67MOL    H5547707   0.271   2.083   6.522  0.7719 -3.7301 -0.4284
   67MOL    H5647708   0.219   2.217   6.432 -0.6238 -0.0361 -0.9926
   67MOL    H5747709   0.497   2.093   6.440 -0.9175 -0.5613  0.5550
   67MOL    H5847710   0.456   2.169   6.300  1.5740 -3.1635  1.0140
   67MOL    H5947711   0.443   2.325   6.566  0.6928  1.1959 -0.6806
   67MOL    H6047712   0.387   2.384   6.413 -0.4674 -0.4591  0.1281
   67MOL    H6147713   0.665   2.317   6.501  0.9770  2.2912 -0.2620
   67MOL    H6247714   0.643   2.329   6.333  1.9039  0.6661  0.1007
   67MOL    H6347715   0.540   2.557   6.386 -1.1596 -0.7783  0.5794
   67MOL    H6447716   0.593   2.545   6.555 -2.5800 -0.1959 -0.2420
   67MOL    H6547717   0.773   2.518   6.312  1.2109  0.2867  1.1057
   67MOL    H6647718   0.829   2.493   6.480  1.0538  0.1090 -0.0718
   67MOL    H6747719   0.802   2.731   6.535 -0.3062  1.9687 -1.0451
   67MOL    H6847720   0.713   2.750   6.380 -0.4446 -1.8921 -1.8066
   67MOL    H6947721   1.379   2.760   6.385  0.3847 -0.0733 -1.7704
   67MOL    H7047722   1.270   2.714   6.515 -0.4696  0.9108 -0.3375
   67MOL    H7147723   1.299   2.604   6.385  1.2247  0.5244  3.2283
   67MOL    H7247724   1.035   2.639   6.163  0.4059 -1.7637 -2.0527
   67MOL    H7347725   1.160   2.548   6.236 -0.0627 -1.2524 -1.2563
   67MOL    C7447726   1.818   3.146   5.276  0.1852  0.1441 -0.1615
   67MOL    C7547727   1.717   3.081   5.369  0.0701  0.2020  0.0013
   67MOL    C7647728   1.665   3.174   5.485  0.0941 -0.3979  0.3941
   67MOL    C7747729   1.544   3.108   5.555 -0.1668  0.0388  0.6963
   67MOL    C7847730   1.509   3.188   5.680 -0.2595  0.2124  0.1222
   67MOL    C7947731   1.370   3.160   5.738 -0.1339  0.0351  0.2031
   67MOL    C8047732   1.365   3.015   5.798 -0.0884  0.3241 -0.4028
   67MOL    C8147733   1.233   2.985   5.875 -0.2034  0.3034  0.7233
   67MOL    O8247734   1.264   2.876   5.958  0.1995  0.3059  0.3371
   67MOL    C8347735   1.174   2.781   5.983  0.4426 -0.0261  0.0665
   67MOL    O8447736   1.059   2.779   5.940 -0.1381 -0.9973 -0.0594
   67MOL    C8547737   1.229   2.665   6.070 -0.0751 -0.0250  0.2760
   67MOL    C8647738   1.376   2.699   6.104  0.0041  0.1362  0.3723
   67MOL    C8747739   1.210   2.529   5.986  0.1253 -0.2132  0.6725
   67MOL    H8847740   1.865   3.067   5.217  0.2418 -2.1951  2.8763
   67MOL    H8947741   1.881   3.202   5.345 -0.4038 -1.0073  1.3190
   67MOL    H9047742   1.763   3.213   5.210  0.0639 -0.9102 -1.1592
   67MOL    H9147743   1.770   3.003   5.423  0.1044  0.0744 -0.2173
   67MOL    H9247744   1.635   3.036   5.313  2.2648 -2.3182 -1.2823
   67MOL    H9347745   1.746   3.188   5.557  0.7754 -1.1257 -0.2177
   67MOL    H9447746   1.648   3.273   5.445 -0.1066 -0.0076  1.4424
   67MOL    H9547747   1.557   3.000   5.567  2.0249  0.2904  0.8518
   67MOL    H9647748   1.459   3.118   5.488 -0.5111 -0.1657  1.1038
   67MOL    H9747749   1.587   3.164   5.752 -1.3338  2.3170  2.0572
   67MOL    H9847750   1.513   3.295   5.658 -1.7147  0.0084 -1.2303
   67MOL    H9947751   1.336   3.232   5.812 -1.5670 -2.2248  1.8155
   67MOL   H10047752   1.294   3.169   5.661 -0.5043  0.4618  0.6239
   67MOL   H10147753   1.379   2.947   5.714 -0.2011  1.0581 -1.0243
   67MOL   H10247754   1.450   3.002   5.864  0.1864  0.9051 -0.6387
   67MOL   H10347755   1.151   2.955   5.809  0.1374 -0.1233  0.4961
   67MOL   H10447756   1.211   3.075   5.933  1.1834  1.0977  0.0419
   67MOL   H10547757   1.431   2.734   6.016 -1.3314  2.3388  0.3874
   67MOL   H10647758   1.416   2.604   6.139  1.0586 -0.6761 -2.8248
   67MOL   H10747759   1.410   2.777   6.173 -1.4747  0.5159  0.6757
   67MOL   H10847760   1.209   2.445   6.055  1.3600 -2.1440 -1.5861
   67MOL   H10947761   1.105   2.532   5.958  0.6509  0.3064 -1.2971
   67MOL   C11047762   0.848   1.831   5.212 -0.2918  0.1397  0.6427
   67MOL   C11147763   0.997   1.858   5.260  0.2559 -0.4484 -0.4871
   67MOL   C11247764   1.003   2.004   5.298 -0.6353 -0.0335 -0.5168
   67MOL   C11347765   1.143   2.048   5.337  0.1890  0.1160  1.2389
   67MOL   C11447766   1.154   2.196   5.369 -0.8030 -0.6865  0.2944
   67MOL   C11547767   1.066   2.239   5.485  0.0931 -0.1701  0.2011
   67MOL   C11647768   1.080   2.162   5.617  0.3032 -0.7399 -0.0007
   67MOL   C11747769   1.036   2.237   5.747  0.4181 -0.2308 -0.6969
   67MOL   O11847770   1.108   2.362   5.777 -0.5394 -0.8697  0.1718
   67MOL   C11947771   1.236   2.348   5.827  0.7316  0.5175  0.0925
   67MOL   O12047772   1.285   2.240   5.860  0.4225  0.3710  1.0288
   67MOL   C12147773   1.302   2.482   5.871 -0.1235  0.5539 -0.2589
   67MOL   C12247774   1.435   2.449   5.936  0.5882 -0.4218 -0.6429
   67MOL   C12347775   1.313   2.580   5.745 -0.3743 -0.2754  0.8590
   67MOL   H12447776   0.777   1.867   5.286 -1.0549 -0.0185  0.0039
   67MOL   H12547777   0.833   1.871   5.112  0.7279 -1.0809 -0.0209
   67MOL   H12647778   0.816   1.727   5.201  0.7947 -0.2071  0.6770
   67MOL   H12747779   1.067   1.836   5.179  1.4713  1.6501 -0.0324
   67MOL   H12847780   1.024   1.802   5.350 -3.1404 -2.3157 -0.5385
   67MOL   H12947781   0.928   2.030   5.372 -1.6202  0.6643 -1.7419
   67MOL   H13047782   0.973   2.069   5.216  0.3178 -2.1025 -2.5706
   67MOL   H13147783   1.183   1.992   5.421 -0.0787  1.3450  2.1949
   67MOL   H13247784   1.202   2.039   5.246  0.2250  1.8763  1.0712
   67MOL   H13347785   1.135   2.261   5.283 -1.1245 -0.7771  0.2961
   67MOL   H13447786   1.260   2.214   5.384 -0.3566 -0.5630 -2.6547
   67MOL   H13547787   1.086   2.345   5.496  1.3629 -0.4792  0.9785
   67MOL   H13647788   0.965   2.230   5.444  0.2405 -0.7177 -0.0603
   67MOL   H13747789   1.175   2.110   5.620  0.0838 -1.2164 -1.0457
   67MOL   H13847790   1.002   2.086   5.607 -1.1081  0.6971 -0.2481
   67MOL   H13947791   0.930   2.262   5.743  0.4514  0.0406  0.0823
   67MOL   H14047792   1.065   2.168   5.827 -2.7467  0.6774  1.3160
   67MOL   H14147793   1.425   2.429   6.043 -0.5180  3.2420 -0.0223
   67MOL   H14247794   1.475   2.357   5.891  0.6179  0.3837 -2.3248
   67MOL   H14347795   1.505   2.531   5.922 -0.0372 -0.1780 -2.4828
   67MOL   H14447796   1.330   2.679   5.788  1.6723  0.1382 -0.7837
   67MOL   H14547797   1.212   2.586   5.703  0.6942  0.0526 -1.8098
   67MOL   C14647798   2.348   3.017   5.371 -0.0714 -0.6110 -0.1455
   67MOL   C14747799   2.199   2.999   5.414  1.2077  0.0067  0.2189
   67MOL   C14847800   2.178   2.895   5.530 -0.3623  0.3738  0.4991
   67MOL   C14947801   2.035   2.873   5.575  0.2772  0.3470  0.3012
   67MOL   C15047802   2.021   2.774   5.690  0.0386  0.3379 -0.1708
   67MOL   C15147803   1.889   2.717   5.722 -0.1437  0.0386  0.1640
   67MOL   C15247804   1.791   2.823   5.769  0.3436 -0.4898  0.3986
   67MOL   C15347805   1.667   2.764   5.832 -0.3038  0.6239 -0.9045
   67MOL   O15447806   1.558   2.731   5.738  0.1046 -0.3477 -0.2921
   67MOL   C15547807   1.550   2.607   5.688  0.4997 -0.4824 -0.2059
   67MOL   O15647808   1.637   2.523   5.712 -0.1921  0.1997  0.0928
   67MOL   C15747809   1.417   2.568   5.623 -0.5256  0.3978 -0.0598
   67MOL   C15847810   1.420   2.416   5.578  0.0828  0.0347 -0.3431
   67MOL   C15947811   1.378   2.671   5.513  0.0766  0.0424  0.1105
   67MOL   H16047812   2.396   2.927   5.333 -0.1548  0.2998 -2.4996
   67MOL   H16147813   2.409   3.070   5.445 -1.3302 -0.7849  1.0418
   67MOL   H16247814   2.349   3.088   5.289 -1.2320 -1.7190 -1.1252
   67MOL   H16347815   2.160   3.094   5.449 -1.6824 -0.7970 -0.6405
   67MOL   H16447816   2.135   2.967   5.331  0.3126 -0.6074  1.1359
   67MOL   H16547817   2.238   2.927   5.615  1.1539  0.4759 -0.5887
   67MOL   H16647818   2.220   2.800   5.499 -2.9740 -0.0108 -2.1317
   67MOL   H16747819   1.997   2.969   5.610  0.8979  0.5981  0.2928
   67MOL   H16847820   1.967   2.848   5.493  0.2932  2.6227 -0.4554
   67MOL   H16947821   2.058   2.813   5.785 -0.1825 -0.5631  0.2879
   67MOL   H17047822   2.091   2.692   5.678 -0.6493 -0.0811 -1.5003
   67MOL   H17147823   1.895   2.643   5.802  2.4883  0.1326  0.0829
   67MOL   H17247824   1.846   2.666   5.636  0.3829  0.5088 -0.3820
   67MOL   H17347825   1.821   2.891   5.849 -0.7185 -3.3259  3.2929
   67MOL   H17447826   1.766   2.885   5.683  0.2824  1.0011  1.4724
   67MOL   H17547827   1.702   2.680   5.892 -1.1829  0.4698 -0.6063
   67MOL   H17647828   1.621   2.830   5.905 -1.4519  0.6199 -1.6013
   67MOL   H17747829   1.322   2.396   5.533 -0.9744 -0.0629  1.9480
   67MOL   H17847830   1.431   2.349   5.663 -0.1341  1.1291  0.5702
   67MOL   H17947831   1.499   2.382   5.511  0.5682  0.9076 -0.2333
   67MOL   H18047832   1.388   2.777   5.536  0.0884  0.0929 -0.1283
   67MOL   H18147833   1.269   2.665   5.505  0.2704 -1.8000 -1.5581
   67MOL   C18247834   1.958   2.050   4.653 -0.0505  0.3013 -0.9571
   67MOL   C18347835   1.866   2.164   4.615  0.2977 -0.5540 -0.1548
   67MOL   C18447836   1.744   2.169   4.705  0.3088 -0.3327  0.6278
   67MOL   C18547837   1.755   2.213   4.855 -0.4858 -0.0310  0.4294
   67MOL   C18647838   1.618   2.226   4.922 -0.0171  0.1177  0.2622
   67MOL   C18747839   1.626   2.247   5.079  0.1054 -0.1391 -0.1177
   67MOL   C18847840   1.493   2.261   5.144 -0.2336 -0.0004 -0.3151
   67MOL   C18947841   1.414   2.392   5.109  0.4824 -0.1196 -0.9233
   67MOL   O19047842   1.457   2.503   5.188  0.0224  0.2389  0.1243
   67MOL   C19147843   1.383   2.558   5.286  0.0175 -0.0201 -0.3595
   67MOL   O19247844   1.268   2.518   5.315 -0.2493 -0.6359  0.2278
   67MOL   C19347845   1.448   2.668   5.365 -0.0125  0.0955  0.3365
   67MOL   C19447846   1.606   2.649   5.378  0.0479 -0.2159 -0.0095
   67MOL   C19547847   1.433   2.804   5.282 -0.5996  0.0975 -0.1668
   67MOL   H19647848   2.054   2.065   4.602  0.3695  0.8787 -0.0315
   67MOL   H19747849   1.957   2.029   4.760  0.9051  2.2049 -0.5313
   67MOL   H19847850   1.923   1.961   4.603  2.9460 -0.8893 -1.0565
   67MOL   H19947851   1.831   2.153   4.512  0.9228 -1.3010 -0.2931
   67MOL   H20047852   1.916   2.260   4.632  1.9239 -1.5157  0.6564
   67MOL   H20147853   1.675   2.241   4.661  0.0564 -1.9949 -1.7753
   67MOL   H20247854   1.699   2.070   4.700  1.0589 -0.7663  2.1369
   67MOL   H20347855   1.798   2.138   4.921 -0.7789 -0.6950 -0.1358
   67MOL   H20447856   1.807   2.308   4.871  1.3153 -0.9511  0.2502
   67MOL   H20547857   1.566   2.137   4.887  0.2674 -0.0181  0.1881
   67MOL   H20647858   1.570   2.314   4.879 -0.5019 -0.7308 -0.9476
   67MOL   H20747859   1.688   2.334   5.097  1.1850 -0.8693 -0.2544
   67MOL   H20847860   1.690   2.173   5.128 -0.8267 -0.9771 -0.1581
   67MOL   H20947861   1.441   2.178   5.097 -0.5584 -0.4031  0.7533
   67MOL   H21047862   1.501   2.253   5.253  1.9837  0.3070 -0.4375
   67MOL   H21147863   1.308   2.369   5.114  0.1014  1.7785  0.0482
   67MOL   H21247864   1.423   2.413   5.002 -2.6838  1.2548 -0.9688
   67MOL   H21347865   1.657   2.723   5.440  0.9219 -0.0188 -0.9520
   67MOL   H21447866   1.644   2.555   5.421  0.9806  0.7110  1.2335
   67MOL   H21547867   1.660   2.662   5.284 -0.7576  1.8447 -0.1981
   67MOL   H21647868   1.499   2.869   5.340 -1.6538  1.2663 -0.2459
   67MOL   H21747869   1.485   2.787   5.188  0.5414  0.4998  0.3886
   67MOL   C21847870   1.757   2.571   4.913 -0.0270  0.4200  0.0752
   67MOL   C21947871   1.791   2.703   4.841 -0.5791  0.5800 -0.1082
   67MOL   C22047872   1.872   2.800   4.929 -0.4085  0.2045 -0.3963
   67MOL   C22147873   1.903   2.936   4.871  0.1740 -0.4706  0.0108
   67MOL   C22247874   1.780   3.024   4.839 -0.5981  0.2806  0.3109
   67MOL   C22347875   1.678   3.035   4.963  0.3540  0.0871 -1.0973
   67MOL   C22447876   1.574   3.147   4.939 -0.2236 -0.2932 -0.4294
   67MOL   C22547877   1.470   3.149   5.055  0.1846 -0.3566  0.5336
   67MOL   O22647878   1.432   3.021   5.107  0.0950  0.2302 -0.5019
   67MOL   C22747879   1.349   3.020   5.215 -0.2754  1.1143 -0.0957
   67MOL   O22847880   1.314   3.119   5.283  1.1406  0.4006  0.3867
   67MOL   C22947881   1.303   2.881   5.251 -0.1110 -0.1524  0.1105
   67MOL   C23047882   1.210   2.888   5.371  0.0688 -0.0746 -0.7889
   67MOL   C23147883   1.229   2.816   5.124 -0.3641 -0.9554  0.0592
   67MOL   H23247884   1.688   2.519   4.847 -0.3879  0.5265  0.3668
   67MOL   H23347885   1.695   2.588   5.001  0.5142  1.0091  0.3472
   67MOL   H23447886   1.847   2.514   4.937  0.0012  0.7128  0.6968
   67MOL   H23547887   1.699   2.754   4.813 -0.9739  0.4608  0.9484
   67MOL   H23647888   1.841   2.687   4.746 -1.6887  2.2053 -0.9943
   67MOL   H23747889   1.830   2.818   5.028  0.9020  1.2182 -0.0193
   67MOL   H23847890   1.973   2.764   4.945 -0.4769 -0.3693 -1.2122
   67MOL   H23947891   1.949   2.995   4.950 -0.5875 -1.4380  1.1948
   67MOL   H24047892   1.973   2.939   4.788 -1.6697  0.2361 -1.5521
   67MOL   H24147893   1.822   3.119   4.808 -0.6116 -0.4344 -1.9885
   67MOL   H24247894   1.722   2.991   4.753 -0.3295  0.0410  0.2234
   67MOL   H24347895   1.641   2.939   4.999  1.1155 -0.0546 -0.6897
   67MOL   H24447896   1.738   3.066   5.048  1.7022  1.6362 -2.5658
   67MOL   H24547897   1.513   3.102   4.860  0.4802 -1.8857 -0.0754
   67MOL   H24647898   1.612   3.243   4.905  1.6199 -0.1489  1.9102
   67MOL   H24747899   1.384   3.206   5.021  0.7721  0.0319 -0.3160
   67MOL   H24847900   1.517   3.203   5.137 -1.5022  3.4437 -0.8920
   67MOL   H24947901   1.164   2.789   5.382 -2.5651  1.1361 -0.7148
   67MOL   H25047902   1.133   2.960   5.346  0.6047  0.8074  0.0806
   67MOL   H25147903   1.250   2.919   5.467 -0.8439 -0.6973 -0.1971
   67MOL   H25247904   1.295   2.815   5.037 -2.2714  0.2346 -1.4444
   67MOL   H25347905   1.218   2.709   5.142 -3.9306 -0.5463  0.5985
   67MOL   C25447906   0.726   2.818   6.050  0.0661  0.2715 -0.1708
   67MOL   C25547907   0.722   2.759   5.904  0.0785 -0.6439  0.0313
   67MOL   C25647908   0.775   2.612   5.908 -0.2744 -0.6316  0.1927
   67MOL   C25747909   0.754   2.550   5.776 -0.5832 -0.0297 -0.1924
   67MOL   C25847910   0.869   2.593   5.682 -0.1417 -0.0329 -0.2357
   67MOL   C25947911   0.844   2.547   5.535  0.6110  0.0948  0.1775
   67MOL   C26047912   0.910   2.632   5.426 -0.0023  0.5684  0.1204
   67MOL   C26147913   0.897   2.592   5.278 -0.1667 -0.0803  0.0608
   67MOL   O26247914   0.994   2.650   5.189  0.1915 -0.1517 -0.6114
   67MOL   C26347915   0.988   2.784   5.162 -0.5641 -0.2755  0.1091
   67MOL   O26447916   0.908   2.854   5.217  0.1708  0.0864 -0.5771
   67MOL   C26547917   1.094   2.846   5.066  0.5082  0.0050  0.8117
   67MOL   C26647918   1.073   2.772   4.932  0.0557 -0.4162 -0.8091
   67MOL   C26747919   1.085   3.002   5.048  0.1684 -0.3212  0.1821
   67MOL   H26847920   0.671   2.745   6.109  0.0291 -1.3602 -2.1664
   67MOL   H26947921   0.825   2.824   6.095  0.0165 -1.2867  0.1864
   67MOL   H27047922   0.670   2.911   6.052 -1.9198 -0.6991 -4.6732
   67MOL   H27147923   0.623   2.770   5.860  0.1803 -0.2442 -0.0990
   67MOL   H27247924   0.775   2.830   5.841  0.0377  1.3740  2.2014
   67MOL   H27347925   0.714   2.563   5.985 -1.8470  1.2374  0.1635
   67MOL   H27447926   0.879   2.606   5.940 -0.2904  1.4764  0.7127
   67MOL   H27547927   0.653   2.570   5.741  0.1510 -0.3096 -2.6099
   67MOL   H27647928   0.767   2.442   5.778 -0.2475  0.0210  0.6089
   67MOL   H27747929   0.883   2.702   5.680  0.0666 -0.0383  0.7545
   67MOL   H27847930   0.969   2.562   5.712 -1.2967 -1.6562  2.0139
   67MOL   H27947931   0.735   2.549   5.526  0.6606  2.0589 -0.2311
   67MOL   H28047932   0.876   2.443   5.534  1.2480  0.2917 -1.6380
   67MOL   H28147933   0.874   2.734   5.435 -2.8505 -0.3276 -0.7978
   67MOL   H28247934   1.018   2.633   5.445 -0.3554  2.4170  2.2306
   67MOL   H28347935   0.916   2.485   5.269  1.3016  0.4051 -3.1678
   67MOL   H28447936   0.797   2.593   5.237 -0.0736  0.9638 -0.1470
   67MOL   H28547937   0.979   2.792   4.881 -1.5200 -0.8837  1.8097
   67MOL   H28647938   1.154   2.785   4.860  0.3951  0.8421 -0.2198
   67MOL   H28747939   1.070   2.667   4.960  1.6242 -0.5270 -0.9806
   67MOL   H28847940   1.189   3.019   5.020  0.6427 -2.7572  0.3823
   67MOL   H28947941   1.065   3.053   5.142  0.2911  0.5791 -0.2756
   67MOL   C29047942   0.677   2.190   4.448 -0.0573 -0.6574 -0.1921
   67MOL   C29147943   0.763   2.293   4.518  0.0805  0.0566 -0.1129
   67MOL   C29247944   0.729   2.436   4.475  0.0933  0.0057  0.1023
   67MOL   C29347945   0.820   2.545   4.536  0.0302 -0.1620 -0.6165
   67MOL   C29447946   0.810   2.691   4.485  0.5615  0.4362  0.0699
   67MOL   C29547947   0.913   2.783   4.539 -0.2938 -0.1367  0.0375
   67MOL   C29647948   0.895   2.924   4.498  0.7369  0.5645  0.1908
   67MOL   C29747949   0.988   3.022   4.574 -0.2608 -0.2517  0.4863
   67MOL   O29847950   0.945   3.029   4.711 -0.1976 -0.5934  0.6645
   67MOL   C29947951   1.042   3.049   4.802  0.0560 -0.3729  0.0093
   67MOL   O30047952   1.162   3.053   4.782 -0.1480 -0.1706 -0.6255
   67MOL   C30147953   0.983   3.073   4.944  0.2556  0.1898  0.8777
   67MOL   C30247954   0.842   3.023   4.961  0.0147 -0.0009 -1.0400
   67MOL   C30347955   0.994   3.224   4.977  0.5090  0.0351 -0.6154
   67MOL   H30447956   0.705   2.180   4.343  2.6280 -0.0189  0.4202
   67MOL   H30547957   0.570   2.189   4.467  0.0472  1.3945  0.6651
   67MOL   H30647958   0.702   2.094   4.493  0.5753  0.2695  1.4660
   67MOL   H30747959   0.867   2.272   4.494  0.6497 -0.4067  2.6552
   67MOL   H30847960   0.736   2.270   4.621 -1.0195 -2.6341 -0.9658
   67MOL   H30947961   0.624   2.452   4.501 -0.1318 -0.7379 -0.3595
   67MOL   H31047962   0.734   2.443   4.367 -0.9521  2.1053  0.1745
   67MOL   H31147963   0.814   2.544   4.645  0.2749  0.0443 -0.6003
   67MOL   H31247964   0.920   2.510   4.509  0.4042 -0.1669  0.7296
   67MOL   H31347965   0.820   2.689   4.377  1.0941  3.3149  0.0307
   67MOL   H31447966   0.711   2.731   4.506  1.0763  1.3752  0.7465
   67MOL   H31547967   1.015   2.747   4.523 -0.0587  0.8040 -0.6475
   67MOL   H31647968   0.895   2.786   4.646 -0.2817  0.8493  0.0125
   67MOL   H31747969   0.792   2.959   4.499 -0.0904 -1.8218  3.2144
   67MOL   H31847970   0.921   2.933   4.392 -0.3693 -1.9843 -0.3398
   67MOL   H31947971   0.975   3.122   4.531  0.2183  0.5172  2.0858
   67MOL   H32047972   1.089   2.983   4.562 -0.0426  0.2287  0.7435
   67MOL   H32147973   0.829   2.919   4.933 -0.9362 -0.3551  0.6462
   67MOL   H32247974   0.773   3.086   4.905 -2.4226 -1.7465 -0.1271
   67MOL   H32347975   0.809   3.039   5.064 -1.2846  1.4922 -1.6710
   67MOL   H32447976   0.931   3.239   5.065 -1.7427  0.0357 -2.1905
   67MOL   H32547977   1.096   3.239   5.013  0.1624 -1.6335  1.1632
   67MOL   C32647978   1.985   3.406   4.670 -0.4138 -0.1924  0.3218
   67MOL   C32747979   1.856   3.336   4.628  0.5840  0.3690  0.3112
   67MOL   C32847980   1.770   3.411   4.514  0.1095 -0.0279  0.6717
   67MOL   C32947981   1.645   3.333   4.466  0.5988 -0.1708  0.1064
   67MOL   C33047982   1.550   3.316   4.586 -0.4821  0.1266 -0.3756
   67MOL   C33147983   1.412   3.292   4.519  0.3971  1.1733 -0.0410
   67MOL   C33247984   1.309   3.268   4.632 -0.2196  0.2245 -0.5027
   67MOL   C33347985   1.274   3.396   4.710  0.2633 -0.9156 -0.6670
   67MOL   O33447986   1.175   3.370   4.809  0.1823  0.6269 -0.2089
   67MOL   C33547987   1.049   3.362   4.773  0.1293 -0.4768  0.4982
   67MOL   O33647988   1.006   3.361   4.654  0.5524 -1.0066  0.0082
   67MOL   C33747989   0.952   3.351   4.892  0.3988  0.0668  0.4189
   67MOL   C33847990   0.808   3.325   4.840  0.4914 -0.0587 -0.2575
   67MOL   C33947991   0.957   3.479   4.982 -0.5687  0.1847  0.0473
   67MOL   H34047992   2.051   3.437   4.589  1.3535 -0.1902  1.7319
   67MOL   H34147993   2.037   3.354   4.751 -3.3450  0.3265  2.6175
   67MOL   H34247994   1.960   3.495   4.728 -2.4864 -0.9490  0.6476
   67MOL   H34347995   1.800   3.338   4.722  3.7910  0.5775  2.3228
   67MOL   H34447996   1.875   3.231   4.604  0.8261  0.6817 -0.8754
   67MOL   H34547997   1.843   3.423   4.434  0.1826 -2.6487  0.2982
   67MOL   H34647998   1.754   3.517   4.536  1.7590  0.5897 -0.8918
   67MOL   H34747999   1.681   3.239   4.424 -0.6870  0.0015 -1.4241
   67MOL   H34848000   1.608   3.398   4.387  1.9332  0.2732 -0.1671
   67MOL   H34948001   1.584   3.232   4.647 -0.5742  1.2455  1.2381
   67MOL   H35048002   1.555   3.398   4.657  2.3272 -0.1085 -0.2556
   67MOL   H35148003   1.380   3.370   4.449 -0.3331  1.0801  0.1877
   67MOL   H35248004   1.434   3.200   4.465 -0.3681 -0.0343  1.6659
   67MOL   H35348005   1.349   3.196   4.703 -1.1243  0.9170  0.7155
   67MOL   H35448006   1.222   3.214   4.597 -1.7551 -1.6991  5.6250
   67MOL   H35548007   1.362   3.446   4.749 -0.0797 -1.4537  0.8217
   67MOL   H35648008   1.229   3.472   4.645  0.9245 -0.3865 -0.5150
   67MOL   H35748009   0.778   3.403   4.770  2.5069 -0.3483 -1.4623
   67MOL   H35848010   0.798   3.248   4.763  2.6680 -0.0431 -0.5789
   67MOL   H35948011   0.737   3.308   4.921  0.4834 -1.8719 -0.6327
   67MOL   H36048012   0.891   3.448   5.063  2.6122 -3.4344  1.3750
   67MOL   H36148013   1.047   3.468   5.042 -1.7329 -2.1704  1.4833
   67MOL   C36248014   1.363   4.184   5.952 -0.0282  0.7270 -0.1984
   67MOL   C36348015   1.282   4.209   5.829  0.0675 -0.9475 -0.2719
   67MOL   C36448016   1.273   4.094   5.725 -0.2327  0.1972 -0.3665
   67MOL   C36548017   1.161   4.093   5.622 -0.7223  0.5556 -0.0792
   67MOL   C36648018   1.181   3.967   5.526  0.0416 -0.2452 -0.1389
   67MOL   C36748019   1.063   3.941   5.440  0.7773  0.2562 -0.4196
   67MOL   C36848020   1.074   3.826   5.338 -0.7664 -0.2878 -0.1772
   67MOL   C36948021   0.939   3.786   5.286  0.1630  0.1797  0.7806
   67MOL   O37048022   0.977   3.706   5.172  0.3105 -0.4221  0.9627
   67MOL   C37148023   0.893   3.703   5.061  0.1601 -0.3394  0.1203
   67MOL   O37248024   0.774   3.750   5.065  0.1641 -0.2712 -0.0107
   67MOL   C37348025   0.943   3.629   4.935  0.1698 -0.1134  0.2644
   67MOL   C37448026   0.836   3.654   4.822 -0.2076  0.4741  0.3827
   67MOL   C37548027   1.088   3.676   4.899 -0.1422  0.2879 -0.2062
   67MOL   H37648028   1.451   4.127   5.922 -0.8789 -0.4114 -0.5602
   67MOL   H37748029   1.390   4.281   5.994  1.0811  0.3738 -0.0935
   67MOL   H37848030   1.293   4.129   6.015  0.1400  1.9274  1.0703
   67MOL   H37948031   1.326   4.297   5.781  0.7230 -1.5482 -0.7780
   67MOL   H38048032   1.182   4.234   5.863  0.8009  0.1277  1.1671
   67MOL   H38148033   1.297   4.004   5.781  2.1063 -0.7723 -2.8179
   67MOL   H38248034   1.364   4.108   5.666 -0.1573  0.3504 -0.2131
   67MOL   H38348035   1.141   4.187   5.569 -0.6836 -0.7919 -2.5821
   67MOL   H38448036   1.065   4.074   5.669 -1.2091 -2.3494 -2.0913
   67MOL   H38548037   1.266   3.986   5.461  0.4215  0.4051  0.5288
   67MOL   H38648038   1.216   3.876   5.574  0.6120  0.0188 -0.0445
   67MOL   H38748039   1.033   4.033   5.390 -3.9506 -0.8330  0.1945
   67MOL   H38848040   0.982   3.922   5.510  0.3166  3.3228 -0.0368
   67MOL   H38948041   1.122   3.742   5.387  1.8131  1.4932  0.4501
   67MOL   H39048042   1.139   3.865   5.260 -1.1593 -0.9032 -0.8182
   67MOL   H39148043   0.877   3.723   5.350 -0.6764 -0.6012 -0.7655
   67MOL   H39248044   0.873   3.867   5.253  1.4795  0.7701 -0.4621
   67MOL   H39348045   0.820   3.762   4.821  1.1699  0.7102  2.3078
   67MOL   H39448046   0.868   3.616   4.725  1.2303 -1.4348  1.5846
   67MOL   H39548047   0.734   3.616   4.827 -0.6416  1.6591  0.8080
   67MOL   H39648048   1.145   3.668   4.992 -0.4080  1.1547  0.0371
   67MOL   H39748049   1.132   3.608   4.826 -0.0001 -0.2284  0.3542
   67MOL   C39848050   1.940   3.774   4.241  0.6882  0.0213  0.6834
   67MOL   C39948051   1.810   3.718   4.313  0.4267  0.4404  0.4819
   67MOL   C40048052   1.677   3.788   4.273 -0.1385  0.6673 -0.0958
   67MOL   C40148053   1.565   3.712   4.342  0.1406 -0.1190 -0.2465
   67MOL   C40248054   1.427   3.780   4.318  0.6489 -0.0590 -0.0884
   67MOL   C40348055   1.321   3.701   4.388 -0.7872 -0.8453  0.2132
   67MOL   C40448056   1.180   3.768   4.383  0.9885  0.4841 -0.6203
   67MOL   C40548057   1.083   3.694   4.484 -0.0152  0.9275 -0.3300
   67MOL   O40648058   1.119   3.712   4.620 -0.5586  0.6432 -0.1104
   67MOL   C40748059   1.071   3.810   4.691  0.9689 -0.1460  0.7709
   67MOL   O40848060   1.003   3.904   4.646  0.1179  0.4040 -0.2452
   67MOL   C40948061   1.122   3.812   4.839  0.1045 -0.1725  0.3825
   67MOL   C41048062   1.047   3.926   4.920 -0.2713 -0.5003 -0.7319
   67MOL   C41148063   1.278   3.823   4.850  0.4003  0.5710 -0.4963
   67MOL   H41248064   1.938   3.765   4.132 -1.4036 -0.8978  0.7837
   67MOL   H41348065   2.027   3.735   4.294 -0.0926 -2.4555  0.2010
   67MOL   H41448066   1.939   3.882   4.257  0.5112  0.5744 -2.6601
   67MOL   H41548067   1.814   3.722   4.422  2.5210  2.2369  0.3678
   67MOL   H41648068   1.803   3.613   4.284  1.7321 -0.0907  1.9959
   67MOL   H41748069   1.670   3.896   4.286 -2.3399  0.4544  0.5910
   67MOL   H41848070   1.657   3.776   4.167  2.4576  0.9526 -0.6590
   67MOL   H41948071   1.573   3.707   4.451 -2.9286  0.7858  0.0550
   67MOL   H42048072   1.559   3.611   4.301 -1.2921 -0.5903  1.0979
   67MOL   H42148073   1.435   3.883   4.354  1.6934 -0.0334 -0.3626
   67MOL   H42248074   1.391   3.792   4.216 -1.3036 -3.4029  0.1297
   67MOL   H42348075   1.344   3.688   4.493  0.2756 -1.0283 -0.0391
   67MOL   H42448076   1.322   3.599   4.349  3.5378 -0.0483 -1.9951
   67MOL   H42548077   1.177   3.871   4.418 -1.5386  0.3581 -0.3276
   67MOL   H42648078   1.142   3.747   4.283  0.9040  0.5325 -0.5977
   67MOL   H42748079   0.978   3.720   4.469  0.0121  0.2111 -1.9517
   67MOL   H42848080   1.085   3.586   4.472  1.6386  0.7561  1.3954
   67MOL   H42948081   1.076   3.927   5.025 -0.3697  1.6170 -0.6961
   67MOL   H43048082   0.939   3.910   4.909 -0.5655 -0.5789  1.8128
   67MOL   H43148083   1.059   4.023   4.872 -0.1693 -0.6580 -1.0225
   67MOL   H43248084   1.327   3.744   4.793  0.1457  0.1583 -0.1464
   67MOL   H43348085   1.304   3.785   4.949 -0.2633  0.0160 -0.5278
   67MOL   C43448086   1.640   4.701   5.625  0.3218  0.2338 -0.0633
   67MOL   C43548087   1.539   4.590   5.594  0.4983  0.3984  0.1725
   67MOL   C43648088   1.424   4.626   5.509  0.1919 -0.1714  0.7604
   67MOL   C43748089   1.342   4.510   5.460  0.3936 -0.0098 -0.4471
   67MOL   C43848090   1.408   4.402   5.365  0.3538 -0.4845 -0.6750
   67MOL   C43948091   1.305   4.310   5.308  0.8364 -0.6702 -0.4081
   67MOL   C44048092   1.366   4.212   5.200 -0.1015  0.3548  0.1732
   67MOL   C44148093   1.255   4.135   5.131 -0.4683  0.1060  0.8912
   67MOL   O44248094   1.305   4.041   5.035  0.5388  0.5647 -0.1881
   67MOL   C44348095   1.319   4.073   4.912  0.1840  0.1960  0.5484
   67MOL   O44448096   1.296   4.186   4.868 -0.7019  0.1171  1.0024
   67MOL   C44548097   1.362   3.956   4.824  0.1313  0.7293  1.0735
   67MOL   C44648098   1.343   3.990   4.672  0.4116 -0.7345 -0.2534
   67MOL   C44748099   1.506   3.912   4.865 -1.0207  0.0215 -0.2983
   67MOL   H44848100   1.655   4.780   5.551  3.1504  0.0540  0.2390
   67MOL   H44948101   1.737   4.663   5.658  0.0008  0.1417  0.7845
   67MOL   H45048102   1.596   4.749   5.712 -2.5077  0.8905 -1.7913
   67MOL   H45148103   1.510   4.551   5.692 -0.6335 -1.7058 -0.9714
   67MOL   H45248104   1.585   4.504   5.546  0.8831  0.2599  0.7789
   67MOL   H45348105   1.470   4.680   5.426 -0.1615 -1.7916 -0.5195
   67MOL   H45448106   1.368   4.701   5.567 -0.6188 -1.5497  1.7872
   67MOL   H45548107   1.247   4.538   5.414  0.8532 -2.5819 -3.1072
   67MOL   H45648108   1.312   4.459   5.552  1.0584  0.6901  0.1619
   67MOL   H45748109   1.467   4.451   5.287  1.9247 -1.1485  0.0798
   67MOL   H45848110   1.480   4.340   5.419  2.0871  1.7535 -0.3369
   67MOL   H45948111   1.225   4.368   5.261  2.1583  1.5873  0.0783
   67MOL   H46048112   1.254   4.246   5.380  1.6895 -1.8252 -0.8111
   67MOL   H46148113   1.431   4.265   5.130  0.4569  0.7205  0.9579
   67MOL   H46248114   1.441   4.152   5.252  0.2126 -0.9206 -1.7271
   67MOL   H46348115   1.181   4.207   5.099 -0.8449 -1.9117 -3.0006
   67MOL   H46448116   1.216   4.076   5.214 -1.0183 -1.5935 -0.5601
   67MOL   H46548117   1.420   4.060   4.639 -0.6826  1.3483  1.4590
   67MOL   H46648118   1.343   3.896   4.617  2.6483 -2.0458  1.9180
   67MOL   H46748119   1.242   4.030   4.662  1.0288  0.4070 -2.1557
   67MOL   H46848120   1.500   3.871   4.966  1.0577  0.7467  0.1522
   67MOL   H46948121   1.526   3.822   4.808 -1.9900 -0.6427  0.4008
   67MOL   C47048122   1.581   4.365   3.795 -0.0404  0.4998  0.0595
   67MOL   C47148123   1.686   4.309   3.888  0.0772  0.6143 -0.4949
   67MOL   C47248124   1.690   4.371   4.031 -0.4277 -0.7912 -0.1395
   67MOL   C47348125   1.763   4.278   4.126 -0.5900  0.0625  0.9539
   67MOL   C47448126   1.791   4.341   4.258 -0.2413 -0.6764 -0.1668
   67MOL   C47548127   1.872   4.257   4.359  0.5012 -0.0740 -0.4067
   67MOL   C47648128   1.776   4.183   4.460 -0.2239  0.0244 -0.2665
   67MOL   C47748129   1.857   4.107   4.576  0.0995  0.6285 -0.5236
   67MOL   O47848130   1.777   4.101   4.688  0.1111 -0.0618 -0.4140
   67MOL   C47948131   1.689   4.008   4.701 -0.2587 -0.2151  0.1829
   67MOL   O48048132   1.654   3.931   4.608 -0.4038 -0.8358 -0.3344
   67MOL   C48148133   1.640   3.995   4.851  0.5303  0.2002  0.3413
   67MOL   C48248134   1.620   4.137   4.913  0.8757  0.0286  0.0097
   67MOL   C48348135   1.753   3.928   4.945 -0.0716 -0.0707  0.4138
   67MOL   H48448136   1.625   4.449   3.742  0.6417  1.0802  1.5272
   67MOL   H48548137   1.489   4.394   3.845 -0.1968 -0.0134  0.0710
   67MOL   H48648138   1.550   4.292   3.720 -0.8548  0.7844  0.1175
   67MOL   H48748139   1.667   4.202   3.901 -1.3992  0.6605 -2.0612
   67MOL   H48848140   1.786   4.323   3.848  1.1236  2.0552  2.5288
   67MOL   H48948141   1.734   4.470   4.033 -0.5851 -0.7054 -0.7623
   67MOL   H49048142   1.590   4.382   4.072 -0.2558  1.4480 -0.2816
   67MOL   H49148143   1.702   4.192   4.153  3.0625 -3.0612 -0.3095
   67MOL   H49248144   1.857   4.240   4.088 -2.0315 -1.1086 -1.5466
   67MOL   H49348145   1.844   4.433   4.234 -0.0292 -0.5086  0.9190
   67MOL   H49448146   1.696   4.381   4.296 -0.8300 -1.2840 -0.9859
   67MOL   H49548147   1.923   4.170   4.316  0.8560 -0.7929  1.4074
   67MOL   H49648148   1.947   4.308   4.419  1.1374 -0.3663 -0.9424
   67MOL   H49748149   1.704   4.252   4.504 -0.1883 -0.3889  0.4500
   67MOL   H49848150   1.722   4.104   4.409 -0.0146 -1.7060  2.1173
   67MOL   H49948151   1.933   4.180   4.604 -0.2092  0.7809 -0.0799
   67MOL   H50048152   1.903   4.011   4.556  1.6136  1.1153  0.5682
   67MOL   H50148153   1.705   4.204   4.929  1.1526  0.3239 -2.5209
   67MOL   H50248154   1.570   4.120   5.008  1.4631 -1.3028  0.0976
   67MOL   H50348155   1.561   4.209   4.857 -1.3514  0.2130  2.5235
   67MOL   H50448156   1.833   4.001   4.960  0.1584 -0.5753  1.7005
   67MOL   H50548157   1.717   3.926   5.048 -1.9808 -1.0576 -0.2563
   67MOL   C50648158   1.602   3.547   5.841  0.6474 -0.8441  0.0603
   67MOL   C50748159   1.545   3.678   5.785 -0.6638 -0.1406  0.0703
   67MOL   C50848160   1.466   3.667   5.657 -0.1085  0.6093 -0.2048
   67MOL   C50948161   1.544   3.594   5.550  0.0827 -0.3653 -0.0750
   67MOL   C51048162   1.459   3.576   5.422 -0.8921  0.3622 -0.4019
   67MOL   C51148163   1.552   3.578   5.296 -0.4991  0.1033  0.1314
   67MOL   C51248164   1.474   3.573   5.166 -0.0347 -0.2213  0.6629
   67MOL   C51348165   1.557   3.563   5.037  0.1463  0.3428 -0.3369
   67MOL   O51448166   1.642   3.672   5.014 -0.4967  0.1250 -0.1359
   67MOL   C51548167   1.716   3.677   4.905 -0.3036  0.3886 -0.0125
   67MOL   O51648168   1.719   3.592   4.818  0.6645  0.1778  0.0970
   67MOL   C51748169   1.826   3.787   4.909 -0.1742 -0.1337  0.5012
   67MOL   C51848170   1.911   3.789   4.783  0.3343 -0.2171  0.5449
   67MOL   C51948171   1.923   3.739   5.022  0.2795 -0.5868 -0.2521
   67MOL   H52048172   1.671   3.492   5.777  2.0429  2.5796 -1.5116
   67MOL   H52148173   1.523   3.482   5.879 -0.5992  0.7105  0.1671
   67MOL   H52248174   1.667   3.572   5.925 -1.6015 -0.3202  1.7043
   67MOL   H52348175   1.639   3.726   5.759 -0.8797  0.5987  0.6329
   67MOL   H52448176   1.492   3.747   5.850  0.5758  0.6055  0.3004
   67MOL   H52548177   1.381   3.603   5.681  0.0181  0.1669 -0.9201
   67MOL   H52648178   1.437   3.766   5.621 -4.0886 -0.4538 -0.1323
   67MOL   H52748179   1.639   3.642   5.525 -1.1270  1.4626 -1.3578
   67MOL   H52848180   1.554   3.489   5.576 -0.1283 -0.6958 -1.2766
   67MOL   H52948181   1.393   3.490   5.416 -1.6094  0.9475 -1.0396
   67MOL   H53048182   1.383   3.655   5.412 -0.5314  0.6806 -0.6339
   67MOL   H53148183   1.611   3.487   5.289  0.4357  0.7557 -0.5090
   67MOL   H53248184   1.623   3.660   5.301  0.2885 -0.5895  0.3690
   67MOL   H53348185   1.408   3.660   5.163  1.3085  0.7918 -0.1485
   67MOL   H53448186   1.404   3.491   5.175 -1.6625  1.1015  0.3221
   67MOL   H53548187   1.496   3.548   4.947  0.1682  0.1941 -0.3276
   67MOL   H53648188   1.618   3.473   5.035  0.2188  0.3851  0.0301
   67MOL   H53748189   1.851   3.774   4.693  2.2070  0.3462 -0.8120
   67MOL   H53848190   1.980   3.706   4.773  1.2775  0.4195  1.5584
   67MOL   H53948191   1.962   3.884   4.766 -0.5338 -0.0882 -1.5220
   67MOL   H54048192   1.866   3.691   5.102  0.1261  0.5592  0.3400
   67MOL   H54148193   1.975   3.658   4.972 -3.1926 -0.6148 -4.0481
   67MOL   C54248194   1.665   4.491   5.939  0.1617  0.0489 -0.8673
   67MOL   C54348195   1.758   4.377   5.984  0.6487  0.1719 -0.5890
   67MOL   C54448196   1.814   4.293   5.860  0.9303  0.2049  0.0136
   67MOL   C54548197   1.713   4.238   5.751  0.0230 -1.0964 -0.2696
   67MOL   C54648198   1.777   4.143   5.643  0.0535 -0.9118  0.1797
   67MOL   C54748199   1.677   4.114   5.534 -0.4846 -0.5085  0.7200
   67MOL   C54848200   1.726   4.002   5.439  0.2857  0.1164  0.0500
   67MOL   C54948201   1.837   4.032   5.341 -0.1961 -0.3741  0.3893
   67MOL   O55048202   1.867   3.938   5.235 -0.2728  0.1878  0.3616
   67MOL   C55148203   1.991   3.947   5.172 -0.6782  0.1558 -0.6617
   67MOL   O55248204   2.073   4.033   5.193 -0.2961  0.1110  0.2612
   67MOL   C55348205   2.036   3.826   5.087  0.1580  0.7354  0.3062
   67MOL   C55448206   2.127   3.883   4.970 -0.2132  0.7815 -0.1490
   67MOL   C55548207   2.131   3.732   5.167  0.2984 -0.5010  0.5368
   67MOL   H55648208   1.575   4.453   5.891 -0.0077 -1.3303  0.4938
   67MOL   H55748209   1.721   4.561   5.877 -0.7435  0.6315 -1.0331
   67MOL   H55848210   1.647   4.547   6.031  0.8807 -0.4154 -0.4336
   67MOL   H55948211   1.837   4.419   6.046 -2.6322 -0.0506  4.0133
   67MOL   H56048212   1.700   4.302   6.038  0.1704  0.3581 -0.8360
   67MOL   H56148213   1.863   4.202   5.894 -0.6265 -1.2005 -1.4243
   67MOL   H56248214   1.883   4.366   5.817  0.0605  0.6687 -0.6148
   67MOL   H56348215   1.636   4.181   5.803 -0.7958 -0.9725 -1.3425
   67MOL   H56448216   1.657   4.314   5.698 -0.6091 -0.1801  1.6671
   67MOL   H56548217   1.810   4.051   5.692  0.4616 -1.6042 -1.3853
   67MOL   H56648218   1.871   4.183   5.604 -0.6828  0.0656 -0.6040
   67MOL   H56748219   1.583   4.087   5.582 -0.6820 -2.0739 -0.4981
   67MOL   H56848220   1.662   4.204   5.475  1.0584  1.0551  2.6238
   67MOL   H56948221   1.744   3.905   5.484  1.6698  1.0113  1.4563
   67MOL   H57048222   1.631   3.969   5.396  0.3868 -0.3083  0.1551
   67MOL   H57148223   1.927   4.073   5.385 -1.9280  1.5307  2.2381
   67MOL   H57248224   1.811   4.122   5.284  1.2073 -0.3043 -0.1556
   67MOL   H57348225   2.165   3.804   4.906  0.0444 -0.5468  1.6075
   67MOL   H57448226   2.225   3.923   4.996 -1.0472  1.7429  1.6528
   67MOL   H57548227   2.084   3.959   4.904 -1.1185 -1.4301 -2.1612
   67MOL   H57648228   2.216   3.798   5.186  0.6123  0.0211 -2.4816
   67MOL   H57748229   2.187   3.668   5.098 -1.7666  0.6383 -2.2975
   67MOL   C57848230   2.496   2.617   5.040  0.3351  0.6941 -0.2019
   67MOL   C57948231   2.415   2.696   4.939  0.3539  0.6356  0.6741
   67MOL   C58048232   2.444   2.853   4.952  0.2531 -0.1421  0.1227
   67MOL   C58148233   2.360   2.929   4.845  0.1832  0.0146  0.2694
   67MOL   C58248234   2.349   3.080   4.881 -0.1428  0.1749  0.0246
   67MOL   C58348235   2.255   3.099   5.006  0.0712  0.4974  0.1062
   67MOL   C58448236   2.251   3.249   5.048 -0.6474  0.1830 -0.3415
   67MOL   C58548237   2.150   3.294   5.157  0.0526 -0.1658 -0.4380
   67MOL   O58648238   2.157   3.430   5.185  0.3424 -0.0868 -0.2200
   67MOL   C58748239   2.051   3.504   5.240  0.4170 -1.2573  0.1888
   67MOL   O58848240   1.934   3.464   5.250  0.0556 -0.2317 -0.2652
   67MOL   C58948241   2.103   3.644   5.289 -0.1910  0.1025  0.1271
   67MOL   C59048242   1.990   3.698   5.384  0.1470 -0.0479 -0.2143
   67MOL   C59148243   2.248   3.634   5.357  0.3081 -0.6100 -0.8899
   67MOL   H59248244   2.603   2.633   5.037  0.3577  0.6519  0.4145
   67MOL   H59348245   2.466   2.512   5.050 -3.8995  1.7488 -0.6763
   67MOL   H59448246   2.464   2.650   5.139  1.6404 -0.9686  0.8039
   67MOL   H59548247   2.314   2.671   4.971  0.3875 -0.6053 -0.1442
   67MOL   H59648248   2.424   2.651   4.840  0.2863 -0.5411  1.1993
   67MOL   H59748249   2.550   2.877   4.943 -0.4310  2.4425 -1.8551
   67MOL   H59848250   2.422   2.878   5.056 -1.1436  0.9734 -0.4294
   67MOL   H59948251   2.264   2.881   4.828 -0.0528 -0.0584  1.7268
   67MOL   H60048252   2.414   2.915   4.752  0.0898 -0.3304  0.2665
   67MOL   H60148253   2.303   3.129   4.795 -0.4977  1.5461  0.9614
   67MOL   H60248254   2.452   3.116   4.891  0.5326 -1.1663 -1.9228
   67MOL   H60348255   2.287   3.035   5.088 -2.1999  0.7073  1.1918
   67MOL   H60448256   2.157   3.058   4.983  0.4195 -0.9810  1.2011
   67MOL   H60548257   2.226   3.293   4.952  1.1946 -1.4054 -1.5737
   67MOL   H60648258   2.350   3.289   5.071  0.1884 -1.7353 -0.5199
   67MOL   H60748259   2.046   3.268   5.134  0.3458 -0.7068 -1.1776
   67MOL   H60848260   2.169   3.222   5.237 -1.0749 -0.7712 -0.7026
   67MOL   H60948261   1.952   3.631   5.462 -1.1689  2.3790  1.2937
   67MOL   H61048262   2.018   3.791   5.432 -1.0175 -0.3112  0.9955
   67MOL   H61148263   1.896   3.719   5.333  0.3026 -0.8333 -0.8419
   67MOL   H61248264   2.289   3.734   5.360 -0.7446 -0.2013  0.9870
   67MOL   H61348265   2.306   3.568   5.293  0.7047 -0.4356 -0.7087
   67MOL   C61448266   2.031   4.364   6.295  0.2732 -0.2263 -0.2728
   67MOL   C61548267   2.092   4.230   6.346  0.0089 -0.0490 -0.4228
   67MOL   C61648268   2.162   4.145   6.247  0.2244  0.2675  0.0736
   67MOL   C61748269   2.107   4.131   6.101  0.2796  0.4367  0.3457
   67MOL   C61848270   2.197   4.050   6.002 -0.1273 -0.4098  0.5652
   67MOL   C61948271   2.129   4.036   5.866  0.1986 -0.4970  0.0493
   67MOL   C62048272   2.191   3.919   5.797  0.1027  0.1739  0.3350
   67MOL   C62148273   2.126   3.896   5.663 -0.4378  0.2137 -0.1583
   67MOL   O62248274   2.214   3.807   5.589 -0.3222 -0.0115 -0.0154
   67MOL   C62348275   2.186   3.677   5.598 -0.1125  0.2489  0.4664
   67MOL   O62448276   2.093   3.631   5.659 -0.3179  0.7285  0.1338
   67MOL   C62548277   2.270   3.589   5.505 -1.2452 -0.0697  0.1577
   67MOL   C62648278   2.221   3.444   5.525 -0.4906 -0.6318 -0.0315
   67MOL   C62748279   2.421   3.611   5.551  0.4270 -0.1380 -0.8308
   67MOL   H62848280   1.990   4.427   6.374  0.1922 -1.0769  0.3720
   67MOL   H62948281   1.945   4.350   6.231 -0.3452 -0.0052  0.5015
   67MOL   H63048282   2.112   4.421   6.249  0.0344 -1.7693 -2.6206
   67MOL   H63148283   2.148   4.239   6.439 -0.9941 -0.1637  0.1948
   67MOL   H63248284   2.012   4.169   6.388  0.9183 -1.6795 -0.9872
   67MOL   H63348285   2.179   4.047   6.292 -0.9449  0.2155  0.3979
   67MOL   H63448286   2.264   4.185   6.254  1.0409 -1.8433  0.4807
   67MOL   H63548287   2.091   4.234   6.069 -2.0377  0.3123  1.0350
   67MOL   H63648288   2.008   4.087   6.112  0.0709  0.1782 -2.2575
   67MOL   H63748289   2.300   4.087   6.002 -0.6390  1.1070 -1.0778
   67MOL   H63848290   2.202   3.950   6.044 -0.5609 -1.7107 -2.3681
   67MOL   H63948291   2.024   4.019   5.893  0.4394 -0.6048  0.9214
   67MOL   H64048292   2.134   4.129   5.809 -0.4378 -0.7633 -0.4622
   67MOL   H64148293   2.198   3.832   5.861  0.8641 -0.2971 -0.3784
   67MOL   H64248294   2.292   3.955   5.779  0.1220 -0.6004 -1.1606
   67MOL   H64348295   2.026   3.854   5.678  0.0187 -0.1260  2.0223
   67MOL   H64448296   2.119   3.990   5.609 -1.1943 -0.2797 -0.9462
   67MOL   H64548297   2.276   3.375   5.461 -0.1002 -1.3690  1.0850
   67MOL   H64648298   2.116   3.426   5.501 -0.6357 -1.1856  0.9973
   67MOL   H64748299   2.232   3.415   5.630 -1.0932 -0.5661  0.0537
   67MOL   H64848300   2.417   3.613   5.660 -0.7498 -0.2383 -0.8734
   67MOL   H64948301   2.449   3.711   5.520  0.0167  0.7579  1.5722
   67MOL   C65048302   2.882   4.236   5.353  0.6181  0.7794  0.1162
   67MOL   C65148303   2.969   4.143   5.261  0.2345  0.2846 -0.1042
   67MOL   C65248304   2.924   4.001   5.244 -0.4151 -0.5088 -0.9923
   67MOL   C65348305   2.771   3.988   5.202 -0.0886 -0.1904  0.5133
   67MOL   C65448306   2.719   3.856   5.148 -0.0143  0.7170 -0.1536
   67MOL   C65548307   2.565   3.861   5.134 -0.8491 -0.3907  0.5972
   67MOL   C65648308   2.515   3.719   5.090 -0.3087  0.5017  0.0331
   67MOL   C65748309   2.573   3.594   5.155  0.1874 -0.1662 -0.1481
   67MOL   O65848310   2.543   3.606   5.293 -0.1790 -0.2329  0.1660
   67MOL   C65948311   2.551   3.490   5.367 -0.6251  0.1325  0.4725
   67MOL   O66048312   2.551   3.379   5.325  0.5465  0.7144 -0.0229
   67MOL   C66148313   2.542   3.518   5.518  0.1643 -0.4254 -0.0012
   67MOL   C66248314   2.530   3.391   5.604 -0.5541 -0.4313  0.5808
   67MOL   C66348315   2.674   3.600   5.561  0.3748  0.2738  0.2661
   67MOL   H66448316   2.778   4.237   5.322  0.9719 -1.8879 -1.2563
   67MOL   H66548317   2.918   4.339   5.344 -0.1856  0.9100 -1.8791
   67MOL   H66648318   2.879   4.199   5.456  0.2653 -2.2823 -0.9430
   67MOL   H66748319   3.067   4.137   5.308  0.5089 -1.2191 -0.8570
   67MOL   H66848320   2.999   4.194   5.169  1.4542 -1.1598 -0.5186
   67MOL   H66948321   2.937   3.930   5.326 -3.1413  0.4561  0.3349
   67MOL   H67048322   2.975   3.959   5.157  1.3317  0.7076 -0.5932
   67MOL   H67148323   2.735   4.078   5.152  3.9460  1.2210 -0.0423
   67MOL   H67248324   2.724   3.987   5.300 -1.3179  1.6191 -0.0210
   67MOL   H67348325   2.750   3.779   5.218 -2.3234 -0.3681 -0.2849
   67MOL   H67448326   2.762   3.831   5.050  2.6927  1.3903  0.8092
   67MOL   H67548327   2.522   3.883   5.232  0.9370 -1.9088  1.7637
   67MOL   H67648328   2.531   3.933   5.061  0.2183  0.5289  0.9848
   67MOL   H67748329   2.527   3.704   4.982 -2.6483 -0.7897 -0.0686
   67MOL   H67848330   2.410   3.719   5.119  0.0664 -2.5090  1.5050
   67MOL   H67948331   2.677   3.569   5.133  0.0607  0.3223 -1.3066
   67MOL   H68048332   2.510   3.514   5.116 -0.5994 -0.1788  1.0978
   67MOL   H68148333   2.626   3.339   5.613  0.1665  0.3718 -2.0660
   67MOL   H68248334   2.457   3.320   5.566 -0.9398  0.8097 -1.0217
   67MOL   H68348335   2.507   3.416   5.708 -0.2683  2.1430  0.0572
   67MOL   H68448336   2.675   3.702   5.521 -1.7238  0.3672  0.4403
   67MOL   H68548337   2.655   3.629   5.664 -0.5691 -1.1376  0.4954
   67MOL   C68648338   2.378   3.186   6.414  0.4686 -0.3926 -0.4811
   67MOL   C68748339   2.495   3.197   6.320 -0.0292  0.4565 -0.1387
   67MOL   C68848340   2.599   3.307   6.354 -0.2955 -0.3195  0.1874
   67MOL   C68948341   2.696   3.317   6.237 -0.0250  0.2082 -0.1401
   67MOL   C69048342   2.791   3.434   6.265  0.2509  0.3269  0.1719
   67MOL   C69148343   2.904   3.445   6.165 -0.1220 -0.5003  0.1270
   67MOL   C69248344   2.878   3.526   6.037 -0.1613  0.2805 -0.5134
   67MOL   C69348345   2.853   3.429   5.919 -0.8865  0.3077 -0.7422
   67MOL   O69448346   2.828   3.502   5.796  0.5030  0.3789 -0.4193
   67MOL   C69548347   2.844   3.444   5.676 -0.2985  0.0903  1.0758
   67MOL   O69648348   2.870   3.325   5.660  0.0140 -0.2736 -0.1354
   67MOL   C69748349   2.820   3.538   5.557 -0.4360 -0.2532  0.1768
   67MOL   C69848350   2.935   3.643   5.559 -0.3545 -0.3362 -0.0963
   67MOL   C69948351   2.853   3.463   5.421  0.2437  0.1320  0.2913
   67MOL   H70048352   2.311   3.110   6.376  1.5138 -1.5205 -0.0929
   67MOL   H70148353   2.326   3.281   6.422  0.9942 -0.2605  1.8951
   67MOL   H70248354   2.416   3.163   6.514  2.9578 -2.3711 -1.8399
   67MOL   H70348355   2.440   3.220   6.228  0.7262 -2.3059 -1.3222
   67MOL   H70448356   2.543   3.108   6.279 -0.5065  0.5124 -0.8394
   67MOL   H70548357   2.647   3.275   6.447  2.4359  0.0999 -1.0361
   67MOL   H70648358   2.560   3.409   6.358  2.3855  0.7438  0.9076
   67MOL   H70748359   2.651   3.325   6.138 -0.8075 -1.2446  0.0812
   67MOL   H70848360   2.753   3.224   6.230  2.3228  1.6332 -0.2091
   67MOL   H70948361   2.845   3.407   6.356  1.0260  0.7246 -0.1637
   67MOL   H71048362   2.745   3.532   6.278  1.9601  1.5731 -2.7562
   67MOL   H71148363   2.990   3.488   6.215  1.1530  0.2821 -2.6530
   67MOL   H71248364   2.945   3.348   6.136  1.9380  0.7956 -1.3604
   67MOL   H71348365   2.790   3.589   6.052 -0.0242  0.6606 -1.2962
   67MOL   H71448366   2.968   3.583   6.016  0.3092  1.4390  4.2869
   67MOL   H71548367   2.775   3.355   5.937  0.3973 -1.0429 -0.5578
   67MOL   H71648368   2.936   3.359   5.906 -0.3200  0.4781  1.6764
   67MOL   H71748369   2.951   3.672   5.663 -0.4502 -1.7047  0.3171
   67MOL   H71848370   3.033   3.599   5.542  0.3394  0.8490  0.8249
   67MOL   H71948371   2.931   3.728   5.492  0.3172 -0.2958 -0.0858
   67MOL   H72048372   2.832   3.520   5.331 -2.0310 -1.5043 -0.2659
   67MOL   H72148373   2.798   3.370   5.402  1.7854 -0.2208 -2.7376
   67MOL   H72248374   2.958   3.445   5.398 -0.2182 -1.4843 -0.6317
   68MOL     C148375   4.075   4.519   2.905  0.3184 -0.9465  0.2151
   68MOL     C248376   3.926   4.545   2.927 -0.2519  0.4044  0.5851
   68MOL     C348377   3.894   4.689   2.976 -0.0394 -0.4774 -0.8933
   68MOL     C448378   3.750   4.700   3.031  0.6281 -0.4026  0.8015
   68MOL     C548379   3.716   4.832   3.088 -0.0997 -0.5647  0.2153
   68MOL     C648380   3.796   4.865   3.218 -0.1151  0.5507  0.1029
   68MOL     C748381   3.737   4.975   3.297  0.3000  0.3286  0.8882
   68MOL     C848382   3.809   5.006   3.425 -0.0015 -0.4317  0.2456
   68MOL     O948383   3.767   5.127   3.474 -0.2750  0.0942  0.1616
   68MOL    C1048384   3.807   5.166   3.592  0.1281  0.0100  0.7143
   68MOL    O1148385   3.895   5.115   3.657 -0.4110 -0.2948  0.1384
   68MOL    C1248386   3.730   5.291   3.640 -0.6094 -0.6074 -0.4975
   68MOL    C1348387   3.710   5.287   3.793 -0.3794 -0.3172 -0.7404
   68MOL    C1448388   3.798   5.426   3.609 -0.8579 -0.1345 -0.0395
   68MOL    H1548389   4.103   4.527   2.800 -2.5481  1.0080 -0.4427
   68MOL    H1648390   4.100   4.418   2.939 -1.0613 -1.2620  0.3451
   68MOL    H1748391   4.143   4.585   2.959 -0.2398 -0.7248  0.6478
   68MOL    H1848392   3.895   4.476   3.005  1.4211  0.0191  0.9349
   68MOL    H1948393   3.874   4.518   2.835 -1.0053 -0.6447  1.3153
   68MOL    H2048394   3.972   4.738   3.035 -0.2033  0.9400 -1.8230
   68MOL    H2148395   3.889   4.753   2.888 -0.7717  0.7411  0.0156
   68MOL    H2248396   3.690   4.687   2.941  2.9376  1.7032 -1.1358
   68MOL    H2348397   3.727   4.622   3.103 -0.0093 -1.5977 -0.6528
   68MOL    H2448398   3.607   4.830   3.100  0.1102 -3.2153  1.8481
   68MOL    H2548399   3.741   4.905   3.010 -1.1653  0.0319  0.4188
   68MOL    H2648400   3.897   4.892   3.187  0.4200 -0.0431  1.3271
   68MOL    H2748401   3.803   4.777   3.281  0.6882 -0.5235 -1.4509
   68MOL    H2848402   3.635   4.946   3.324 -0.2726  0.5591 -0.9217
   68MOL    H2948403   3.728   5.066   3.237 -2.2574  0.3027  1.1620
   68MOL    H3048404   3.915   5.019   3.402 -0.6548  2.0610 -1.5998
   68MOL    H3148405   3.798   4.919   3.489 -1.7925 -0.9012 -0.6876
   68MOL    H3248406   3.691   5.184   3.823  0.0042 -0.7420 -1.9447
   68MOL    H3348407   3.798   5.322   3.847 -1.4711 -1.0930  1.5820
   68MOL    H3448408   3.630   5.352   3.828 -0.1595 -0.2076 -0.4413
   68MOL    H3548409   3.906   5.418   3.596 -0.7692  2.2126 -1.0729
   68MOL    H3648410   3.792   5.479   3.704 -0.3134  0.3528 -0.2757
   68MOL    H3748411   3.643   5.296   3.575  0.0773 -0.6969 -1.4354
   68MOL    C3848412   2.757   5.203   3.394 -0.4030  0.0139  0.7345
   68MOL    C3948413   2.886   5.261   3.455 -0.2149  0.7120  0.5570
   68MOL    C4048414   2.893   5.414   3.437  0.8856 -0.2989  0.0286
   68MOL    C4148415   3.018   5.480   3.485 -0.2941  0.5849 -0.3547
   68MOL    C4248416   3.012   5.627   3.446 -0.7021  0.0834 -1.0787
   68MOL    C4348417   3.152   5.694   3.471  0.1607 -0.4683  0.1952
   68MOL    C4448418   3.282   5.626   3.412 -0.0983 -0.4380  0.5551
   68MOL    C4548419   3.410   5.707   3.439  0.3746 -0.4305  0.0261
   68MOL    O4648420   3.534   5.631   3.423  0.4951 -0.0521 -0.8023
   68MOL    C4748421   3.591   5.567   3.526  0.3261 -0.1797 -0.5894
   68MOL    O4848422   3.543   5.545   3.636  0.2629  0.0629 -0.1981
   68MOL    C4948423   3.741   5.521   3.496 -0.5642  0.3601  0.4230
   68MOL    C5048424   3.740   5.432   3.372 -0.1111 -0.0128 -0.2491
   68MOL    C5148425   3.844   5.633   3.465 -0.4729 -0.4539  0.2452
   68MOL    H5248426   2.668   5.214   3.457 -2.1200 -0.8205 -1.4778
   68MOL    H5348427   2.764   5.097   3.368 -1.9991  0.6756 -2.5762
   68MOL    H5448428   2.725   5.252   3.302 -0.5398  0.0878  0.8213
   68MOL    H5548429   2.977   5.220   3.410 -1.7128 -1.0513 -0.9141
   68MOL    H5648430   2.894   5.241   3.562  1.8040  3.1526  0.9298
   68MOL    H5748431   2.887   5.420   3.329 -1.3709 -3.7998 -0.1124
   68MOL    H5848432   2.804   5.467   3.471 -0.1001 -1.4751 -0.6756
   68MOL    H5948433   3.094   5.428   3.426  1.5597  2.3879  0.3527
   68MOL    H6048434   3.045   5.472   3.591  1.6792  3.3746 -0.5739
   68MOL    H6148435   2.976   5.640   3.344  0.3225 -1.6352 -1.6814
   68MOL    H6248436   2.945   5.665   3.523 -2.6115  0.6195 -2.9720
   68MOL    H6348437   3.140   5.800   3.449  1.3029 -0.6597 -1.4725
   68MOL    H6448438   3.179   5.700   3.576 -2.5988 -0.0672  0.9165
   68MOL    H6548439   3.269   5.610   3.305  0.2946 -0.5252  0.5223
   68MOL    H6648440   3.291   5.527   3.455 -0.9898 -0.1507  1.4060
   68MOL    H6748441   3.402   5.731   3.545 -1.8879 -0.7569 -0.0428
   68MOL    H6848442   3.412   5.799   3.382  1.5082  0.1112  0.9278
   68MOL    H6948443   3.661   5.357   3.379  0.6653 -0.8857 -0.6845
   68MOL    H7048444   3.711   5.481   3.279  0.6154 -0.5341 -0.7582
   68MOL    H7148445   3.839   5.390   3.354  0.9386  0.1875  4.4394
   68MOL    H7248446   3.816   5.664   3.364 -0.3901 -1.0717  0.0294
   68MOL    H7348447   3.941   5.584   3.449  0.2451  1.7900 -2.7593
   68MOL    C7448448   4.856   5.278   3.391 -0.0548 -0.5444  0.9248
   68MOL    C7548449   4.746   5.297   3.496  0.5487  0.3760 -0.5446
   68MOL    C7648450   4.693   5.440   3.533  0.6892 -0.4355 -0.1077
   68MOL    C7748451   4.559   5.433   3.605  0.0781 -0.1377 -0.3652
   68MOL    C7848452   4.546   5.547   3.707  0.8340 -0.1968  0.6014
   68MOL    C7948453   4.410   5.558   3.785  0.0571  0.3708 -0.4497
   68MOL    C8048454   4.295   5.583   3.683 -0.3994 -0.1089 -0.3377
   68MOL    C8148455   4.156   5.616   3.750  0.0193 -0.4346 -0.6174
   68MOL    O8248456   4.065   5.665   3.657  0.1974  0.2012 -0.5355
   68MOL    C8348457   3.948   5.720   3.682  0.0463 -0.4709 -0.4566
   68MOL    O8448458   3.904   5.728   3.797  0.1269 -0.2010  0.3549
   68MOL    C8548459   3.870   5.760   3.552  0.4402 -0.3941 -0.0034
   68MOL    C8648460   3.975   5.831   3.454 -0.1581  0.5309  0.1074
   68MOL    C8748461   3.732   5.844   3.563 -0.1706 -0.1177 -0.3333
   68MOL    H8848462   4.816   5.313   3.296  1.5551 -1.4007 -0.0833
   68MOL    H8948463   4.880   5.174   3.368 -0.4206 -0.4881  0.2998
   68MOL    H9048464   4.950   5.328   3.414 -1.6053  1.9544  2.0230
   68MOL    H9148465   4.786   5.251   3.586 -1.5126  1.3256  0.8802
   68MOL    H9248466   4.658   5.233   3.481 -0.8297  2.2794 -0.8000
   68MOL    H9348467   4.774   5.484   3.591 -0.4652 -0.9111  1.9323
   68MOL    H9448468   4.680   5.490   3.437  1.0615 -2.1889 -1.0816
   68MOL    H9548469   4.561   5.345   3.669  1.2063  0.4612  0.4426
   68MOL    H9648470   4.474   5.415   3.538 -0.4263 -0.6951  0.4197
   68MOL    H9748471   4.624   5.534   3.782  1.4620  1.8584  0.3291
   68MOL    H9848472   4.571   5.639   3.655 -0.0575  1.0029  2.2569
   68MOL    H9948473   4.397   5.464   3.840 -0.3183  0.4722 -0.3626
   68MOL   H10048474   4.411   5.638   3.858 -0.2637 -0.0435  0.0129
   68MOL   H10148475   4.313   5.662   3.610 -0.2205  0.5741  0.4313
   68MOL   H10248476   4.286   5.504   3.609 -0.7691  0.1609 -0.5825
   68MOL   H10348477   4.178   5.702   3.813 -1.9872  2.5676 -3.8377
   68MOL   H10448478   4.116   5.525   3.794 -1.6894  0.2459 -0.7137
   68MOL   H10548479   4.062   5.770   3.429 -1.3583 -1.1407 -0.0671
   68MOL   H10648480   4.023   5.922   3.490 -0.1948 -0.5492  3.0128
   68MOL   H10748481   3.938   5.843   3.352 -3.3245 -0.8348  1.0323
   68MOL   H10848482   3.677   5.824   3.472  0.9263 -2.9293 -0.4415
   68MOL   H10948483   3.681   5.793   3.645 -0.3962 -0.4664 -0.6930
   68MOL   C11048484   4.465   6.941   3.639  0.1020  0.9630  0.3592
   68MOL   C11148485   4.343   6.848   3.645 -0.3166  0.1101 -0.2149
   68MOL   C11248486   4.349   6.711   3.586 -0.0326  0.2006  1.0924
   68MOL   C11348487   4.222   6.639   3.606  0.6789 -0.0954 -0.8648
   68MOL   C11448488   4.221   6.509   3.538 -0.3313  0.6584 -0.3161
   68MOL   C11548489   4.088   6.432   3.547 -0.1199  0.1484 -0.2427
   68MOL   C11648490   4.088   6.291   3.471  0.2876  0.2868  1.2504
   68MOL   C11748491   3.956   6.237   3.423  0.7566  0.0486  0.6370
   68MOL   O11848492   3.889   6.171   3.525  0.0379 -0.1002 -0.1748
   68MOL   C11948493   3.795   6.082   3.484  0.7082 -0.2818  0.5936
   68MOL   O12048494   3.758   6.071   3.368  0.3175  0.3330 -0.2435
   68MOL   C12148495   3.728   6.002   3.599 -0.6868  0.0538  0.5086
   68MOL   C12248496   3.796   6.017   3.733 -0.4923  0.1441 -0.1220
   68MOL   C12348497   3.574   6.018   3.604  0.5222  0.0096  0.3843
   68MOL   H12448498   4.451   7.024   3.707  1.6473 -0.6281  2.6741
   68MOL   H12548499   4.556   6.888   3.667  0.2709  1.3624  0.5643
   68MOL   H12648500   4.477   6.972   3.535  0.4071  0.0629  0.1206
   68MOL   H12748501   4.255   6.900   3.609 -1.1053 -0.5178  0.7684
   68MOL   H12848502   4.327   6.831   3.752  1.2276  1.3439  0.2449
   68MOL   H12948503   4.438   6.656   3.615  1.7566  1.7514 -1.2440
   68MOL   H13048504   4.347   6.714   3.477 -0.1232  1.4528  1.1146
   68MOL   H13148505   4.216   6.614   3.712  1.1686  0.7907 -0.6270
   68MOL   H13248506   4.136   6.704   3.586  0.0348 -0.0717  1.7476
   68MOL   H13348507   4.308   6.451   3.570  0.2191  1.6780  0.0660
   68MOL   H13448508   4.234   6.515   3.429 -1.6097 -1.4473 -0.6219
   68MOL   H13548509   4.077   6.397   3.650 -1.4263  1.1987 -0.0234
   68MOL   H13648510   4.007   6.495   3.513 -0.7405  0.2631  1.3875
   68MOL   H13748511   4.141   6.224   3.539  0.5988  1.7162  2.4502
   68MOL   H13848512   4.154   6.301   3.385 -1.5148  0.7326 -0.0969
   68MOL   H13948513   3.893   6.319   3.389 -0.2574 -0.9762 -0.0082
   68MOL   H14048514   3.977   6.167   3.342 -2.3898 -1.3850  0.9766
   68MOL   H14148515   3.814   6.117   3.772  1.9857 -0.7644  1.1300
   68MOL   H14248516   3.753   5.956   3.812 -1.1866 -0.6678 -1.1039
   68MOL   H14348517   3.895   5.975   3.718 -0.9765 -1.5013  1.1071
   68MOL   H14448518   3.539   5.939   3.670 -0.8339  0.9840  0.8348
   68MOL   H14548519   3.536   5.988   3.506  2.6400 -1.9433  0.1000
   68MOL   C14648520   4.037   7.073   4.059  0.1566  0.3877 -0.5453
   68MOL   C14748521   3.908   7.048   4.144  0.5527  0.2482 -0.0636
   68MOL   C14848522   3.799   6.968   4.068  0.0296  0.6764 -0.0943
   68MOL   C14948523   3.844   6.820   4.042  0.1995 -0.6411 -1.2219
   68MOL   C15048524   3.730   6.745   3.963 -0.0347 -0.2319 -0.7065
   68MOL   C15148525   3.780   6.610   3.915 -0.3840  0.2519  0.5317
   68MOL   C15248526   3.700   6.541   3.811 -0.0106 -0.5719  0.0202
   68MOL   C15348527   3.751   6.398   3.791  0.2628  0.1018 -0.1342
   68MOL   O15448528   3.662   6.331   3.698  0.7899  0.0169 -0.2323
   68MOL   C15548529   3.580   6.235   3.745  0.1736 -0.1217  0.4969
   68MOL   O15648530   3.568   6.208   3.859 -0.2557  0.6249 -0.0721
   68MOL   C15748531   3.500   6.152   3.636  0.4466  0.1517  0.1409
   68MOL   C15848532   3.480   6.230   3.502 -0.3118 -0.3412  0.3629
   68MOL   C15948533   3.366   6.097   3.701  0.2934  0.4017  0.5243
   68MOL   H16048534   4.077   7.162   4.106 -0.6174 -0.2077  1.2842
   68MOL   H16148535   4.023   7.084   3.951 -2.4312  0.4220 -0.2236
   68MOL   H16248536   4.109   6.991   4.072 -0.8879 -0.4199  0.2511
   68MOL   H16348537   3.932   7.003   4.240 -0.4616 -0.1719  0.0016
   68MOL   H16448538   3.859   7.142   4.171 -1.0221 -0.8160  0.8764
   68MOL   H16548539   3.764   7.022   3.980 -0.1441  0.2975 -0.2612
   68MOL   H16648540   3.717   6.969   4.139 -1.7347 -0.1798 -2.0607
   68MOL   H16748541   3.945   6.814   4.003  0.3507 -0.3541 -0.8758
   68MOL   H16848542   3.856   6.770   4.138  2.2902 -0.5310 -1.4117
   68MOL   H16948543   3.704   6.795   3.869  2.1426  0.6744 -0.8450
   68MOL   H17048544   3.633   6.741   4.013  0.5139  1.6885  0.5249
   68MOL   H17148545   3.799   6.549   4.003  0.5362  0.4713  0.4859
   68MOL   H17248546   3.877   6.627   3.867 -0.7017  1.9712  0.4753
   68MOL   H17348547   3.603   6.525   3.858 -0.7770  3.8560  0.1899
   68MOL   H17448548   3.691   6.612   3.729  1.2520 -2.0694 -1.4401
   68MOL   H17548549   3.853   6.401   3.752  0.9064 -3.0915  1.1853
   68MOL   H17648550   3.755   6.340   3.884 -0.7606 -1.4577 -1.0381
   68MOL   H17748551   3.569   6.274   3.456 -1.5228 -1.0724 -2.7781
   68MOL   H17848552   3.408   6.312   3.514 -0.2887 -0.2065 -0.3865
   68MOL   H17948553   3.436   6.164   3.428  2.6247 -0.5804 -1.2178
   68MOL   H18048554   3.394   6.071   3.803 -2.3735  1.5411  1.6072
   68MOL   H18148555   3.338   5.999   3.663  2.6320  0.3972 -1.2822
   68MOL   C18248556   2.571   7.089   3.467 -0.2848  0.0454  0.4183
   68MOL   C18348557   2.637   6.960   3.417 -0.0797 -0.1558 -0.8000
   68MOL   C18448558   2.691   6.883   3.534 -0.1338 -0.0483  0.0163
   68MOL   C18548559   2.784   6.777   3.498  0.0712 -0.0646  0.8710
   68MOL   C18648560   2.825   6.686   3.617  0.8403  0.4930 -0.1749
   68MOL   C18748561   2.937   6.586   3.590  0.4692 -0.1512 -0.1080
   68MOL   C18848562   2.899   6.468   3.503  0.0925 -0.1339 -0.2112
   68MOL   C18948563   3.023   6.374   3.483 -0.1497 -0.3609 -0.4723
   68MOL   O19048564   3.080   6.327   3.604 -0.3003  0.3336 -0.6639
   68MOL   C19148565   3.169   6.223   3.596  0.3161 -0.3843 -0.4917
   68MOL   O19248566   3.189   6.158   3.499 -0.0911  0.0137  0.3715
   68MOL   C19348567   3.237   6.193   3.731 -0.2974  0.5999  0.2782
   68MOL   C19448568   3.271   6.339   3.789  0.2748 -0.0513  0.1698
   68MOL   C19548569   3.150   6.119   3.831  0.3788  0.3275 -0.2173
   68MOL   H19648570   2.520   7.152   3.393 -0.5175  0.0992  0.6218
   68MOL   H19748571   2.490   7.074   3.539  0.3485 -0.9951  0.9148
   68MOL   H19848572   2.641   7.153   3.521  0.1958  0.0376 -0.1974
   68MOL   H19948573   2.711   6.988   3.343  1.2181 -2.3412 -0.3592
   68MOL   H20048574   2.565   6.894   3.370  0.4783 -1.5551  0.2744
   68MOL   H20148575   2.747   6.947   3.602 -0.0043 -1.7032  1.5083
   68MOL   H20248576   2.615   6.839   3.599  0.6585 -1.1791  0.1885
   68MOL   H20348577   2.747   6.718   3.414 -1.0829  1.3924  0.3226
   68MOL   H20448578   2.876   6.821   3.460  0.1895 -0.0172  1.2106
   68MOL   H20548579   2.735   6.633   3.649  0.7765  0.9548  0.4284
   68MOL   H20648580   2.840   6.747   3.706  1.1702  0.7803 -0.4309
   68MOL   H20748581   2.964   6.549   3.689 -0.8268 -2.0366 -0.4073
   68MOL   H20848582   3.020   6.635   3.540 -1.3649  1.2816 -1.8117
   68MOL   H20948583   2.810   6.427   3.550 -0.9945  2.2101 -0.1346
   68MOL   H21048584   2.878   6.500   3.401 -0.1191 -0.9420 -0.4220
   68MOL   H21148585   3.099   6.435   3.436  0.8787  0.9306  2.7000
   68MOL   H21248586   2.989   6.296   3.415 -3.7477  1.0422 -0.3876
   68MOL   H21348587   3.185   6.391   3.832  1.4653  3.2508 -1.3241
   68MOL   H21448588   3.343   6.343   3.871  0.5910 -0.6168 -0.0799
   68MOL   H21548589   3.308   6.401   3.707  2.1083  2.3349  2.7199
   68MOL   H21648590   3.160   6.013   3.811 -2.1277  0.0009  0.1725
   68MOL   H21748591   3.200   6.128   3.927 -2.2667  0.9467  1.1446
   68MOL   C21848592   2.423   6.278   4.624 -0.5734 -0.1655 -0.5095
   68MOL   C21948593   2.548   6.316   4.543  0.3073 -0.5752  0.3068
   68MOL   C22048594   2.515   6.387   4.411  0.7356 -0.2480  0.5710
   68MOL   C22148595   2.636   6.397   4.311 -0.5040  0.3339 -0.0311
   68MOL   C22248596   2.618   6.494   4.185 -0.2551  0.2979  0.2026
   68MOL   C22348597   2.728   6.483   4.078  0.7288  0.1237 -0.0708
   68MOL   C22448598   2.869   6.472   4.128  0.2090  0.5997 -0.4360
   68MOL   C22548599   2.974   6.457   4.023 -0.0655 -0.1171 -0.6403
   68MOL   O22648600   2.990   6.326   3.993 -0.3820  0.1642  0.0068
   68MOL   C22748601   2.949   6.282   3.881 -0.3057  0.6037  0.5618
   68MOL   O22848602   2.875   6.342   3.806  0.1536  0.1321  0.1448
   68MOL   C22948603   2.993   6.132   3.854 -0.2760 -0.0779  0.7246
   68MOL   C23048604   2.960   6.050   3.981  0.0581  0.0932 -0.4090
   68MOL   C23148605   2.913   6.066   3.728 -0.2839  0.2104 -0.5922
   68MOL   H23248606   2.364   6.207   4.566 -0.7779  0.4262 -1.0370
   68MOL   H23348607   2.371   6.372   4.647 -1.6473 -1.3839  2.3037
   68MOL   H23448608   2.467   6.234   4.713 -0.2646 -0.1448 -0.6508
   68MOL   H23548609   2.611   6.230   4.520 -1.5038 -1.3956 -1.8223
   68MOL   H23648610   2.591   6.393   4.606 -1.2998  0.6882 -0.0808
   68MOL   H23748611   2.452   6.318   4.355  1.8907 -0.1441 -0.9032
   68MOL   H23848612   2.450   6.474   4.412 -0.9439 -1.4769  4.0164
   68MOL   H23948613   2.703   6.452   4.377 -0.5052  0.5202 -0.1874
   68MOL   H24048614   2.681   6.305   4.274 -2.0250 -0.0344 -1.0475
   68MOL   H24148615   2.526   6.474   4.130 -1.1392 -0.4079  1.8863
   68MOL   H24248616   2.611   6.597   4.219  1.7966  0.3716  0.4659
   68MOL   H24348617   2.706   6.388   4.030 -0.7687  1.2139 -1.6106
   68MOL   H24448618   2.721   6.557   3.997  1.3040 -1.7812 -1.9091
   68MOL   H24548619   2.884   6.390   4.198 -1.5875  0.1295 -0.5849
   68MOL   H24648620   2.898   6.562   4.183  1.4276  0.8280 -1.4246
   68MOL   H24748621   3.075   6.487   4.050 -0.8766  1.4401  0.8072
   68MOL   H24848622   2.949   6.519   3.937  0.9091 -0.3979 -1.1297
   68MOL   H24948623   2.854   6.058   4.009 -0.2288 -0.5179 -1.3026
   68MOL   H25048624   3.006   6.078   4.076 -4.0792 -0.0616  1.7874
   68MOL   H25148625   2.988   5.946   3.971  1.1969  0.4950 -1.5377
   68MOL   H25248626   2.906   6.142   3.650 -0.8631 -1.8478 -2.6031
   68MOL   H25348627   2.979   5.993   3.681 -0.2038  0.2430 -0.5318
   68MOL   C25448628   3.689   5.599   4.025  0.5678  0.1344  0.2442
   68MOL   C25548629   3.582   5.658   3.937  0.5144 -0.1346 -0.1164
   68MOL   C25648630   3.440   5.665   4.002 -0.0291  0.3517 -0.5419
   68MOL   C25748631   3.340   5.687   3.889  0.1816  0.7996  0.5416
   68MOL   C25848632   3.197   5.666   3.944 -0.1496  0.4885 -0.3289
   68MOL   C25948633   3.085   5.660   3.835  0.2342  1.0190  0.3854
   68MOL   C26048634   2.952   5.619   3.900 -0.6086 -0.7589 -0.1991
   68MOL   C26148635   2.839   5.638   3.802 -0.4286  0.2726  0.0449
   68MOL   O26248636   2.829   5.767   3.744 -0.1796  0.1278  0.2459
   68MOL   C26348637   2.773   5.867   3.811  0.0921  0.2324 -0.6000
   68MOL   O26448638   2.729   5.856   3.922  0.0491 -0.5061 -0.4412
   68MOL   C26548639   2.766   6.001   3.732 -0.1985  0.8609 -0.1790
   68MOL   C26648640   2.732   5.973   3.576 -0.4727  0.0742  0.5025
   68MOL   C26748641   2.665   6.104   3.795  0.4522 -0.5042 -0.0360
   68MOL   H26848642   3.780   5.578   3.969  0.0122 -0.1730 -0.5745
   68MOL   H26948643   3.702   5.675   4.101  0.3204 -0.9393  1.3773
   68MOL   H27048644   3.651   5.514   4.082  1.5095 -0.0506  0.5979
   68MOL   H27148645   3.605   5.751   3.885 -1.6224  0.4130 -0.1592
   68MOL   H27248646   3.576   5.581   3.860 -1.5995 -2.6082  2.4016
   68MOL   H27348647   3.442   5.744   4.078  1.4825 -0.2798  0.0929
   68MOL   H27448648   3.411   5.571   4.049 -2.0485  1.8635  1.3840
   68MOL   H27548649   3.363   5.615   3.811 -2.1576 -1.1547  1.6070
   68MOL   H27648650   3.345   5.791   3.855  0.8268  0.6461  0.1727
   68MOL   H27748651   3.182   5.576   4.003 -0.5985  1.2606  0.7619
   68MOL   H27848652   3.170   5.735   4.024  1.8861  1.1689 -0.1816
   68MOL   H27948653   3.123   5.585   3.765 -0.6186  0.5686  0.3992
   68MOL   H28048654   3.072   5.756   3.786 -1.0302  1.4960  1.6454
   68MOL   H28148655   2.956   5.514   3.932  0.8124 -1.2801 -1.9610
   68MOL   H28248656   2.944   5.682   3.989  3.1748  1.9103 -1.5947
   68MOL   H28348657   2.864   5.572   3.719 -0.6772  0.6727 -0.3515
   68MOL   H28448658   2.745   5.599   3.841  0.2270 -0.7248  0.6665
   68MOL   H28548659   2.730   6.063   3.514 -1.3977 -0.6644 -0.5419
   68MOL   H28648660   2.816   5.926   3.525 -1.3182 -0.0943 -0.7576
   68MOL   H28748661   2.643   5.911   3.568 -0.4480  0.4517 -3.7810
   68MOL   H28848662   2.695   6.200   3.753 -0.1918  0.8538  2.5201
   68MOL   H28948663   2.679   6.119   3.902  0.3578  1.0865 -0.2421
   68MOL   C29048664   2.818   6.003   2.728  0.0407 -0.1673  0.2282
   68MOL   C29148665   2.718   6.014   2.831  0.0722 -0.5820 -0.0228
   68MOL   C29248666   2.686   6.162   2.854  0.6093 -0.0318 -0.7547
   68MOL   C29348667   2.579   6.184   2.967 -0.1915  0.2702  0.7541
   68MOL   C29448668   2.632   6.178   3.105  0.4492  0.1491 -1.0219
   68MOL   C29548669   2.540   6.246   3.213  0.4650  0.6754 -0.4211
   68MOL   C29648670   2.570   6.215   3.356 -0.7950 -0.0270  0.4480
   68MOL   C29748671   2.482   6.287   3.452 -0.6231 -0.3712  0.2119
   68MOL   O29848672   2.501   6.248   3.586 -1.1577  0.1875  0.5133
   68MOL   C29948673   2.456   6.132   3.633 -0.0630 -0.1160 -0.5475
   68MOL   O30048674   2.378   6.061   3.574  0.1196 -0.4858 -0.4988
   68MOL   C30148675   2.501   6.101   3.785 -0.2572  0.3511 -0.1844
   68MOL   C30248676   2.441   5.963   3.838 -0.1126 -0.2662  0.1648
   68MOL   C30348677   2.448   6.217   3.884  0.0257 -0.3199  0.1034
   68MOL   H30448678   2.800   6.053   2.633  0.7051  0.1496  0.2706
   68MOL   H30548679   2.830   5.897   2.704 -1.7656 -0.0670 -1.2372
   68MOL   H30648680   2.908   6.050   2.768 -0.9558 -0.0820  2.4394
   68MOL   H30748681   2.743   5.966   2.925 -1.2996 -1.9669 -0.3521
   68MOL   H30848682   2.627   5.961   2.805 -0.2111 -0.5498  0.9070
   68MOL   H30948683   2.641   6.204   2.764 -0.2471  0.4190 -0.1250
   68MOL   H31048684   2.774   6.221   2.880  0.3144 -0.6410  1.7748
   68MOL   H31148685   2.543   6.285   2.945  1.9104  1.0569  0.8090
   68MOL   H31248686   2.502   6.108   2.955  1.0977 -0.7364 -1.4071
   68MOL   H31348687   2.629   6.076   3.143 -0.0007 -0.2707 -2.1421
   68MOL   H31448688   2.733   6.217   3.121  0.9101 -0.9956 -1.0372
   68MOL   H31548689   2.441   6.203   3.203 -0.4298  2.3447  1.0868
   68MOL   H31648690   2.540   6.354   3.195 -0.1407  0.7757  0.1972
   68MOL   H31748691   2.676   6.235   3.371 -0.3759 -2.1869  0.5137
   68MOL   H31848692   2.573   6.107   3.369  1.8114 -0.0777 -0.2490
   68MOL   H31948693   2.378   6.262   3.433 -1.6799  2.7909  1.5474
   68MOL   H32048694   2.510   6.391   3.439 -3.5367  0.5677  1.1360
   68MOL   H32148695   2.333   5.952   3.829 -0.2713  1.6266 -0.4476
   68MOL   H32248696   2.466   5.948   3.943  2.0635 -1.9292 -0.5459
   68MOL   H32348697   2.477   5.875   3.784 -1.4352 -0.4086 -0.5050
   68MOL   H32448698   2.466   6.186   3.987  1.5972  2.0082  0.5690
   68MOL   H32548699   2.516   6.301   3.873 -0.1169 -0.4791 -2.2174
   68MOL   C32648700   1.897   7.017   3.990 -0.1766  0.5040  0.7606
   68MOL   C32748701   2.012   6.984   4.087  0.0727 -0.2426  0.0919
   68MOL   C32848702   2.153   6.996   4.034 -0.1321  0.2408  0.1245
   68MOL   C32948703   2.202   6.884   3.945 -0.5493 -0.7478 -0.6476
   68MOL   C33048704   2.352   6.887   3.921 -0.4672  0.0388  0.6648
   68MOL   C33148705   2.407   6.760   3.845 -1.0461 -0.1986  0.1900
   68MOL   C33248706   2.333   6.709   3.723  0.2587 -0.3611 -0.0733
   68MOL   C33348707   2.408   6.586   3.675  0.1801 -0.0020 -0.3663
   68MOL   O33448708   2.399   6.476   3.773  0.4585  0.1511 -0.7071
   68MOL   C33548709   2.301   6.389   3.765  0.1342  0.4974  0.4478
   68MOL   O33648710   2.223   6.374   3.670  0.6277  0.0664  0.1704
   68MOL   C33748711   2.304   6.286   3.884 -0.6052  0.4419 -0.2896
   68MOL   C33848712   2.190   6.181   3.866  0.5834  0.5682  0.1935
   68MOL   C33948713   2.289   6.367   4.018 -0.0606  0.3214  0.1646
   68MOL   H34048714   1.801   6.993   4.036 -0.4912 -0.4986 -0.3810
   68MOL   H34148715   1.897   6.955   3.900  0.9070  1.0712  0.3640
   68MOL   H34248716   1.907   7.124   3.970  1.8544  0.2564  0.2692
   68MOL   H34348717   1.998   6.882   4.121  0.8594  0.5385  2.8961
   68MOL   H34448718   1.998   7.042   4.178 -1.9136  0.1134 -0.4017
   68MOL   H34548719   2.226   6.992   4.115  3.0851  0.8101 -2.6587
   68MOL   H34648720   2.165   7.093   3.984 -1.3617  1.2496  1.7414
   68MOL   H34748721   2.154   6.894   3.847  0.0700 -0.0137 -0.8866
   68MOL   H34848722   2.171   6.793   3.996  0.7632 -1.5750 -1.3152
   68MOL   H34948723   2.373   6.979   3.867 -0.6790  0.5128  1.3880
   68MOL   H35048724   2.415   6.900   4.009  1.0634  1.0507 -0.5546
   68MOL   H35148725   2.514   6.763   3.824 -1.0296 -0.6952  0.1959
   68MOL   H35248726   2.397   6.689   3.927  1.5331 -0.2804  0.4810
   68MOL   H35348727   2.322   6.784   3.645  1.1402 -0.6760 -0.5127
   68MOL   H35448728   2.232   6.674   3.744  0.2091  0.1717  0.6043
   68MOL   H35548729   2.369   6.557   3.578  0.5863  1.4096 -0.9728
   68MOL   H35648730   2.511   6.611   3.650  0.0447  0.5977 -0.3362
   68MOL   H35748731   2.092   6.223   3.841  0.5148  0.7358  0.7394
   68MOL   H35848732   2.217   6.114   3.784 -0.2878 -1.9978  1.9223
   68MOL   H35948733   2.176   6.107   3.945  0.5428  0.0371 -0.3059
   68MOL   H36048734   2.336   6.302   4.091  2.0171 -0.8516 -2.1396
   68MOL   H36148735   2.351   6.457   4.009 -0.3109  0.5824  1.0272
   68MOL   C36248736   2.174   5.669   3.764 -0.0104 -0.3041  0.4148
   68MOL   C36348737   2.266   5.622   3.873 -0.4178  0.2687 -0.2340
   68MOL   C36448738   2.198   5.619   4.007 -0.2445  0.0419 -0.3481
   68MOL   C36548739   2.179   5.759   4.056  0.4264  0.4600 -0.4635
   68MOL   C36648740   2.267   5.784   4.179 -0.4668  0.0589  0.3114
   68MOL   C36748741   2.266   5.932   4.217  0.0464 -0.4432 -0.2923
   68MOL   C36848742   2.144   5.983   4.299  0.1993 -0.0309 -0.2015
   68MOL   C36948743   2.057   6.090   4.230  0.3359 -0.7621  0.3045
   68MOL   O37048744   2.131   6.203   4.200 -0.6036 -0.5656 -0.7769
   68MOL   C37148745   2.067   6.301   4.121 -0.0496  0.1631 -0.0920
   68MOL   O37248746   1.959   6.281   4.070  0.2901  0.7932  0.3423
   68MOL   C37348747   2.149   6.419   4.082  0.7123 -0.3891 -0.0282
   68MOL   C37448748   2.074   6.520   3.990  0.3512  0.8820 -1.1246
   68MOL   C37548749   2.189   6.502   4.218 -0.4783  0.4345  0.7352
   68MOL   H37648750   2.087   5.605   3.779  0.4734 -0.3939  3.1056
   68MOL   H37748751   2.148   5.775   3.768  2.5408  0.3244  0.7743
   68MOL   H37848752   2.218   5.666   3.665 -0.1662  1.8598  0.2443
   68MOL   H37948753   2.354   5.685   3.881  0.3137 -0.4398 -2.4144
   68MOL   H38048754   2.291   5.517   3.853 -0.3719  0.6181 -2.1349
   68MOL   H38148755   2.257   5.561   4.077  1.0851 -1.8730 -2.9962
   68MOL   H38248756   2.096   5.581   4.010  0.3934 -1.7026 -0.6379
   68MOL   H38348757   2.078   5.768   4.096  1.1274 -0.6276  1.6387
   68MOL   H38448758   2.184   5.840   3.983  0.5123  0.2547 -0.6858
   68MOL   H38548759   2.243   5.719   4.263  0.0954 -0.1348  0.3232
   68MOL   H38648760   2.369   5.749   4.161 -0.0775  0.7039  1.2533
   68MOL   H38748761   2.284   5.997   4.131 -1.1142  0.4499  0.1401
   68MOL   H38848762   2.354   5.950   4.279 -0.8746  0.2421  0.8466
   68MOL   H38948763   2.185   6.032   4.387  0.8153  1.2969 -1.2146
   68MOL   H39048764   2.073   5.907   4.332 -0.1167  0.3935  0.1003
   68MOL   H39148765   2.019   6.043   4.140 -0.1065  0.8088 -0.3504
   68MOL   H39248766   1.980   6.138   4.290  0.3586  0.2742 -0.4714
   68MOL   H39348767   2.023   6.462   3.913 -1.4663  2.3036 -1.0237
   68MOL   H39448768   2.000   6.578   4.045 -0.2190 -2.6432  2.0209
   68MOL   H39548769   2.147   6.577   3.933  0.8569  1.4989  0.1104
   68MOL   H39648770   2.272   6.451   4.266 -0.7239 -0.4761  0.1939
   68MOL   H39748771   2.233   6.594   4.177 -0.1345  0.1846  0.5369
   68MOL   C39848772   2.493   6.966   5.234  0.2228 -0.5995  0.4597
   68MOL   C39948773   2.579   6.948   5.111 -0.2089  0.5388 -0.0705
   68MOL   C40048774   2.517   6.854   5.005 -0.6337  0.6048 -0.2800
   68MOL   C40148775   2.612   6.788   4.901  0.2043 -0.0302  0.0712
   68MOL   C40248776   2.564   6.651   4.841 -0.1408 -0.4691 -0.6569
   68MOL   C40348777   2.435   6.652   4.757 -0.1182 -0.3158 -0.4152
   68MOL   C40448778   2.451   6.715   4.620  0.5566  0.4288 -0.6118
   68MOL   C40548779   2.319   6.746   4.546  0.2568 -0.2513 -0.3894
   68MOL   O40648780   2.253   6.634   4.483  0.1754  0.2948 -0.2958
   68MOL   C40748781   2.139   6.659   4.409 -0.5089  0.2839  0.8940
   68MOL   O40848782   2.086   6.767   4.395  0.4089  0.2251 -0.3947
   68MOL   C40948783   2.082   6.537   4.333  0.1752 -0.0573 -0.3918
   68MOL   C41048784   1.946   6.586   4.284  0.0539  0.0492  0.3347
   68MOL   C41148785   2.068   6.421   4.440  0.6355 -0.5674  0.1508
   68MOL   H41248786   2.463   6.875   5.285 -2.5764 -1.5989 -2.8189
   68MOL   H41348787   2.409   7.029   5.205  1.0412 -0.1432 -0.9373
   68MOL   H41448788   2.548   7.019   5.312 -0.6366  0.9261  0.0628
   68MOL   H41548789   2.671   6.903   5.147 -1.0518  0.9083  2.6648
   68MOL   H41648790   2.603   7.045   5.069  0.9916  0.0586 -0.5120
   68MOL   H41748791   2.468   6.778   5.066  1.8130 -0.1354  0.8153
   68MOL   H41848792   2.427   6.890   4.954 -2.5484 -1.0945  1.7854
   68MOL   H41948793   2.705   6.765   4.951  0.8897  0.7485 -0.8282
   68MOL   H42048794   2.633   6.859   4.821  1.6347 -0.7275 -0.1950
   68MOL   H42148795   2.650   6.605   4.795  2.6110  3.7818 -0.0348
   68MOL   H42248796   2.535   6.588   4.926  0.8497  0.3932  0.3395
   68MOL   H42348797   2.358   6.698   4.819  0.6041 -2.8083  2.4906
   68MOL   H42448798   2.401   6.550   4.740  0.0466 -0.7035  1.5300
   68MOL   H42548799   2.506   6.808   4.633  0.8602  0.0310  1.1201
   68MOL   H42648800   2.515   6.652   4.558 -2.4279 -3.3585 -0.0176
   68MOL   H42748801   2.248   6.774   4.624 -1.9565  0.1537 -2.4851
   68MOL   H42848802   2.331   6.812   4.460 -1.4723  0.8461  0.1908
   68MOL   H42948803   1.884   6.509   4.238 -0.1224 -1.1766  2.5535
   68MOL   H43048804   1.968   6.672   4.220  2.5060 -1.3606 -0.8115
   68MOL   H43148805   1.882   6.630   4.360  1.2494  0.6526  1.0016
   68MOL   H43248806   2.167   6.381   4.460  0.3856 -1.2352  0.0673
   68MOL   H43348807   2.028   6.341   4.379 -1.6794  0.4007  0.3600
   68MOL   C43448808   1.247   7.085   4.421  0.1735  0.1420  0.2413
   68MOL   C43548809   1.282   7.080   4.570 -0.1251 -0.5923 -0.3028
   68MOL   C43648810   1.436   7.094   4.588 -0.5885 -0.2264 -0.1437
   68MOL   C43748811   1.510   6.956   4.602 -0.3014 -0.2195 -0.7368
   68MOL   C43848812   1.658   6.983   4.628  0.5736 -0.5238  0.9921
   68MOL   C43948813   1.731   6.856   4.678  0.0453 -0.1753 -0.2549
   68MOL   C44048814   1.879   6.892   4.687 -0.1025 -0.6559  0.0549
   68MOL   C44148815   1.974   6.779   4.732  0.1008  1.0379  0.2695
   68MOL   O44248816   1.963   6.662   4.646 -0.5040 -0.1201  0.1773
   68MOL   C44348817   2.023   6.537   4.683 -0.2434 -0.6253  0.4352
   68MOL   O44448818   2.102   6.520   4.786  0.2766  0.0646  0.3357
   68MOL   C44548819   1.994   6.421   4.582 -0.1893 -0.3202 -0.7193
   68MOL   C44648820   2.043   6.286   4.648 -0.2810  0.0733  0.4882
   68MOL   C44748821   1.846   6.409   4.552  0.3688  0.0091 -0.6471
   68MOL   H44848822   1.268   7.174   4.361  1.9618 -2.1968 -2.7412
   68MOL   H44948823   1.139   7.078   4.411  0.1959  1.1242 -0.8764
   68MOL   H45048824   1.285   6.993   4.377 -0.1851  0.7837 -1.4791
   68MOL   H45148825   1.250   6.981   4.604 -2.2831  0.9563  2.3307
   68MOL   H45248826   1.221   7.157   4.617 -0.6031 -0.8599 -0.4818
   68MOL   H45348827   1.470   7.150   4.675 -0.9088 -1.3630  0.7294
   68MOL   H45448828   1.471   7.169   4.517  0.6941  0.6300  1.3895
   68MOL   H45548829   1.494   6.909   4.505  1.6114 -2.5194  0.0123
   68MOL   H45648830   1.460   6.891   4.674 -0.4790  1.1358  0.3853
   68MOL   H45748831   1.706   7.026   4.540 -1.2070  0.8482  0.6576
   68MOL   H45848832   1.670   7.061   4.704  0.2472 -1.1550  1.6943
   68MOL   H45948833   1.718   6.766   4.619  1.1096 -0.2057 -0.4503
   68MOL   H46048834   1.693   6.826   4.776  0.1542  0.8480  0.1106
   68MOL   H46148835   1.908   6.915   4.584 -0.5136  1.0340  0.3029
   68MOL   H46248836   1.902   6.976   4.752 -0.4240 -0.3127 -0.2661
   68MOL   H46348837   1.948   6.742   4.831 -0.8150  1.0161  0.0189
   68MOL   H46448838   2.069   6.829   4.712  0.0664  1.0934  0.2432
   68MOL   H46548839   1.989   6.278   4.743 -0.8223  2.6873  0.4475
   68MOL   H46648840   2.022   6.198   4.587 -2.0825  2.2399 -2.1721
   68MOL   H46748841   2.146   6.279   4.682 -0.7271  0.3568  1.9414
   68MOL   H46848842   1.815   6.498   4.497  0.4059  0.1589 -0.4251
   68MOL   H46948843   1.836   6.333   4.475  0.7377 -0.2412 -0.4447
   68MOL   C47048844   1.963   5.269   4.282 -0.9206  0.2295 -0.0015
   68MOL   C47148845   1.937   5.354   4.400  0.4465 -0.4236 -0.4637
   68MOL   C47248846   1.963   5.506   4.376 -0.8917 -0.0339 -0.4505
   68MOL   C47348847   1.870   5.586   4.476  0.4334 -0.8069 -0.3086
   68MOL   C47448848   1.892   5.737   4.461 -1.0615  0.0451  0.0602
   68MOL   C47548849   1.819   5.815   4.565 -0.1122  0.0024  0.0479
   68MOL   C47648850   1.789   5.958   4.521  0.1113  0.6835  0.0149
   68MOL   C47748851   1.688   6.025   4.613  0.3269 -0.0240 -0.5214
   68MOL   O47848852   1.696   6.162   4.589 -0.0590  0.2198  0.3278
   68MOL   C47948853   1.702   6.241   4.691 -0.5054  0.5574  0.3437
   68MOL   O48048854   1.689   6.198   4.808 -0.5935  0.5349  0.0787
   68MOL   C48148855   1.724   6.396   4.650  0.3219  0.2772 -0.0120
   68MOL   C48248856   1.729   6.480   4.780 -0.1328 -0.4756  0.4370
   68MOL   C48348857   1.591   6.440   4.572  0.1513  0.2149 -0.3368
   68MOL   H48448858   1.903   5.178   4.292  0.9792 -1.0860 -0.4750
   68MOL   H48548859   2.070   5.252   4.276 -0.8457  1.2745 -1.7903
   68MOL   H48648860   1.932   5.314   4.188  0.8090  0.9684 -0.2151
   68MOL   H48748861   1.829   5.347   4.415  0.7477 -1.1031  1.4332
   68MOL   H48848862   1.985   5.325   4.493 -0.2357  2.7026  0.9137
   68MOL   H48948863   2.068   5.534   4.387 -0.8350  0.1150 -1.3657
   68MOL   H49048864   1.940   5.527   4.272 -0.7758  2.1897 -0.0431
   68MOL   H49148865   1.765   5.563   4.459  0.3213 -0.6294  0.1509
   68MOL   H49248866   1.890   5.564   4.581 -2.9816 -0.1166  0.5331
   68MOL   H49348867   2.001   5.733   4.462 -1.0596 -0.8276 -1.2865
   68MOL   H49448868   1.866   5.770   4.360 -0.3787  3.1390  0.8434
   68MOL   H49548869   1.728   5.756   4.579 -0.4042  0.1905 -0.9961
   68MOL   H49648870   1.881   5.812   4.655 -0.9517 -0.7975  0.6066
   68MOL   H49748871   1.877   6.022   4.522  1.3499 -0.9693 -0.5320
   68MOL   H49848872   1.751   5.952   4.419 -0.8847  0.2315  0.4054
   68MOL   H49948873   1.715   5.996   4.715  1.2910  0.6481 -0.5827
   68MOL   H50048874   1.583   5.995   4.617  0.3637 -0.0529  0.2933
   68MOL   H50148875   1.650   6.457   4.853 -0.2712  2.6903  1.3946
   68MOL   H50248876   1.723   6.586   4.756  0.1595 -0.4282  0.5799
   68MOL   H50348877   1.822   6.468   4.836  0.9707  0.1226 -1.2445
   68MOL   H50448878   1.596   6.548   4.579  2.9705  0.1335 -0.5909
   68MOL   H50548879   1.591   6.423   4.464  1.1030  0.8725 -0.4475
   68MOL   C50648880   1.736   5.613   4.072  0.3719  0.2542 -0.1183
   68MOL   C50748881   1.665   5.728   3.998  0.0770 -0.0040  0.0100
   68MOL   C50848882   1.687   5.862   4.062 -0.2393 -0.8654 -0.3667
   68MOL   C50948883   1.594   5.970   4.001  0.5592  0.3629 -0.3930
   68MOL   C51048884   1.620   6.102   4.070  0.1702  0.7797  0.5429
   68MOL   C51148885   1.572   6.117   4.212 -0.6106 -0.1159 -0.1002
   68MOL   C51248886   1.419   6.109   4.225  0.6087  0.4294 -0.8434
   68MOL   C51348887   1.382   6.107   4.375 -0.3471 -0.2045  0.1529
   68MOL   O51448888   1.417   6.233   4.434 -0.0485  0.4380 -0.9656
   68MOL   C51548889   1.399   6.253   4.563  0.1633  0.2483  0.7901
   68MOL   O51648890   1.348   6.169   4.636  0.2861 -0.0174 -0.4160
   68MOL   C51748891   1.443   6.395   4.606 -0.2395  0.1898  0.3569
   68MOL   C51848892   1.412   6.407   4.754  0.0867 -0.3030 -0.0905
   68MOL   C51948893   1.352   6.505   4.523 -0.3910 -0.4708  0.7815
   68MOL   H52048894   1.842   5.634   4.085 -0.2161  2.5701  1.1707
   68MOL   H52148895   1.733   5.515   4.024  0.1347 -0.7583  1.9108
   68MOL   H52248896   1.694   5.600   4.171 -3.0562  1.6839 -1.3218
   68MOL   H52348897   1.560   5.706   3.979 -0.6230  3.7864 -0.9220
   68MOL   H52448898   1.704   5.743   3.896 -0.7882 -2.3127 -0.6744
   68MOL   H52548899   1.670   5.851   4.169 -0.3267  0.8458 -0.1872
   68MOL   H52648900   1.793   5.885   4.050 -0.2424 -0.4567  0.3146
   68MOL   H52748901   1.618   5.990   3.897 -2.2961  1.6444 -0.8708
   68MOL   H52848902   1.491   5.937   4.017  0.5821  0.4172 -0.1194
   68MOL   H52948903   1.723   6.133   4.053  0.1285 -0.2952 -1.9903
   68MOL   H53048904   1.578   6.175   4.000  1.5577  2.4269  1.3808
   68MOL   H53148905   1.617   6.202   4.265 -1.3291 -0.2732  0.7853
   68MOL   H53248906   1.608   6.033   4.271  1.6218  0.2972 -0.8500
   68MOL   H53348907   1.367   6.024   4.178 -1.7610  1.6672 -0.5549
   68MOL   H53448908   1.376   6.197   4.177 -0.9876  0.6075  0.8595
   68MOL   H53548909   1.431   6.026   4.429 -1.9164 -3.7357 -3.4217
   68MOL   H53648910   1.274   6.095   4.384 -0.5222 -0.3062 -1.8643
   68MOL   H53748911   1.463   6.500   4.779 -2.5602  0.7357  1.6147
   68MOL   H53848912   1.452   6.327   4.817  0.8797 -0.2236 -0.4921
   68MOL   H53948913   1.306   6.397   4.777  0.0445 -1.0808 -0.5990
   68MOL   H54048914   1.381   6.601   4.565 -0.8427  0.2828 -0.6139
   68MOL   H54148915   1.386   6.518   4.420 -0.1543  3.5164  1.2940
   68MOL   C54248916   0.982   6.848   5.598  0.1380  0.1500  0.1616
   68MOL   C54348917   1.082   6.889   5.492  0.1700  1.0162  0.1036
   68MOL   C54448918   1.075   6.817   5.364 -0.1352 -0.7990 -0.1910
   68MOL   C54548919   1.178   6.861   5.253  0.3523  0.2959 -0.1485
   68MOL   C54648920   1.184   6.768   5.132 -0.6583  0.2818 -0.0273
   68MOL   C54748921   1.292   6.801   5.030  0.7878 -0.3275 -0.3573
   68MOL   C54848922   1.284   6.713   4.903  0.5354  0.1457 -0.2435
   68MOL   C54948923   1.166   6.731   4.819 -0.2347 -0.5078  0.9247
   68MOL   O55048924   1.195   6.670   4.692  0.5768 -0.5276 -0.2125
   68MOL   C55148925   1.140   6.559   4.648 -0.2156  0.8047  0.6262
   68MOL   O55248926   1.055   6.494   4.710  0.0454  0.0484 -1.2120
   68MOL   C55348927   1.192   6.509   4.509 -0.4044  0.6812  0.3730
   68MOL   C55448928   1.128   6.370   4.472 -0.3911  0.0238  0.1149
   68MOL   C55548929   1.163   6.632   4.410  1.1351 -0.1535 -1.0382
   68MOL   H55648930   0.887   6.848   5.544  0.8853 -0.8654 -1.1772
   68MOL   H55748931   0.984   6.915   5.684 -1.3902 -1.3762  1.4263
   68MOL   H55848932   0.992   6.751   5.646 -2.1354 -0.1726  0.0339
   68MOL   H55948933   1.081   6.993   5.461 -2.3005  0.7132 -0.9724
   68MOL   H56048934   1.179   6.875   5.539  2.0188  0.5495 -3.6997
   68MOL   H56148935   0.985   6.827   5.302  1.5421  1.5722 -2.3424
   68MOL   H56248936   1.085   6.711   5.385  0.0382 -0.6373  0.5656
   68MOL   H56348937   1.168   6.965   5.224  1.5864  0.9619  1.7056
   68MOL   H56448938   1.280   6.860   5.292  0.5916  0.9300 -0.7438
   68MOL   H56548939   1.086   6.768   5.082 -0.2569 -2.4283 -0.9187
   68MOL   H56648940   1.203   6.663   5.152 -1.4233  0.1486  0.0516
   68MOL   H56748941   1.276   6.907   5.012  1.3192 -0.4206 -1.3776
   68MOL   H56848942   1.385   6.783   5.085 -0.6980 -2.0607  1.6464
   68MOL   H56948943   1.374   6.731   4.843  0.7781  1.5379  0.4986
   68MOL   H57048944   1.286   6.609   4.936 -0.0747  0.4131  0.6550
   68MOL   H57148945   1.155   6.839   4.809  0.2306 -0.7378 -2.3620
   68MOL   H57248946   1.072   6.688   4.852 -0.2217  0.2535  1.9944
   68MOL   H57348947   1.023   6.389   4.451 -0.1475  0.8920 -0.3321
   68MOL   H57448948   1.132   6.300   4.555  1.8951  0.7737  0.6924
   68MOL   H57548949   1.174   6.332   4.380 -1.2730 -0.9856  0.0893
   68MOL   H57648950   1.237   6.633   4.329  1.0043  1.6987 -1.1534
   68MOL   H57748951   1.181   6.728   4.458  0.0216  0.8404 -2.5503
   68MOL   C57848952   0.840   6.359   3.331  0.1101 -0.0549 -0.6073
   68MOL   C57948953   0.912   6.313   3.462  0.9715 -0.1331 -0.3677
   68MOL   C58048954   1.059   6.358   3.477 -0.3812  0.6069 -0.9734
   68MOL   C58148955   1.129   6.298   3.596  0.6333 -0.6889 -0.1669
   68MOL   C58248956   1.143   6.391   3.718  0.0670 -0.9422 -0.0298
   68MOL   C58348957   1.192   6.314   3.836 -0.1913  0.3970 -0.2222
   68MOL   C58448958   1.204   6.395   3.971  1.0165  0.2642 -0.0132
   68MOL   C58548959   1.072   6.427   4.038  0.1301  0.3888  0.3348
   68MOL   O58648960   1.087   6.526   4.138  0.2060  0.3324  0.5174
   68MOL   C58748961   0.995   6.534   4.235  0.3235 -0.8782  0.4101
   68MOL   O58848962   0.892   6.467   4.248  0.4677 -0.3060 -0.2182
   68MOL   C58948963   1.028   6.655   4.336 -0.0457 -0.4854 -0.4681
   68MOL   C59048964   1.051   6.786   4.251 -0.1282 -0.4827 -0.7027
   68MOL   C59148965   0.910   6.677   4.446  0.9319 -0.2166 -0.7038
   68MOL   H59248966   0.914   6.343   3.253 -1.3157  0.9037 -2.1656
   68MOL   H59348967   0.808   6.462   3.317 -2.5484 -0.6540  0.7030
   68MOL   H59448968   0.751   6.303   3.304  0.3294 -1.7250  1.8772
   68MOL   H59548969   0.907   6.205   3.474  0.1725 -0.1067 -0.4261
   68MOL   H59648970   0.857   6.356   3.546  0.0790  0.1861 -1.1154
   68MOL   H59748971   1.062   6.464   3.503  2.2550  0.2175  0.5214
   68MOL   H59848972   1.118   6.356   3.386  1.4014 -0.6167  0.1776
   68MOL   H59948973   1.232   6.285   3.563  0.5397 -1.2002 -0.2525
   68MOL   H60048974   1.091   6.197   3.611  0.0104 -0.7816 -2.2817
   68MOL   H60148975   1.039   6.415   3.739  0.0067 -2.1660  1.1850
   68MOL   H60248976   1.194   6.482   3.688 -0.7258 -0.4775  0.0351
   68MOL   H60348977   1.290   6.277   3.809  0.6981  2.9124 -0.5723
   68MOL   H60448978   1.128   6.227   3.855  1.2192 -0.3041  1.4919
   68MOL   H60548979   1.246   6.489   3.936  0.1974  0.9544  0.8315
   68MOL   H60648980   1.274   6.354   4.044 -0.1255 -1.9892 -0.1379
   68MOL   H60748981   0.992   6.450   3.968  1.2838  1.1354 -0.7565
   68MOL   H60848982   1.032   6.341   4.092  0.0617 -0.4742 -1.0527
   68MOL   H60948983   1.103   6.864   4.306  2.4788 -0.3671 -3.2301
   68MOL   H61048984   1.131   6.767   4.180  1.1132  0.0232  0.5605
   68MOL   H61148985   0.970   6.840   4.201 -0.1708 -0.4338 -0.5808
   68MOL   H61248986   0.954   6.717   4.537  0.0862 -1.2660  0.1866
   68MOL   H61348987   0.879   6.577   4.477  0.4279  1.1103  3.3792
   68MOL   C61448988   0.665   7.020   5.332 -0.1624 -0.2093  0.2831
   68MOL   C61548989   0.697   7.023   5.179 -0.5063 -0.4960 -0.1959
   68MOL   C61648990   0.757   6.894   5.114  0.2014 -0.3324  0.2077
   68MOL   C61748991   0.783   6.923   4.966  0.1919  1.1860  0.6699
   68MOL   C61848992   0.878   7.040   4.944 -0.3667 -0.6177  0.2506
   68MOL   C61948993   0.927   7.051   4.798  0.6226 -0.5357  0.0994
   68MOL   C62048994   0.811   7.089   4.704 -0.4175  0.7371 -0.6319
   68MOL   C62148995   0.841   7.094   4.549 -1.2847 -0.2156 -0.3758
   68MOL   O62248996   0.870   6.962   4.516  0.2171 -0.0730  0.1655
   68MOL   C62348997   0.811   6.918   4.408 -0.0496  1.3576 -0.1181
   68MOL   O62448998   0.786   6.985   4.308 -0.1096 -0.0726  0.0154
   68MOL   C62548999   0.775   6.759   4.421 -0.6868 -0.0119 -0.5583
   68MOL   C62649000   0.711   6.715   4.289  0.3512 -0.4123  0.3644
   68MOL   C62749001   0.688   6.741   4.546  0.1003  0.5294  0.1623
   68MOL   H62849002   0.751   6.983   5.387 -0.2572 -0.6468  0.1420
   68MOL   H62949003   0.584   6.948   5.345 -0.2551 -0.1081  0.2637
   68MOL   H63049004   0.646   7.120   5.369 -0.4723  0.5313 -1.8342
   68MOL   H63149005   0.619   7.060   5.112  1.0684 -0.3275 -1.9803
   68MOL   H63249006   0.769   7.105   5.175  0.6093 -1.3283  2.2281
   68MOL   H63349007   0.687   6.812   5.131  0.8080 -1.3456 -1.9649
   68MOL   H63449008   0.856   6.872   5.153  0.9582  0.0195 -1.4616
   68MOL   H63549009   0.689   6.944   4.916  0.0675  0.6253  0.6706
   68MOL   H63649010   0.829   6.846   4.904 -1.6045 -0.2509  1.1208
   68MOL   H63749011   0.838   7.138   4.971  1.0776 -0.1383  0.7287
   68MOL   H63849012   0.976   7.026   4.991 -0.2535 -0.3765  0.0866
   68MOL   H63949013   1.018   7.109   4.791  2.0905 -2.6927  0.9578
   68MOL   H64049014   0.967   6.955   4.765  2.6831  0.5013 -0.5015
   68MOL   H64149015   0.770   7.186   4.732  0.5906  1.0092 -0.0668
   68MOL   H64249016   0.723   7.027   4.717 -1.2231  1.9612 -0.2182
   68MOL   H64349017   0.755   7.143   4.502 -0.0902  2.5989  0.2842
   68MOL   H64449018   0.927   7.156   4.528 -0.3760 -0.8354  1.4657
   68MOL   H64549019   0.623   6.770   4.257  0.0656 -0.4040  1.1463
   68MOL   H64649020   0.676   6.612   4.297 -2.1315  0.3780 -0.0224
   68MOL   H64749021   0.779   6.713   4.204  0.4771 -1.1550  0.4785
   68MOL   H64849022   0.745   6.799   4.617  4.1111 -0.3507 -2.1375
   68MOL   H64949023   0.715   6.649   4.598 -1.1388 -0.4347 -0.8723
   68MOL   C65049024   1.083   5.902   4.771  0.5877  0.4808  0.2109
   68MOL   C65149025   1.036   6.033   4.707  0.2468  0.3730  0.1837
   68MOL   C65249026   0.884   6.040   4.684 -0.3287 -0.7671  0.2396
   68MOL   C65349027   0.827   6.159   4.604 -0.1392 -0.5973 -0.3516
   68MOL   C65449028   0.674   6.158   4.595  0.8927 -0.9063 -0.2560
   68MOL   C65549029   0.624   6.295   4.553  0.1283 -0.2605 -0.3153
   68MOL   C65649030   0.475   6.285   4.533  0.3752  0.4986 -0.0354
   68MOL   C65749031   0.411   6.413   4.474 -0.4668  0.0636 -0.1516
   68MOL   O65849032   0.476   6.532   4.532  0.2417  0.4330  0.4459
   68MOL   C65949033   0.460   6.653   4.481 -0.2512  0.0598  0.0118
   68MOL   O66049034   0.404   6.670   4.376  0.3071  0.0148 -0.2855
   68MOL   C66149035   0.535   6.763   4.554 -0.6971  0.5493 -0.4453
   68MOL   C66249036   0.501   6.896   4.485  0.2904  0.3803 -0.1309
   68MOL   C66349037   0.492   6.766   4.708 -0.5501 -0.3225  0.6214
   68MOL   H66449038   1.041   5.816   4.719  1.3519 -0.0222  0.4111
   68MOL   H66549039   1.055   5.897   4.877 -2.0910  1.9783 -0.3731
   68MOL   H66649040   1.192   5.910   4.772  0.6491 -0.1462 -0.6385
   68MOL   H66749041   1.086   6.054   4.612  2.9411  1.5406  1.8023
   68MOL   H66849042   1.070   6.097   4.788  3.5769 -0.1850 -0.6899
   68MOL   H66949043   0.834   6.026   4.780 -0.0163  1.5833  0.7810
   68MOL   H67049044   0.857   5.953   4.625  2.5425 -2.0073  0.6965
   68MOL   H67149045   0.848   6.149   4.497 -0.8553 -0.2250 -0.5320
   68MOL   H67249046   0.856   6.257   4.643 -1.5208  0.6540 -2.3513
   68MOL   H67349047   0.634   6.149   4.696  0.5955  2.7000 -0.0060
   68MOL   H67449048   0.633   6.067   4.550 -0.9355 -1.3263  2.1446
   68MOL   H67549049   0.655   6.365   4.631  2.7360  0.2316 -1.7322
   68MOL   H67649050   0.679   6.342   4.471 -2.1427  3.0460 -0.0289
   68MOL   H67749051   0.429   6.256   4.627 -1.5372 -0.8644 -1.3693
   68MOL   H67849052   0.455   6.208   4.459 -1.1197  0.9386 -0.1020
   68MOL   H67949053   0.306   6.422   4.502  0.2813  1.5597  2.3979
   68MOL   H68049054   0.424   6.414   4.366 -0.6508  3.4710 -0.2168
   68MOL   H68149055   0.392   6.901   4.486  0.2469 -0.5290  1.7628
   68MOL   H68249056   0.536   6.904   4.382 -0.3992 -1.4699 -0.5244
   68MOL   H68349057   0.546   6.980   4.538  3.5183 -2.0650  1.1438
   68MOL   H68449058   0.513   6.669   4.755  1.4157 -1.0670 -1.6725
   68MOL   H68549059   0.571   6.824   4.756 -1.0775  0.5674  0.4137
   68MOL   C68649060   0.040   0.038   4.508 -0.4651  0.6380 -0.3171
   68MOL   C68749061   7.767   7.777   4.642 -0.4020 -0.1360 -0.1789
   68MOL   C68849062   0.009   7.625   4.658 -0.2301 -0.2245 -0.2618
   68MOL   C68949063   0.125   7.580   4.752 -0.4217  0.5537 -0.0205
   68MOL   C69049064   0.151   7.429   4.746  0.0368  0.1223 -0.6375
   68MOL   C69149065   0.283   7.396   4.820 -0.0437 -0.3195  0.4102
   68MOL   C69249066   0.306   7.243   4.837  0.6791 -0.0357  0.1699
   68MOL   C69349067   0.378   7.177   4.719  0.0994 -0.6779 -0.1321
   68MOL   O69449068   0.396   7.039   4.751 -0.4523 -0.0128 -0.4740
   68MOL   C69549069   0.305   6.947   4.725  0.9330 -0.6076 -0.1261
   68MOL   O69649070   0.193   6.972   4.676 -0.3991 -0.6151  0.7414
   68MOL   C69749071   0.343   6.801   4.756 -0.5508 -0.2811  0.0744
   68MOL   C69849072   0.340   6.787   4.914 -0.7031 -0.4198 -0.0858
   68MOL   C69949073   0.243   6.702   4.698  0.5839 -0.6694  0.0196
   68MOL   H70049074   0.148   0.036   4.501 -0.4940  0.8563 -0.8565
   68MOL   H70149075   0.014   0.144   4.499 -0.8263  0.6079  0.3372
   68MOL   H70249076   7.764   7.765   4.430 -2.2153 -0.9552  1.9441
   68MOL   H70349077   7.660   0.008   4.655 -0.4277 -0.7191  0.1351
   68MOL   H70449078   0.033   0.059   4.720 -0.7355  2.3168 -1.8477
   68MOL   H70549079   0.010   7.578   4.560 -0.6687 -0.7280 -0.0272
   68MOL   H70649080   7.704   7.579   4.710 -0.6162 -1.0377 -1.6024
   68MOL   H70749081   0.103   7.611   4.854  2.3325  1.9499  0.2274
   68MOL   H70849082   0.217   7.634   4.726 -0.5440  0.3871 -0.8128
   68MOL   H70949083   0.160   7.403   4.641 -1.4159  0.3794 -0.8354
   68MOL   H71049084   0.062   7.378   4.782 -0.4404  2.8538  2.3438
   68MOL   H71149085   0.364   7.438   4.760 -0.5894 -0.1294 -0.1979
   68MOL   H71249086   0.268   7.437   4.920 -2.1002 -0.9599  0.3882
   68MOL   H71349087   0.361   7.223   4.928 -0.2991 -1.8293  0.3879
   68MOL   H71449088   0.206   7.200   4.846  0.6856 -0.1429 -0.2466
   68MOL   H71549089   0.468   7.229   4.687  0.6244  0.3029  2.8007
   68MOL   H71649090   0.315   7.176   4.630  0.6559  0.7449 -0.5500
   68MOL   H71749091   0.411   6.855   4.960 -1.1648 -0.2991  0.4548
   68MOL   H71849092   0.244   6.819   4.955  0.1914  0.1142  1.6628
   68MOL   H71949093   0.363   6.682   4.934 -1.8737 -0.5766  0.4946
   68MOL   H72049094   0.238   6.695   4.589  0.2178 -0.7939  0.0449
   68MOL   H72149095   0.142   6.720   4.735  0.8389 -1.9026  1.3500
   68MOL   H72249096   0.264   6.601   4.732 -0.2076 -1.2869 -1.2979
   69MOL     C149097   5.433   3.685   6.751 -0.5872 -0.0603  0.3461
   69MOL     C249098   5.553   3.604   6.712 -0.2494  0.6186  0.3925
   69MOL     C349099   5.562   3.476   6.791 -0.4278  0.7877 -0.9904
   69MOL     C449100   5.459   3.365   6.749 -0.7344 -0.7015 -0.3810
   69MOL     C549101   5.464   3.317   6.600 -0.2278 -0.0547  0.2084
   69MOL     C649102   5.603   3.258   6.549  0.5118 -0.9674  0.0365
   69MOL     C749103   5.637   3.119   6.610  0.1996  0.4947 -0.2941
   69MOL     C849104   5.783   3.084   6.606 -0.1991 -1.2366 -0.1225
   69MOL     O949105   5.863   3.167   6.690 -0.1315 -0.0157 -0.7949
   69MOL    C1049106   5.995   3.186   6.654  0.9190 -0.4116 -0.5115
   69MOL    O1149107   6.053   3.146   6.555 -0.4037  0.1348  0.2169
   69MOL    C1249108   6.061   3.254   6.775  0.2091 -0.0700 -0.0743
   69MOL    C1349109   6.127   3.148   6.863 -0.2074 -0.2443 -0.3920
   69MOL    C1449110   6.165   3.367   6.737  0.9168 -0.0042 -0.3249
   69MOL    H1549111   5.426   3.696   6.859 -0.3061  1.4799  0.2161
   69MOL    H1649112   5.340   3.646   6.709  0.2073 -2.1329  0.4169
   69MOL    H1749113   5.447   3.787   6.715 -2.5306 -1.0027 -3.2650
   69MOL    H1849114   5.642   3.664   6.727  0.6702 -0.5351 -0.3613
   69MOL    H1949115   5.561   3.582   6.605  1.7012  0.1940  0.6010
   69MOL    H2049116   5.661   3.434   6.775  0.1458  1.4139  0.8423
   69MOL    H2149117   5.549   3.491   6.898 -0.2532 -0.2339 -0.8148
   69MOL    H2249118   5.460   3.284   6.822 -0.8348  0.0406  0.4420
   69MOL    H2349119   5.356   3.391   6.775 -0.1941 -1.2542  2.4947
   69MOL    H2449120   5.433   3.395   6.530 -1.2874 -0.8532 -0.2283
   69MOL    H2549121   5.387   3.246   6.569 -0.2658  0.2455 -0.3866
   69MOL    H2649122   5.684   3.326   6.576  2.3572 -2.7423 -0.9285
   69MOL    H2749123   5.579   3.250   6.443 -2.2858  0.4377  0.5167
   69MOL    H2849124   5.590   3.041   6.551  1.1443  0.2967 -0.7847
   69MOL    H2949125   5.612   3.117   6.716  0.1076 -0.0534 -0.3259
   69MOL    H3049126   5.815   3.089   6.502 -1.9940 -0.4410 -0.6629
   69MOL    H3149127   5.797   2.987   6.654  2.1079 -0.8315  0.1034
   69MOL    H3249128   6.189   3.185   6.945 -0.3468 -1.5345  0.3088
   69MOL    H3349129   6.052   3.077   6.897  0.1950 -1.3050 -1.6908
   69MOL    H3449130   6.204   3.098   6.803 -0.3815 -0.3181 -0.5517
   69MOL    H3549131   6.238   3.335   6.663  0.3955 -0.7736 -0.5116
   69MOL    H3649132   6.233   3.390   6.819  1.3137  1.7885 -1.1332
   69MOL    H3749133   5.978   3.298   6.829  0.6999 -0.1892  0.7871
   69MOL    C3849134   6.223   4.478   7.017 -0.3716 -0.2510 -0.1029
   69MOL    C3949135   6.166   4.353   6.953  0.6300  0.6797  0.3345
   69MOL    C4049136   6.192   4.218   7.021  0.4339 -0.1361  0.3087
   69MOL    C4149137   6.144   4.095   6.946  0.1685 -0.0905  0.2250
   69MOL    C4249138   6.153   3.980   7.046 -0.2966 -0.0647  0.7221
   69MOL    C4349139   6.101   3.850   6.994 -0.1686  0.1873  0.3890
   69MOL    C4449140   6.076   3.741   7.094 -0.2798  0.0420 -0.4298
   69MOL    C4549141   6.009   3.620   7.034  0.1183  0.1339  0.2883
   69MOL    O4649142   6.079   3.569   6.923  0.0361 -0.1093  0.1108
   69MOL    C4749143   6.009   3.557   6.805 -0.0058 -0.4872  0.3650
   69MOL    O4849144   5.890   3.582   6.783 -0.0250 -0.3558 -0.3670
   69MOL    C4949145   6.100   3.507   6.691 -0.0437  0.1036 -0.0605
   69MOL    C5049146   6.016   3.498   6.563  0.3789  0.2890 -0.4822
   69MOL    C5149147   6.209   3.616   6.666  0.2453 -0.7712 -0.9454
   69MOL    H5249148   6.332   4.482   7.020 -0.2805 -1.6129 -1.1129
   69MOL    H5349149   6.187   4.507   7.115  0.0013  1.3286 -0.4129
   69MOL    H5449150   6.205   4.566   6.954  0.2336 -0.8131 -1.0766
   69MOL    H5549151   6.215   4.348   6.856  0.7997  0.3795  0.4340
   69MOL    H5649152   6.057   4.358   6.951  0.5266 -1.2906 -0.7987
   69MOL    H5749153   6.298   4.217   7.044  0.2446 -0.6516  1.1839
   69MOL    H5849154   6.158   4.225   7.125  1.6052 -0.0509  0.6988
   69MOL    H5949155   6.184   4.092   6.845  1.7864  0.3020  0.8428
   69MOL    H6049156   6.038   4.114   6.930  0.1039 -0.0249  0.7329
   69MOL    H6149157   6.253   3.974   7.090  0.2214 -0.6283 -0.5124
   69MOL    H6249158   6.093   4.016   7.130  2.8167 -2.4995  4.1583
   69MOL    H6349159   6.013   3.867   6.933  1.0404  2.9687 -0.6487
   69MOL    H6449160   6.188   3.819   6.936 -2.5822  1.3765 -4.0400
   69MOL    H6549161   6.019   3.782   7.178 -0.7988  2.5119 -1.9321
   69MOL    H6649162   6.160   3.710   7.157  0.3536  1.3552 -0.5958
   69MOL    H6749163   5.902   3.634   7.022  0.1978  1.1890  0.6835
   69MOL    H6849164   6.010   3.546   7.114 -1.0415 -0.7203 -0.4795
   69MOL    H6949165   5.917   3.455   6.579  1.1763 -0.0558  4.3149
   69MOL    H7049166   6.009   3.597   6.519 -0.5905  0.5144  0.1766
   69MOL    H7149167   6.055   3.427   6.490  1.0735  0.7725 -0.5821
   69MOL    H7249168   6.249   3.664   6.756 -1.3692  2.9239 -2.0776
   69MOL    H7349169   6.163   3.704   6.620  0.0626 -0.9440 -1.0895
   69MOL    C7449170   6.076   3.380   7.597  0.2466  0.7975 -0.2414
   69MOL    C7549171   6.085   3.415   7.450 -0.4569 -0.2377  0.0296
   69MOL    C7649172   6.209   3.345   7.393  0.0702 -0.3756 -0.0251
   69MOL    C7749173   6.248   3.414   7.263 -0.0200 -0.6550 -0.1523
   69MOL    C7849174   6.367   3.356   7.196 -0.1026 -0.7967  1.1217
   69MOL    C7949175   6.406   3.435   7.067 -0.2164 -0.4458  0.1036
   69MOL    C8049176   6.493   3.358   6.960  0.2048  0.4040 -0.0664
   69MOL    C8149177   6.552   3.443   6.844  0.4833  0.0983 -0.4059
   69MOL    O8249178   6.465   3.522   6.770 -0.0486  0.0152 -0.6700
   69MOL    C8349179   6.427   3.498   6.645  0.0338  0.0373  1.6466
   69MOL    O8449180   6.474   3.401   6.585  0.0389 -0.0131 -0.0290
   69MOL    C8549181   6.334   3.597   6.582 -0.0909 -0.4237  0.0669
   69MOL    C8649182   6.294   3.540   6.440  0.1670 -0.2309 -0.0552
   69MOL    C8749183   6.411   3.734   6.570 -0.2699  0.3086  0.5330
   69MOL    H8849184   6.161   3.416   7.655 -2.1461  1.9713  2.6961
   69MOL    H8949185   6.072   3.271   7.602 -2.2167  0.8451 -0.6160
   69MOL    H9049186   5.995   3.432   7.647 -0.5562  0.8894 -1.6154
   69MOL    H9149187   6.076   3.522   7.429 -3.3144 -0.4500 -0.0213
   69MOL    H9249188   5.996   3.368   7.408  0.4711 -1.5428 -0.5102
   69MOL    H9349189   6.300   3.357   7.452 -0.0916  1.4666 -0.1079
   69MOL    H9449190   6.200   3.237   7.387  0.8966 -0.5414  1.5062
   69MOL    H9549191   6.267   3.519   7.288 -1.5041 -0.6631  1.0705
   69MOL    H9649192   6.174   3.418   7.184  0.7778  0.1193 -0.8764
   69MOL    H9749193   6.450   3.349   7.267  0.6239  1.1478  0.4825
   69MOL    H9849194   6.338   3.254   7.170 -1.3759 -0.0530 -0.4171
   69MOL    H9949195   6.313   3.454   7.012 -1.0214 -2.1034  0.8634
   69MOL   H10049196   6.457   3.530   7.082  1.3076 -1.5086  1.8513
   69MOL   H10149197   6.579   3.317   7.013  0.4243 -1.6101 -1.9271
   69MOL   H10249198   6.458   3.263   6.920  2.4039 -0.5288  0.1621
   69MOL   H10349199   6.612   3.369   6.790 -1.8067 -2.7952  0.8293
   69MOL   H10449200   6.623   3.516   6.882  1.2971  0.9065 -3.3576
   69MOL   H10549201   6.376   3.541   6.369 -0.4873 -1.5926 -0.8405
   69MOL   H10649202   6.208   3.595   6.404  0.7439  1.3574  0.9266
   69MOL   H10749203   6.264   3.435   6.435  0.8636 -0.3856 -1.1684
   69MOL   H10849204   6.339   3.815   6.580 -0.3096  0.2084  1.0918
   69MOL   H10949205   6.458   3.748   6.668 -3.0530 -0.2333  2.0092
   69MOL   C11049206   6.088   3.767   5.540  0.1544  0.3336 -0.9847
   69MOL   C11149207   6.136   3.866   5.650 -0.1601 -0.0206 -0.2725
   69MOL   C11249208   6.264   3.945   5.617  0.7056 -0.2989  0.3305
   69MOL   C11349209   6.299   4.045   5.730  0.5460 -0.1092  0.2873
   69MOL   C11449210   6.316   3.991   5.869 -0.3887 -0.8568 -0.5994
   69MOL   C11549211   6.416   3.878   5.883 -0.5206 -0.4065 -0.4159
   69MOL   C11649212   6.420   3.819   6.024 -0.0678 -0.2373 -0.2527
   69MOL   C11749213   6.481   3.909   6.120 -0.6220  0.4297 -0.1672
   69MOL   O11849214   6.534   3.848   6.235  0.1387  0.1922 -0.0741
   69MOL   C11949215   6.440   3.812   6.332  0.4611  0.3831 -0.3088
   69MOL   O12049216   6.316   3.822   6.321  0.0024 -0.6430 -0.6490
   69MOL   C12149217   6.512   3.777   6.463 -1.4249  1.5070  0.1837
   69MOL   C12249218   6.624   3.674   6.431 -0.4843  0.4190 -0.6130
   69MOL   C12349219   6.594   3.895   6.522  0.0377 -0.3673  0.2229
   69MOL   H12449220   5.995   3.721   5.571  0.3118  1.1859  0.8034
   69MOL   H12549221   6.062   3.822   5.449  0.0095  2.3975  0.2793
   69MOL   H12649222   6.173   3.702   5.519  0.4906  0.5009 -0.1569
   69MOL   H12749223   6.149   3.800   5.735  2.0018 -0.0539 -0.5925
   69MOL   H12849224   6.049   3.930   5.663 -0.4510 -0.7692  1.5594
   69MOL   H12949225   6.240   3.997   5.524  1.7636  1.9587  1.2684
   69MOL   H13049226   6.354   3.883   5.608  1.3506  0.5275  1.0088
   69MOL   H13149227   6.385   4.098   5.689 -0.4621  0.8378 -0.6281
   69MOL   H13249228   6.227   4.126   5.723  1.3706  0.8934  3.0280
   69MOL   H13349229   6.215   3.976   5.905 -1.9308 -1.4673 -4.8348
   69MOL   H13449230   6.342   4.076   5.931 -0.6008 -0.1147 -1.5119
   69MOL   H13549231   6.377   3.808   5.809 -1.1579 -1.2012  0.6661
   69MOL   H13649232   6.509   3.914   5.838 -1.4981  1.2537 -1.1775
   69MOL   H13749233   6.486   3.733   6.014 -2.5016 -2.3568  1.1186
   69MOL   H13849234   6.327   3.773   6.059 -0.6704  1.8833  1.0251
   69MOL   H13949235   6.563   3.953   6.063  0.1477 -2.0566 -1.0920
   69MOL   H14049236   6.400   3.975   6.151 -0.4567  0.3199  0.5028
   69MOL   H14149237   6.707   3.722   6.378 -0.7819  0.4958 -1.0164
   69MOL   H14249238   6.667   3.615   6.511 -0.8818 -0.5604 -1.1056
   69MOL   H14349239   6.596   3.598   6.357 -0.0361 -1.7121  1.3651
   69MOL   H14449240   6.660   3.927   6.442  0.6754  0.4087  1.0359
   69MOL   H14549241   6.660   3.854   6.599  1.5516 -1.7380 -1.7824
   69MOL   C14649242   5.750   3.983   7.070 -0.0285 -0.7275 -0.0649
   69MOL   C14749243   5.657   4.037   6.965  0.0172  0.3309 -0.2860
   69MOL   C14849244   5.678   3.984   6.820  0.3212 -0.5304 -0.4278
   69MOL   C14949245   5.803   4.033   6.756  0.1718  0.0169 -0.0080
   69MOL   C15049246   5.822   3.972   6.615  0.1644  0.5198 -0.1320
   69MOL   C15149247   5.935   4.031   6.519  0.2081 -0.0483 -0.4254
   69MOL   C15249248   6.072   4.004   6.553  0.5269  0.4368 -0.3202
   69MOL   C15349249   6.174   4.117   6.517 -0.1955  0.7519 -0.3546
   69MOL   O15449250   6.299   4.075   6.560  0.2993  0.6863  0.0108
   69MOL   C15549251   6.414   4.085   6.495 -0.4937 -0.5448  0.1575
   69MOL   O15649252   6.436   4.139   6.387  0.1068  0.3755 -0.3109
   69MOL   C15749253   6.539   4.034   6.574  1.3591 -0.1057 -0.1596
   69MOL   C15849254   6.498   4.003   6.722 -0.2731 -0.0717  0.2801
   69MOL   C15949255   6.649   4.142   6.568  0.9540 -0.4304  0.2109
   69MOL   H16049256   5.720   3.989   7.175  3.4399 -0.5485  0.9583
   69MOL   H16149257   5.843   4.039   7.062 -1.1273  1.1623 -0.0558
   69MOL   H16249258   5.771   3.877   7.055 -0.9627 -1.1003  1.1735
   69MOL   H16349259   5.560   4.005   7.004  1.1945 -1.0064  1.6776
   69MOL   H16449260   5.651   4.146   6.968  0.5927  0.3516  0.5029
   69MOL   H16549261   5.594   4.011   6.755  1.3063  0.1292 -1.4503
   69MOL   H16649262   5.676   3.877   6.835  0.2303 -0.5056 -0.2592
   69MOL   H16749263   5.802   4.141   6.735 -0.0003 -0.3061 -1.7843
   69MOL   H16849264   5.885   4.009   6.823  1.1660  1.4696 -0.6546
   69MOL   H16949265   5.724   3.981   6.569  0.7838 -0.3338 -1.6539
   69MOL   H17049266   5.834   3.864   6.621  2.4410  0.5928 -2.4757
   69MOL   H17149267   5.918   4.138   6.513 -2.3386 -0.4338 -0.5732
   69MOL   H17249268   5.927   4.002   6.414 -1.8066  2.0222 -0.8825
   69MOL   H17349269   6.076   3.994   6.661  0.0309  0.5160 -0.2897
   69MOL   H17449270   6.101   3.913   6.500  0.7781  0.7971 -0.8073
   69MOL   H17549271   6.169   4.120   6.408 -1.8851  0.5868 -0.3061
   69MOL   H17649272   6.145   4.210   6.566  0.2880  0.3579  0.6896
   69MOL   H17749273   6.482   4.096   6.776  0.9172 -0.1074  0.6983
   69MOL   H17849274   6.577   3.960   6.783  1.0096 -0.6461 -1.7368
   69MOL   H17949275   6.407   3.943   6.730 -1.1139  1.1481 -0.0617
   69MOL   H18049276   6.671   4.168   6.464 -0.8470  1.9708  0.3779
   69MOL   H18149277   6.738   4.092   6.605  1.4420  0.6407  0.5012
   69MOL   C18249278   6.551   3.555   7.518 -0.5741  0.5366 -0.1164
   69MOL   C18349279   6.581   3.699   7.478  0.1335 -0.6100  0.7218
   69MOL   C18449280   6.457   3.782   7.419  0.2501 -0.1646 -0.7141
   69MOL   C18549281   6.486   3.926   7.393  0.4030 -0.6947 -0.5871
   69MOL   C18649282   6.540   3.948   7.252 -0.2569 -1.1186 -0.1745
   69MOL   C18749283   6.551   4.091   7.214 -0.2096 -0.1873 -0.4314
   69MOL   C18849284   6.575   4.115   7.064  0.2207  0.5838  0.6112
   69MOL   C18949285   6.607   4.261   7.024  0.6147 -0.2455 -0.4473
   69MOL   O19049286   6.589   4.289   6.890 -0.0128  0.5181  0.3397
   69MOL   C19149287   6.685   4.251   6.799 -0.0528 -0.0545 -0.2719
   69MOL   O19249288   6.790   4.190   6.837 -0.1785  0.0984 -0.1200
   69MOL   C19349289   6.651   4.279   6.651  0.2006  0.7193 -0.6745
   69MOL   C19449290   6.517   4.357   6.634  0.2507  0.1751  0.2338
   69MOL   C19549291   6.777   4.357   6.597 -0.0168 -0.9215 -0.3101
   69MOL   H19649292   6.465   3.549   7.584 -1.2695  0.2736 -1.0449
   69MOL   H19749293   6.549   3.484   7.435 -0.5439  0.6385 -0.2053
   69MOL   H19849294   6.636   3.528   7.581 -0.7788 -0.2705 -0.1843
   69MOL   H19949295   6.666   3.701   7.410  0.2219  2.3187  0.8440
   69MOL   H20049296   6.615   3.750   7.568 -2.1207  0.5189  0.9781
   69MOL   H20149297   6.421   3.729   7.331  1.3781 -0.9467 -0.7178
   69MOL   H20249298   6.379   3.765   7.494 -1.2008  1.9413 -1.7029
   69MOL   H20349299   6.391   3.977   7.411  0.1439 -1.9369  1.7059
   69MOL   H20449300   6.553   3.963   7.469  1.5204 -2.1627 -0.8326
   69MOL   H20549301   6.465   3.914   7.180 -1.3133 -0.7170  0.7211
   69MOL   H20649302   6.630   3.887   7.240 -0.3554 -1.0807 -1.1494
   69MOL   H20749303   6.624   4.143   7.277  0.2914  1.7768 -2.5875
   69MOL   H20849304   6.458   4.134   7.252  1.3765  0.1104  3.4095
   69MOL   H20949305   6.664   4.059   7.035  1.1390  1.9275  0.7929
   69MOL   H21049306   6.489   4.083   7.004  1.5045 -1.3275 -0.2565
   69MOL   H21149307   6.701   4.302   7.060 -0.1067  0.7256  0.3470
   69MOL   H21249308   6.531   4.323   7.073  1.2351  0.5589 -0.5053
   69MOL   H21349309   6.493   4.445   6.694 -1.1918  2.2731 -3.2653
   69MOL   H21449310   6.513   4.413   6.541  0.3933 -2.4875 -1.4347
   69MOL   H21549311   6.429   4.294   6.627 -0.2368  0.8720  0.1135
   69MOL   H21649312   6.867   4.296   6.607  1.1918  1.2736  2.7809
   69MOL   H21749313   6.775   4.361   6.488  1.9406  0.7220 -0.3158
   69MOL   C21849314   6.679   5.504   6.391  0.4271  0.4694 -0.3328
   69MOL   C21949315   6.784   5.402   6.365 -0.2602  0.0762 -0.4108
   69MOL   C22049316   6.714   5.265   6.353 -0.6960  0.3010 -0.4037
   69MOL   C22149317   6.794   5.157   6.273 -0.0951  0.4932  0.1494
   69MOL   C22249318   6.876   5.053   6.350 -0.2906  0.3120 -0.5039
   69MOL   C22349319   6.789   4.948   6.424  0.5665 -0.1929 -0.4819
   69MOL   C22449320   6.739   4.844   6.318  0.0558 -0.0230  0.0757
   69MOL   C22549321   6.662   4.726   6.366 -0.1450  0.5680  0.4814
   69MOL   O22649322   6.754   4.657   6.448  0.4260 -0.3707  0.6830
   69MOL   C22749323   6.712   4.616   6.567 -0.7655  0.0219 -0.4934
   69MOL   O22849324   6.602   4.653   6.610  0.3493 -0.0669  0.3866
   69MOL   C22949325   6.808   4.512   6.633 -0.1276  0.4405 -0.1645
   69MOL   C23049326   6.955   4.525   6.582  0.6194 -0.4070  0.4527
   69MOL   C23149327   6.815   4.536   6.785 -0.0707  0.6369  0.2407
   69MOL   H23249328   6.628   5.459   6.477  3.2481  0.7583  1.5388
   69MOL   H23349329   6.613   5.515   6.306  0.1292 -0.3334 -0.2130
   69MOL   H23449330   6.718   5.599   6.427 -3.3370  1.6281  1.0092
   69MOL   H23549331   6.862   5.385   6.440 -1.2452 -1.5013  0.2948
   69MOL   H23649332   6.845   5.421   6.277  0.0892 -0.7663 -0.3494
   69MOL   H23749333   6.681   5.226   6.449 -0.5049  0.3600 -0.3150
   69MOL   H23849334   6.624   5.281   6.293 -1.2987  0.7535  0.6043
   69MOL   H23949335   6.731   5.112   6.196  0.0270  0.4858  0.0540
   69MOL   H24049336   6.867   5.213   6.214  0.3425  0.5180  0.7154
   69MOL   H24149337   6.954   5.003   6.293 -1.0681 -1.1867 -0.2652
   69MOL   H24249338   6.931   5.105   6.428  2.0691 -1.2502 -1.0704
   69MOL   H24349339   6.842   4.910   6.512  1.0158  0.1928 -0.5862
   69MOL   H24449340   6.705   4.999   6.472  0.0579 -0.0822 -1.4931
   69MOL   H24549341   6.819   4.808   6.253 -0.0030 -1.5420  0.8204
   69MOL   H24649342   6.663   4.903   6.267  0.5549  3.2127  2.9209
   69MOL   H24749343   6.634   4.651   6.292  0.6734 -0.8105  1.5425
   69MOL   H24849344   6.571   4.771   6.405  0.1849 -0.1513  2.1205
   69MOL   H24949345   6.961   4.485   6.481 -2.2747 -0.5198  0.2646
   69MOL   H25049346   7.031   4.472   6.639  2.1943 -1.5442 -2.6053
   69MOL   H25149347   6.984   4.629   6.576 -0.1163 -0.2867 -1.3919
   69MOL   H25249348   6.713   4.520   6.822 -0.2862  0.0918 -0.5684
   69MOL   H25349349   6.865   4.451   6.832  0.1670  0.0644 -1.0154
   69MOL   C25449350   5.970   5.057   7.404  0.2871 -0.4801  0.1416
   69MOL   C25549351   5.997   4.989   7.267 -0.0294 -0.2988  0.3778
   69MOL   C25649352   6.038   5.084   7.150 -0.9594 -0.2163  0.2274
   69MOL   C25749353   6.087   5.006   7.019 -0.0062 -0.3336 -0.3811
   69MOL   C25849354   6.216   4.924   7.044 -0.3859 -0.0923  0.3275
   69MOL   C25949355   6.302   4.916   6.919 -0.1560 -0.5236  0.4233
   69MOL   C26049356   6.411   4.801   6.905  0.0304  0.0536 -0.4957
   69MOL   C26149357   6.549   4.856   6.852  0.0357  0.0712 -0.3836
   69MOL   O26249358   6.644   4.756   6.886 -0.4688  0.1277  0.3739
   69MOL   C26349359   6.770   4.775   6.856 -0.4097  0.1880  0.7427
   69MOL   O26449360   6.812   4.874   6.797  0.1767  0.4696  0.0619
   69MOL   C26549361   6.862   4.658   6.884 -0.0231  0.5009 -0.1075
   69MOL   C26649362   7.013   4.689   6.862 -0.4945 -0.0334  0.0123
   69MOL   C26749363   6.842   4.599   7.033 -0.5500 -0.4126 -0.2547
   69MOL   H26849364   5.950   4.976   7.475  0.4876 -2.3226 -1.8532
   69MOL   H26949365   6.057   5.114   7.436  0.4414 -0.1244 -0.9000
   69MOL   H27049366   5.888   5.128   7.403  2.0008  1.5223 -1.3801
   69MOL   H27149367   6.083   4.923   7.278  0.0260 -0.5208 -1.2721
   69MOL   H27249368   5.910   4.929   7.240 -0.5254  0.4041  0.4103
   69MOL   H27349369   6.116   5.153   7.184 -0.8005  0.2083 -0.9933
   69MOL   H27449370   5.952   5.147   7.132 -0.6411 -0.8169 -3.9393
   69MOL   H27549371   6.121   5.077   6.943 -2.0607  1.2590  0.1467
   69MOL   H27649372   6.010   4.946   6.970  0.7816 -0.9167 -0.9204
   69MOL   H27749373   6.272   4.976   7.122 -0.6080 -1.7683  1.6293
   69MOL   H27849374   6.195   4.821   7.073 -0.6777  0.6003  2.7078
   69MOL   H27949375   6.342   5.015   6.895 -1.7167  0.6636  2.5686
   69MOL   H28049376   6.220   4.901   6.849 -0.2385 -3.8043  1.1562
   69MOL   H28149377   6.424   4.759   7.004  1.5942 -1.6171 -1.3755
   69MOL   H28249378   6.367   4.718   6.850 -1.9790  1.1401 -0.5929
   69MOL   H28349379   6.539   4.876   6.745  1.3356 -1.9168 -0.9009
   69MOL   H28449380   6.572   4.956   6.890 -2.6551  0.0006  1.5777
   69MOL   H28549381   7.039   4.734   6.765  1.6958  0.3917  0.7655
   69MOL   H28649382   7.035   4.762   6.940  1.7272  2.0898 -2.4780
   69MOL   H28749383   7.078   4.603   6.877  0.1583  0.2259 -1.2452
   69MOL   H28849384   6.881   4.498   7.021  0.1474 -0.0736 -0.8895
   69MOL   H28949385   6.737   4.582   7.055 -1.2629  0.8002 -2.6268
   69MOL   C29049386   6.926   5.294   0.213  0.0348  0.2723  0.1095
   69MOL   C29149387   6.980   5.268   0.068  0.3698  0.1731  1.0516
   69MOL   C29249388   6.863   5.253   7.746 -0.0581  0.2470 -0.2578
   69MOL   C29349389   6.907   5.193   7.615 -0.5673  0.1325 -0.6050
   69MOL   C29449390   6.788   5.156   7.525  0.2222 -0.2269  0.6333
   69MOL   C29549391   6.851   5.092   7.400 -0.1669  0.3275  0.7963
   69MOL   C29649392   6.738   5.059   7.292 -0.0525  0.7841  0.0557
   69MOL   C29749393   6.782   4.999   7.156  0.2561  0.4435  0.4361
   69MOL   O29849394   6.798   4.860   7.157 -0.4980  0.0991  0.0141
   69MOL   C29949395   6.924   4.808   7.179  0.5230 -0.7934  0.4914
   69MOL   O30049396   7.029   4.874   7.193  0.6569 -0.0646 -0.3471
   69MOL   C30149397   6.916   4.648   7.170 -0.2081 -0.4257  0.4471
   69MOL   C30249398   6.823   4.612   7.282 -0.6275  0.0381  0.0634
   69MOL   C30349399   7.056   4.585   7.184 -0.0978  0.4510  0.5878
   69MOL   H30449400   7.002   5.331   0.282  0.0965  1.0463 -0.3595
   69MOL   H30549401   6.894   5.205   0.267 -0.4874  0.3177 -0.1204
   69MOL   H30649402   6.837   5.358   0.206  0.2929  0.7119  0.8165
   69MOL   H30749403   7.043   5.179   0.080  0.1992 -0.4551 -2.2822
   69MOL   H30849404   7.045   5.349   0.038  2.5074 -2.4299 -1.6661
   69MOL   H30949405   6.805   5.343   7.723 -2.2793 -1.2144 -0.5338
   69MOL   H31049406   6.785   5.190   0.009 -1.2362  1.4064 -0.6535
   69MOL   H31149407   6.969   5.266   7.563 -1.2115  0.6970 -0.5943
   69MOL   H31249408   6.969   5.105   7.622  1.2108  1.5191  1.8072
   69MOL   H31349409   6.722   5.088   7.579 -0.0407  0.2653  0.9390
   69MOL   H31449410   6.741   5.249   7.492  0.2285 -0.0852  1.0273
   69MOL   H31549411   6.902   4.997   7.417  2.0140  1.2016 -0.6908
   69MOL   H31649412   6.930   5.158   7.363  0.2445 -1.4139 -1.4959
   69MOL   H31749413   6.682   5.149   7.268 -2.0409 -0.1167  1.1785
   69MOL   H31849414   6.666   4.988   7.332 -0.2926 -0.3322 -2.2400
   69MOL   H31949415   6.871   5.050   7.117  0.8868 -2.1708 -1.6665
   69MOL   H32049416   6.706   5.025   7.083  0.3693  1.3424  0.6315
   69MOL   H32149417   6.801   4.505   7.279 -0.2639 -0.0191 -0.6748
   69MOL   H32249418   6.727   4.662   7.281 -1.5682 -1.7144  0.6792
   69MOL   H32349419   6.875   4.633   7.376 -0.8431 -1.8341  0.6237
   69MOL   H32449420   7.103   4.610   7.089 -1.6317  1.2449  0.0379
   69MOL   H32549421   7.112   4.646   7.256 -0.3447  1.1351  0.1971
   69MOL   C32649422   7.612   4.807   7.720  0.1835 -0.0950  0.1299
   69MOL   C32749423   7.492   4.889   7.765 -0.4123 -0.9055  0.0769
   69MOL   C32849424   7.393   4.813   0.068 -0.2649 -0.5681  0.5160
   69MOL   C32949425   7.262   4.885   0.096 -0.2945  0.5040 -0.5101
   69MOL   C33049426   7.154   4.868   7.765 -0.0972  0.2701 -0.3701
   69MOL   C33149427   7.100   4.731   7.754  0.5000  0.6818  0.2422
   69MOL   C33249428   7.121   4.686   7.612 -0.3892  0.2496 -0.2710
   69MOL   C33349429   7.097   4.530   7.591 -0.2289  0.1349  0.0701
   69MOL   O33449430   7.122   4.513   7.455  0.0575  0.4163  0.2699
   69MOL   C33549431   7.058   4.427   7.375  0.1243 -0.2284 -0.2916
   69MOL   O33649432   6.963   4.353   7.404 -0.5828  0.5665  0.0631
   69MOL   C33749433   7.100   4.436   7.231  0.6174  0.0797  0.2901
   69MOL   C33849434   7.027   4.323   7.150  0.2543  0.2928  0.0871
   69MOL   C33949435   7.252   4.416   7.221 -0.1885  0.2133 -0.0445
   69MOL   H34049436   7.574   4.712   7.683 -1.3427  0.4268  0.3336
   69MOL   H34149437   7.681   4.785   0.022 -1.0270  0.9318  1.4578
   69MOL   H34249438   7.673   4.857   7.645  0.1650 -2.2368 -1.3547
   69MOL   H34349439   7.443   4.935   7.679 -1.5118  0.2114  1.2838
   69MOL   H34449440   7.536   4.974   0.037 -2.0598  0.2001 -0.2976
   69MOL   H34549441   7.440   4.792   0.164 -0.9310 -0.1070  0.9418
   69MOL   H34649442   7.374   4.716   0.022  0.9065 -0.1725 -0.8441
   69MOL   H34749443   7.288   4.991   0.092 -0.1032  0.4715 -0.1819
   69MOL   H34849444   7.223   4.868   0.196 -1.3042 -1.3786 -1.2032
   69MOL   H34949445   7.075   4.938   0.011 -0.6994 -0.5170 -0.0476
   69MOL   H35049446   7.175   4.916   7.669  1.9867 -0.8349 -0.5073
   69MOL   H35149447   7.150   4.662   0.043 -1.1669 -1.5446 -0.7017
   69MOL   H35249448   6.994   4.722   7.779  0.4101 -1.5698 -0.7558
   69MOL   H35349449   7.222   4.709   7.578 -1.0035 -0.0428 -2.3593
   69MOL   H35449450   7.058   4.745   7.545 -0.5817  0.7780  0.3731
   69MOL   H35549451   7.164   4.476   7.657  0.7189  1.6979  0.4127
   69MOL   H35649452   6.992   4.513   7.613 -0.7748  2.7034 -0.3517
   69MOL   H35749453   7.051   4.224   7.188 -1.8642 -1.0067 -1.8190
   69MOL   H35849454   6.920   4.339   7.162  0.2587 -0.7625  1.7613
   69MOL   H35949455   7.046   4.321   7.042  0.0705 -0.3333  0.0625
   69MOL   H36049456   7.277   4.432   7.117 -1.3811 -0.7709 -0.4934
   69MOL   H36149457   7.296   4.499   7.277 -0.6031 -0.0844  0.7411
   69MOL   C36249458   7.754   4.533   6.453 -0.1643 -0.1990  0.1931
   69MOL   C36349459   0.054   4.574   6.572 -0.3636 -0.3157 -0.2153
   69MOL   C36449460   0.077   4.464   6.672  0.4801 -0.4494  0.3822
   69MOL   C36549461   7.735   4.420   6.749  0.0409  0.3002 -0.4001
   69MOL   C36649462   7.754   4.294   6.826  0.2204  0.1287 -0.3116
   69MOL   C36749463   7.644   4.242   6.915  0.6527  0.2247  0.0220
   69MOL   C36849464   7.512   4.214   6.844  0.1727 -0.5651  0.1020
   69MOL   C36949465   7.415   4.136   6.942  0.0323 -0.3498  0.0218
   69MOL   O37049466   7.384   4.233   7.044 -0.4578  0.3104  0.0606
   69MOL   C37149467   7.337   4.190   7.161  0.0719  0.0882 -0.0842
   69MOL   O37249468   7.314   4.072   7.194  0.7435  0.1881  0.3978
   69MOL   C37349469   7.336   4.294   7.275 -0.0548 -0.4402  0.1316
   69MOL   C37449470   7.274   4.228   7.401 -0.3333  0.5171 -0.3176
   69MOL   C37549471   7.480   4.333   7.300  0.8293 -0.4142  0.1400
   69MOL   H37649472   0.027   4.456   6.398  0.3605  1.3521 -1.5195
   69MOL   H37749473   7.647   4.515   6.469 -0.0016 -1.1358  0.2590
   69MOL   H37849474   7.749   4.612   6.378 -0.6714 -0.1776  0.2461
   69MOL   H37949475   0.013   4.659   6.627  0.7071 -0.2770  0.5560
   69MOL   H38049476   0.149   4.616   6.538 -0.2473 -1.1337 -0.8951
   69MOL   H38149477   0.156   4.488   6.744  0.9715 -1.1812  0.0872
   69MOL   H38249478   0.111   4.384   6.606  2.0106 -0.7628  1.5030
   69MOL   H38349479   7.662   4.397   6.672 -1.0148  1.0999  0.3518
   69MOL   H38449480   7.683   4.490   6.815 -1.5358 -1.9867  0.8723
   69MOL   H38549481   0.002   4.218   6.753  0.1594  0.5358 -0.7596
   69MOL   H38649482   0.063   4.317   6.884 -0.3156 -0.0418  0.5905
   69MOL   H38749483   7.636   4.320   6.991  1.4118  0.7543 -0.4338
   69MOL   H38849484   7.692   4.169   6.981 -1.2164  0.3773  1.6088
   69MOL   H38949485   7.527   4.154   6.754 -1.9020  0.2006 -0.7944
   69MOL   H39049486   7.473   4.310   6.810 -1.9636 -1.1463  0.8110
   69MOL   H39149487   7.331   4.096   6.885 -0.9745 -1.9694  2.5706
   69MOL   H39249488   7.479   4.052   6.968  1.9556  0.8750 -0.6657
   69MOL   H39349489   7.316   4.133   7.435  0.5924  0.2537 -2.1327
   69MOL   H39449490   7.263   4.294   7.487 -0.5245  0.0405  0.0304
   69MOL   H39549491   7.172   4.195   7.380 -0.6455  0.5590  1.0629
   69MOL   H39649492   7.529   4.365   7.208  1.0578 -1.6268 -0.1710
   69MOL   H39749493   7.482   4.425   7.359 -1.5553  0.0099 -0.3744
   69MOL   C39849494   0.244   3.573   7.404 -0.4493 -0.5923  0.6324
   69MOL   C39949495   0.200   3.495   7.529 -0.0035 -0.7176  0.8430
   69MOL   C40049496   0.053   3.459   7.541  0.0641  0.1064 -0.1666
   69MOL   C40149497   7.742   3.587   7.540 -0.2067 -0.8369 -0.5157
   69MOL   C40249498   7.773   3.690   7.646  0.7247  0.0504 -1.0668
   69MOL   C40349499   7.675   3.805   7.621  0.2122  0.4735  0.0158
   69MOL   C40449500   7.703   3.935   7.702 -0.3528 -0.0168  0.5074
   69MOL   C40549501   7.603   4.052   7.672 -0.4766 -0.4193  0.3239
   69MOL   O40649502   7.630   4.099   7.545  0.4410 -0.2507  0.3362
   69MOL   C40749503   7.573   4.207   7.510 -0.1453 -0.2891  0.2465
   69MOL   O40849504   7.504   4.282   7.576  0.1524  0.1467  0.6867
   69MOL   C40949505   7.594   4.246   7.369  0.0910 -0.2132  0.6422
   69MOL   C41049506   7.618   4.115   7.286  0.2024  0.3265 -0.4704
   69MOL   C41149507   7.735   4.328   7.359 -0.1384  0.3380  0.2716
   69MOL   H41249508   0.187   3.666   7.400 -0.7590 -0.7660  0.9388
   69MOL   H41349509   0.226   3.518   7.312  1.0823  0.4578 -0.3331
   69MOL   H41449510   0.350   3.597   7.407 -0.4145 -0.6225 -0.2516
   69MOL   H41549511   0.250   3.542   7.614  2.4295 -0.8050 -0.4918
   69MOL   H41649512   0.244   3.395   7.520 -0.6290 -1.1587  2.3997
   69MOL   H41749513   0.019   3.385   7.468 -1.5200  1.1567 -0.5280
   69MOL   H41849514   0.033   3.414   7.638  1.9570  1.4743  0.8933
   69MOL   H41949515   7.641   3.551   7.557 -0.1598 -0.2030  1.2600
   69MOL   H42049516   7.743   3.621   7.436 -1.5385 -1.3555 -0.7090
   69MOL   H42149517   7.766   3.645   7.745  0.7996 -0.4900 -1.3057
   69MOL   H42249518   0.095   3.729   7.639  0.0854  1.7747 -0.9789
   69MOL   H42349519   7.576   3.769   7.650  0.1517  0.3074 -0.3938
   69MOL   H42449520   7.673   3.830   7.515  1.1574  0.2803 -0.0561
   69MOL   H42549521   7.678   3.904   0.024 -2.0806 -1.1705 -0.2389
   69MOL   H42649522   0.027   3.966   7.693 -0.6721  0.8484 -0.2689
   69MOL   H42749523   7.502   4.017   7.694 -1.1769  1.5943  0.4240
   69MOL   H42849524   7.615   4.130   7.747 -0.6947  0.1167 -0.1935
   69MOL   H42949525   7.623   4.140   7.180  0.4373  0.9805 -0.3055
   69MOL   H43049526   7.541   4.044   7.315 -2.6937  2.3721 -2.8338
   69MOL   H43149527   7.718   4.077   7.310  0.3648  0.8857 -0.2523
   69MOL   H43249528   7.709   4.412   7.295 -0.6662  0.6484  0.8956
   69MOL   H43349529   0.020   4.269   7.293  0.5325  0.3168  0.9512
   69MOL   C43449530   0.305   4.030   6.719 -0.0582 -0.2896  0.0984
   69MOL   C43549531   0.303   3.937   6.844  0.7009  0.1921 -0.0758
   69MOL   C43649532   0.260   4.025   6.969  0.8879  0.1007 -0.6352
   69MOL   C43749533   0.319   3.967   7.105  0.0425  0.0188  0.6911
   69MOL   C43849534   0.295   4.055   7.234 -0.2195  0.3770 -0.0748
   69MOL   C43949535   0.371   3.987   7.346  0.5264 -0.1744  0.2126
   69MOL   C44049536   0.358   4.044   7.486  0.0389 -0.1739  0.1415
   69MOL   C44149537   0.213   4.078   7.529 -0.3520 -0.2903 -0.1816
   69MOL   O44249538   0.166   4.191   7.466  0.1429 -0.5445  0.2117
   69MOL   C44349539   0.105   4.286   7.541  0.1576 -0.3463 -0.8286
   69MOL   O44449540   0.101   4.294   7.670  0.1818  0.0022 -0.1859
   69MOL   C44549541   0.047   4.397   7.466  0.5858 -0.4894  0.0969
   69MOL   C44649542   7.747   4.504   7.549 -0.4845  0.0140 -0.5422
   69MOL   C44749543   0.152   4.480   7.385  0.3802  0.0295  0.1614
   69MOL   H44849544   0.380   4.108   6.725 -0.6513  0.3278 -0.3536
   69MOL   H44949545   0.210   4.077   6.693 -0.4959 -1.6209 -0.7876
   69MOL   H45049546   0.330   3.977   6.627 -1.0904 -0.4690 -0.0950
   69MOL   H45149547   0.409   3.915   6.849  0.9831  1.4963 -0.0960
   69MOL   H45249548   0.245   3.846   6.827  0.1669  0.8547 -1.8912
   69MOL   H45349549   0.152   4.037   6.969  0.7367 -0.8553 -2.9998
   69MOL   H45449550   0.307   4.123   6.958 -1.4992  1.2501 -0.8912
   69MOL   H45549551   0.427   3.952   7.102  0.3544  1.6260  2.5674
   69MOL   H45649552   0.283   3.866   7.123 -1.0893  0.2113 -0.3735
   69MOL   H45749553   0.326   4.158   7.222 -1.1659  0.5472 -1.1863
   69MOL   H45849554   0.187   4.050   7.252 -0.0958  0.7813  0.8011
   69MOL   H45949555   0.476   3.986   7.318  1.0364 -0.1515  2.0369
   69MOL   H46049556   0.344   3.881   7.348  0.1274 -0.0699  3.1722
   69MOL   H46149557   0.405   3.973   7.555  0.5871 -0.8246 -0.8804
   69MOL   H46249558   0.412   4.138   7.493  1.8426 -1.1840  0.1054
   69MOL   H46349559   0.220   4.100   7.635  3.0915 -0.5648 -0.2940
   69MOL   H46449560   0.132   4.006   7.521 -0.4708 -0.3140  1.1870
   69MOL   H46549561   7.702   4.572   7.477  1.8077  1.7717 -0.3752
   69MOL   H46649562   7.671   4.465   7.617 -0.3189 -1.0136 -0.9350
   69MOL   H46749563   0.039   4.561   7.609  0.2508  0.0444 -1.4399
   69MOL   H46849564   0.206   4.405   7.326 -1.8023 -0.6608 -1.0297
   69MOL   H46949565   0.087   4.536   7.318  2.4169 -0.9902 -2.7943
   69MOL   C47049566   1.007   5.068   0.288 -0.0220  0.3537 -0.4681
   69MOL   C47149567   0.942   4.998   0.170  0.4382  0.0100  0.5972
   69MOL   C47249568   0.795   5.046   0.148  0.0162  0.3954  0.6327
   69MOL   C47349569   0.739   4.995   0.021  0.0100 -0.0299 -0.3237
   69MOL   C47449570   0.588   5.017   0.027 -0.0186 -0.0122 -0.2917
   69MOL   C47549571   0.512   4.965   7.689  0.0608  0.0126 -0.2323
   69MOL   C47649572   0.359   4.968   7.702 -0.0783 -0.6448  0.0537
   69MOL   C47749573   0.273   4.922   7.583  0.3814  0.0345 -0.0372
   69MOL   O47849574   0.301   4.781   7.558 -0.3114 -0.0917  0.0008
   69MOL   C47949575   0.216   4.711   7.480 -0.4940 -0.2113  0.5752
   69MOL   O48049576   0.117   4.763   7.432  0.0279 -0.0127 -0.1084
   69MOL   C48149577   0.267   4.575   7.443 -0.1628 -0.6620 -0.1999
   69MOL   C48249578   0.336   4.513   7.563 -0.2988  0.0917  0.4632
   69MOL   C48349579   0.392   4.594   7.340  0.2790  0.6077 -0.4070
   69MOL   H48449580   1.037   5.171   0.268 -3.8686  1.8841  1.1463
   69MOL   H48549581   1.108   5.030   0.305  0.1903  0.4702 -1.4622
   69MOL   H48649582   0.940   5.078   0.374  1.5829  1.4387  0.6945
   69MOL   H48749583   1.001   5.013   0.079  0.6678  0.8767  0.8788
   69MOL   H48849584   0.935   4.890   0.175 -2.3539  0.1202 -0.1885
   69MOL   H48949585   0.742   5.024   0.241  0.5063  1.3357  1.1513
   69MOL   H49049586   0.786   5.154   0.132 -1.2817  0.2114  0.0935
   69MOL   H49149587   0.789   5.039   7.715 -0.1181 -1.1120 -0.9640
   69MOL   H49249588   0.753   4.887   0.012 -0.8306 -0.4790  3.1689
   69MOL   H49349589   0.553   4.975   0.121  0.5719  0.8490  0.3145
   69MOL   H49449590   0.570   5.125   0.025 -1.5536 -0.2557 -1.9455
   69MOL   H49549591   0.535   5.019   7.597  1.2426  0.3370  0.2458
   69MOL   H49649592   0.539   4.861   7.670  0.3888 -0.4280  2.4339
   69MOL   H49749593   0.341   4.898   0.004  0.0434 -1.6417 -0.7656
   69MOL   H49849594   0.339   5.070   7.736  0.4880  0.2965 -2.3281
   69MOL   H49949595   0.289   4.982   7.493 -1.1252 -0.8762 -0.9394
   69MOL   H50049596   0.166   4.925   7.604  0.2975  1.1284 -0.5898
   69MOL   H50149597   0.435   4.558   7.570 -0.2464  0.7565 -3.6627
   69MOL   H50249598   0.360   4.408   7.543 -1.1278  0.2521 -1.5059
   69MOL   H50349599   0.292   4.525   7.662 -0.4306 -1.6520  0.6431
   69MOL   H50449600   0.480   4.638   7.387  1.4263 -0.0043 -1.9681
   69MOL   H50549601   0.417   4.489   7.329  1.2911  0.6279  1.5019
   69MOL   C50649602   7.240   5.094   7.373 -0.4030 -0.3242 -0.0914
   69MOL   C50749603   7.377   5.029   7.354  0.4023 -0.3190  0.4656
   69MOL   C50849604   7.371   4.879   7.381 -0.6662  0.4822  0.0472
   69MOL   C50949605   7.503   4.810   7.354  1.2727 -0.7379 -0.6590
   69MOL   C51049606   7.549   4.799   7.214  0.3201  0.1714  0.4042
   69MOL   C51149607   7.690   4.732   7.192 -0.2714 -0.8116 -0.5524
   69MOL   C51249608   7.724   4.727   7.046  0.5334 -0.2010 -0.1962
   69MOL   C51349609   0.054   4.625   7.010  0.2016  0.5285  0.4285
   69MOL   O51449610   0.169   4.673   7.083  0.5917  0.0054 -0.9461
   69MOL   C51549611   0.267   4.587   7.125 -0.3287  0.2318 -0.4168
   69MOL   O51649612   0.267   4.466   7.101  0.3357  0.3726  0.2093
   69MOL   C51749613   0.388   4.651   7.192  0.4625 -0.1608 -0.3922
   69MOL   C51849614   0.371   4.804   7.210 -0.2913  0.2325 -0.4858
   69MOL   C51949615   0.520   4.613   7.116 -0.4832 -0.4174  0.2329
   69MOL   H52049616   7.243   5.202   7.380  1.5802 -0.4250  1.0630
   69MOL   H52149617   7.179   5.054   7.455 -0.8650 -0.7708 -0.6470
   69MOL   H52249618   7.182   5.077   7.282  1.2833  1.3082 -1.5029
   69MOL   H52349619   7.446   5.072   7.426 -2.2658  1.0773  2.3163
   69MOL   H52449620   7.418   5.054   7.256  1.5805  0.9381  1.2715
   69MOL   H52549621   7.336   4.850   7.480 -1.7761  0.5478 -0.3242
   69MOL   H52649622   7.302   4.831   7.312 -0.0849  0.2779 -0.3914
   69MOL   H52749623   7.579   4.856   7.416 -1.1500  0.8466  1.2413
   69MOL   H52849624   7.496   4.715   7.406  1.8849  0.0912  0.9708
   69MOL   H52949625   7.477   4.734   7.164  0.4472  0.4662 -0.1527
   69MOL   H53049626   7.564   4.899   7.176 -1.1134  0.4958  0.6603
   69MOL   H53149627   7.689   4.628   7.226 -0.9098 -0.5567  0.2293
   69MOL   H53249628   7.768   4.782   7.250  0.5140 -0.4933 -1.8543
   69MOL   H53349629   7.755   4.828   7.017  1.8672  0.2098  2.4897
   69MOL   H53449630   7.629   4.707   6.996  0.3542  1.3919 -0.5239
   69MOL   H53549631   0.065   4.622   6.902 -2.4639 -4.8941  0.1091
   69MOL   H53649632   0.018   4.526   7.038 -1.8022  0.5903 -1.8026
   69MOL   H53749633   0.274   4.838   7.246 -0.3025 -0.2559 -0.0582
   69MOL   H53849634   0.388   4.863   7.120  0.2701  1.3649  0.3368
   69MOL   H53949635   0.445   4.839   7.282  1.5302 -1.9887 -1.2258
   69MOL   H54049636   0.602   4.631   7.185 -1.0098  0.6492  0.5877
   69MOL   H54149637   0.522   4.504   7.110  0.6388 -0.3859 -0.0542
   69MOL   C54249638   1.018   5.495   0.038  0.4354  0.1239 -0.7991
   69MOL   C54349639   1.038   5.443   7.675 -0.2036  0.4849 -0.1516
   69MOL   C54449640   0.952   5.329   7.653  0.5955 -0.0031  0.4358
   69MOL   C54549641   0.927   5.301   7.504 -1.0063 -0.6109  0.3629
   69MOL   C54649642   0.855   5.165   7.467 -0.1419 -0.0295 -0.7283
   69MOL   C54749643   0.825   5.144   7.319  0.3480  0.4223 -0.3326
   69MOL   C54849644   0.771   5.000   7.279  0.0677 -0.0859  0.1241
   69MOL   C54949645   0.701   4.996   7.139  0.1959  0.4656  0.3239
   69MOL   O55049646   0.659   4.865   7.108  0.0249  0.3221  0.2502
   69MOL   C55149647   0.618   4.827   6.984 -0.4751  0.6833  0.2161
   69MOL   O55249648   0.610   4.903   6.888 -1.1243 -0.9079 -0.3939
   69MOL   C55349649   0.562   4.675   6.980 -0.6366 -0.1604  0.1171
   69MOL   C55449650   0.444   4.669   6.883 -0.1931  0.1333 -0.3072
   69MOL   C55549651   0.674   4.579   6.923  0.1171  0.3969  0.4591
   69MOL   H55649652   1.090   5.449   0.105 -1.2223 -0.0753  0.8801
   69MOL   H55749653   0.918   5.477   0.078  1.2737 -0.0343  1.2651
   69MOL   H55849654   1.031   5.603   0.046 -2.1606  0.4560 -0.4025
   69MOL   H55949655   1.013   5.526   7.608 -1.0276 -0.1715 -0.6691
   69MOL   H56049656   1.140   5.415   7.649 -0.4438  0.8183 -1.4730
   69MOL   H56149657   0.850   5.351   7.684  0.6500  1.3379 -0.3239
   69MOL   H56249658   0.992   5.245   7.710 -2.6836 -0.7160  1.8561
   69MOL   H56349659   0.856   5.379   7.474 -0.3079  0.1846  0.7768
   69MOL   H56449660   1.013   5.304   7.438 -1.1389 -0.6352  0.1870
   69MOL   H56549661   0.766   5.158   7.528 -0.7775 -0.2884 -1.6725
   69MOL   H56649662   0.912   5.081   7.505 -2.4857 -0.3123  2.2890
   69MOL   H56749663   0.748   5.218   7.297  0.3445  1.7070  3.6621
   69MOL   H56849664   0.916   5.175   7.268  0.5369 -0.6960 -0.6961
   69MOL   H56949665   0.854   4.929   7.288  1.6818  1.6103 -1.0063
   69MOL   H57049666   0.695   4.971   7.352 -0.0065 -0.2633 -0.0244
   69MOL   H57149667   0.772   5.035   7.066 -0.0968  2.7781  1.2362
   69MOL   H57249668   0.615   5.063   7.135 -0.5854 -0.3967  2.2757
   69MOL   H57349669   0.407   4.571   6.852  2.0463 -1.2554  1.2898
   69MOL   H57449670   0.479   4.702   6.784 -0.7858 -1.2925 -1.0117
   69MOL   H57549671   0.367   4.742   6.907  1.8130  0.9421  4.0270
   69MOL   H57649672   0.689   4.627   6.826  0.3465 -0.9661 -0.1821
   69MOL   H57749673   0.628   4.483   6.899 -0.3874  0.4570  1.1534
   69MOL   C57849674   1.277   3.819   6.951  0.8294  0.1631  0.2483
   69MOL   C57949675   1.187   3.852   6.826  0.0513  0.2691  0.4627
   69MOL   C58049676   1.036   3.838   6.865 -0.0444 -0.1706 -0.1439
   69MOL   C58149677   0.973   3.952   6.951 -0.4745  0.1516 -0.4676
   69MOL   C58249678   0.833   3.935   7.011 -0.0496 -0.0758  0.4281
   69MOL   C58349679   0.752   4.060   7.032  0.2637  0.4589 -0.0410
   69MOL   C58449680   0.806   4.153   7.148  0.6473  0.3177  0.5344
   69MOL   C58549681   0.709   4.259   7.201  0.0747  0.6056  0.3871
   69MOL   O58649682   0.708   4.368   7.103  0.7834  0.4432 -0.9415
   69MOL   C58749683   0.805   4.461   7.104  0.4716  0.5866  0.5865
   69MOL   O58849684   0.883   4.467   7.200  0.0306 -0.1281 -0.0476
   69MOL   C58949685   0.817   4.552   6.979  0.0409 -0.2381  0.2494
   69MOL   C59049686   0.889   4.684   7.009  0.2048  0.1992  0.1570
   69MOL   C59149687   0.888   4.482   6.862 -0.5592 -0.0116  0.2699
   69MOL   H59249688   1.262   3.893   7.030  0.4154 -0.7360  1.0151
   69MOL   H59349689   1.380   3.834   6.920  0.5348 -0.7541 -1.2338
   69MOL   H59449690   1.269   3.721   6.997 -3.1752  0.4134  0.3102
   69MOL   H59549691   1.205   3.776   6.750 -0.6305 -0.0439  0.6146
   69MOL   H59649692   1.209   3.954   6.794  0.1126  0.0848 -0.0806
   69MOL   H59749693   1.032   3.744   6.921  0.7434 -0.5552 -0.7210
   69MOL   H59849694   0.970   3.828   6.779 -0.7722 -2.7446  0.6595
   69MOL   H59949695   0.981   4.032   6.877 -0.8762  0.7786  0.1598
   69MOL   H60049696   1.044   3.979   7.029 -0.0501 -2.9347  0.2694
   69MOL   H60149697   0.846   3.899   7.113  1.8572  0.8182  0.5296
   69MOL   H60249698   0.787   3.862   6.945  1.4587  1.9459 -3.0324
   69MOL   H60349699   0.654   4.020   7.057  1.3656 -2.1967  0.1945
   69MOL   H60449700   0.744   4.117   6.939  0.0733  0.0242 -0.2924
   69MOL   H60549701   0.901   4.193   7.111  0.5473  0.2534  0.2149
   69MOL   H60649702   0.825   4.092   7.236 -2.2040  0.7214  1.4686
   69MOL   H60749703   0.608   4.223   7.222  0.3574  0.8942  2.3547
   69MOL   H60849704   0.756   4.292   7.294 -2.3135  1.9020  1.1761
   69MOL   H60949705   0.888   4.751   6.923  0.0321  1.7022  1.3165
   69MOL   H61049706   0.837   4.718   7.098 -3.4919  0.3343 -1.9583
   69MOL   H61149707   0.994   4.665   7.033  0.1213 -0.9194 -0.3248
   69MOL   H61249708   0.846   4.520   6.769 -0.1440 -0.4548 -0.1062
   69MOL   H61349709   0.852   4.379   6.867 -1.4236  0.3446  1.6003
   69MOL   C61449710   1.304   4.681   5.918  1.2540  0.4401  0.5838
   69MOL   C61549711   1.160   4.675   5.977 -0.7715 -0.0128 -0.8171
   69MOL   C61649712   1.140   4.774   6.092  0.5434  0.6619 -0.4130
   69MOL   C61749713   1.023   4.750   6.188 -0.2369 -0.2525  0.3996
   69MOL   C61849714   1.023   4.846   6.311 -0.1930  0.6286 -0.4442
   69MOL   C61949715   0.939   4.783   6.425 -0.4431  0.7241  0.1977
   69MOL   C62049716   0.966   4.858   6.550 -0.8530 -0.1003 -0.2540
   69MOL   C62149717   1.079   4.793   6.644  0.5647 -0.2414 -0.2485
   69MOL   O62249718   1.038   4.661   6.687 -0.2386 -0.2723 -0.0588
   69MOL   C62349719   1.101   4.605   6.797 -0.5580  0.7317  0.5940
   69MOL   O62449720   1.198   4.656   6.855 -0.4398  0.3339 -0.7030
   69MOL   C62549721   1.041   4.467   6.837  0.9853  0.2797 -0.0064
   69MOL   C62649722   1.111   4.409   6.961 -0.6985 -0.4396  0.4494
   69MOL   C62749723   1.051   4.358   6.718  0.5718 -0.2519  0.2268
   69MOL   H62849724   1.333   4.785   5.907  0.2061  0.6867  0.0777
   69MOL   H62949725   1.322   4.626   5.825  0.3221 -2.0175  1.8145
   69MOL   H63049726   1.373   4.637   5.990 -0.5878 -1.6556  1.1402
   69MOL   H63149727   1.086   4.699   5.900 -2.4578 -2.3554 -0.0116
   69MOL   H63249728   1.124   4.581   6.022 -0.7917  0.6515  0.5984
   69MOL   H63349729   1.126   4.874   6.050 -0.9149  1.4621  1.8373
   69MOL   H63449730   1.229   4.789   6.153  0.0814 -2.6538  1.2032
   69MOL   H63549731   1.032   4.643   6.208  1.1165 -0.6362 -2.0028
   69MOL   H63649732   0.930   4.759   6.132  0.8201  0.2491 -1.3398
   69MOL   H63749733   1.120   4.887   6.339 -0.6869  0.0801  2.1853
   69MOL   H63849734   0.960   4.933   6.290 -0.4425  0.7513  0.7706
   69MOL   H63949735   0.834   4.797   6.400 -0.2695 -0.6023 -1.4332
   69MOL   H64049736   0.962   4.677   6.432  1.1571  0.9084 -1.8080
   69MOL   H64149737   0.870   4.864   6.602  0.8465 -0.0460  3.0069
   69MOL   H64249738   0.985   4.961   6.519 -0.4778 -0.0742  0.0546
   69MOL   H64349739   1.176   4.789   6.595 -0.0483  0.9930 -1.5919
   69MOL   H64449740   1.098   4.857   6.731  2.7330  0.7854 -1.4506
   69MOL   H64549741   1.099   4.469   7.052  0.2294  1.4596 -0.6410
   69MOL   H64649742   1.217   4.387   6.952 -0.8526 -0.5445 -1.2183
   69MOL   H64749743   1.058   4.320   6.993  1.0183 -0.8550  2.2174
   69MOL   H64849744   0.973   4.375   6.643  0.3933 -1.4478  0.1253
   69MOL   H64949745   1.020   4.265   6.766 -1.8028  0.4794  0.1638
   69MOL   C65049746   1.944   3.771   6.029 -0.0335  0.0085 -0.2311
   69MOL   C65149747   1.799   3.794   6.073 -0.0122  0.1157  0.3344
   69MOL   C65249748   1.769   3.943   6.098 -0.5054  1.1497 -0.1268
   69MOL   C65349749   1.622   3.968   6.119 -0.6207  0.0352 -0.4317
   69MOL   C65449750   1.568   3.915   6.246  0.5497 -0.5079 -0.2518
   69MOL   C65549751   1.414   3.953   6.266  0.0372 -0.8082 -0.0057
   69MOL   C65649752   1.357   3.919   6.411  0.0992  0.0766  0.7238
   69MOL   C65749753   1.233   4.006   6.436 -0.3876 -0.2938  0.3787
   69MOL   O65849754   1.255   4.119   6.519  0.2584  0.2081  0.3029
   69MOL   C65949755   1.153   4.207   6.548  0.4723 -0.1372 -0.0312
   69MOL   O66049756   1.038   4.194   6.502  0.4814  0.0561  0.3588
   69MOL   C66149757   1.183   4.331   6.631  0.3834  1.0617 -0.3764
   69MOL   C66249758   1.297   4.283   6.729 -0.1282  0.1401  0.2101
   69MOL   C66349759   1.237   4.455   6.550 -0.7796 -1.3777 -0.2944
   69MOL   H66449760   1.972   3.829   5.941 -1.1219  1.9600  0.6913
   69MOL   H66549761   1.957   3.670   5.989  2.4464 -0.6236  2.0856
   69MOL   H66649762   2.017   3.780   6.109 -0.5699 -0.5439  0.3301
   69MOL   H66749763   1.782   3.739   6.166  1.8249 -1.8491 -0.4449
   69MOL   H66849764   1.730   3.755   5.998 -0.4972  0.2965  0.6888
   69MOL   H66949765   1.800   3.992   6.006 -0.3310 -0.5940 -1.0104
   69MOL   H67049766   1.828   3.982   6.181 -0.9201  1.1046  0.1889
   69MOL   H67149767   1.571   3.924   6.033 -1.3816 -0.4687  0.2709
   69MOL   H67249768   1.593   4.072   6.108 -3.5248 -0.7374 -0.4586
   69MOL   H67349769   1.627   3.960   6.325 -1.1285  1.8591 -0.3091
   69MOL   H67449770   1.586   3.808   6.258  2.2168 -0.0701  1.3877
   69MOL   H67549771   1.409   4.061   6.251  0.8194 -0.4568  2.0739
   69MOL   H67649772   1.356   3.897   6.193 -1.2517  2.5074 -1.6713
   69MOL   H67749773   1.432   3.930   6.489 -0.6272  0.8190  1.3191
   69MOL   H67849774   1.330   3.813   6.414  0.0389  0.0996  0.9753
   69MOL   H67949775   1.154   3.944   6.480 -2.2981  1.1548 -0.9351
   69MOL   H68049776   1.197   4.040   6.339  3.2440  0.8197 -0.6574
   69MOL   H68149777   1.263   4.219   6.810 -0.2071  0.4020  0.3880
   69MOL   H68249778   1.344   4.366   6.782 -0.3122  0.3583  0.0327
   69MOL   H68349779   1.376   4.226   6.680 -0.5767 -0.9091  0.6959
   69MOL   H68449780   1.141   4.491   6.512  0.0521 -0.1332 -1.2626
   69MOL   H68549781   1.276   4.530   6.618 -1.3548 -2.7157  1.5598
   69MOL   C68649782   1.885   3.736   7.097 -0.8418  0.2092 -0.3652
   69MOL   C68749783   1.779   3.816   7.022 -1.4405 -0.5651  0.1368
   69MOL   C68849784   1.789   3.809   6.873 -0.1209 -0.2816  0.1765
   69MOL   C68949785   1.801   3.949   6.803  0.2101  0.2415 -0.4823
   69MOL   C69049786   1.783   3.944   6.648 -0.2256 -0.3239 -0.8495
   69MOL   C69149787   1.788   4.086   6.587 -0.2435 -0.0171  0.4571
   69MOL   C69249788   1.654   4.170   6.597  0.2901  0.3241  0.3131
   69MOL   C69349789   1.662   4.306   6.517  1.2423  0.2064 -0.5705
   69MOL   O69449790   1.536   4.375   6.525 -0.3029  0.5335 -0.4037
   69MOL   C69549791   1.452   4.351   6.427 -0.1852 -0.5827  0.3073
   69MOL   O69649792   1.474   4.276   6.333  0.3809 -0.0892  0.1915
   69MOL   C69749793   1.327   4.446   6.419  0.1083  0.3308  0.3817
   69MOL   C69849794   1.386   4.588   6.401  0.7788 -0.1191  0.0228
   69MOL   C69949795   1.244   4.416   6.288 -0.1971  0.4642 -0.3320
   69MOL   H70049796   1.983   3.754   7.053 -0.5371 -1.1848 -0.2915
   69MOL   H70149797   1.881   3.627   7.093  3.3661  0.0030 -2.3188
   69MOL   H70249798   1.880   3.773   7.199 -1.0702 -1.6641  0.3154
   69MOL   H70349799   1.789   3.917   7.061  1.4140 -0.7440 -0.0229
   69MOL   H70449800   1.679   3.788   7.055 -1.2579 -0.1758  1.0404
   69MOL   H70549801   1.703   3.751   6.839 -1.3838  3.2701 -3.0930
   69MOL   H70649802   1.877   3.748   6.853 -0.5933 -0.9323  0.0498
   69MOL   H70749803   1.899   3.992   6.824  0.2071  0.1047 -0.1755
   69MOL   H70849804   1.720   4.011   6.841 -0.8757 -1.4283  0.0179
   69MOL   H70949805   1.691   3.892   6.623  0.5983 -2.1293 -0.1601
   69MOL   H71049806   1.862   3.878   6.614 -1.4500 -1.6296 -1.2144
   69MOL   H71149807   1.876   4.144   6.614 -0.9090  0.6112  1.2888
   69MOL   H71249808   1.791   4.069   6.479  1.2355 -1.7950  0.7481
   69MOL   H71349809   1.568   4.111   6.565 -0.1260  0.9455  0.2771
   69MOL   H71449810   1.625   4.193   6.700 -1.4929 -2.3459  0.4778
   69MOL   H71549811   1.705   4.284   6.419 -0.6751 -0.2903 -1.3452
   69MOL   H71649812   1.731   4.367   6.575  0.6917 -0.0649  0.3785
   69MOL   H71749813   1.428   4.628   6.494 -0.7685  1.3898  0.1020
   69MOL   H71849814   1.453   4.603   6.317  0.3757  0.1761 -0.2449
   69MOL   H71949815   1.300   4.652   6.381  1.9064  0.5358 -2.9983
   69MOL   H72049816   1.141   4.446   6.311 -1.0947 -3.0343  0.4725
   69MOL   H72149817   1.240   4.312   6.258 -0.1645 -0.5676  2.9674
   69MOL   H72249818   1.291   4.472   6.207 -0.5273  1.3786  0.0885
   7.77958   7.77958   7.77958
