;
; Gromacs include topology (itp) file.
; For Molecular Group XYZ
; Force field scheme: opls2005
; Produced from DL_FIELD v4.11
;


[ moleculetype ]
; name    nrexcl
XYZ    3

[ atoms ]
; nr   type   resnr   residu    atom    cgnr    charge    mass
    1        CT    1  MOL      C1     1  -0.1800000   12.0115
    2        CT    1  MOL      C2     2  -0.0600000   12.0115
    3         C    1  MOL      C3     3   0.5000000   12.0115
    4         O    1  MOL      O4     4  -0.5000000   15.9994
    5         N    1  MOL      N5     5  -0.7600000   14.0067
    6        HC    1  MOL      H6     6   0.0600000    1.0080
    7        HC    1  MOL      H7     7   0.0600000    1.0080
    8        HC    1  MOL      H8     8   0.0600000    1.0080
    9         H    1  MOL      H9     9   0.3800000    1.0080
   10         H    1  MOL     H10    10   0.3800000    1.0080
   11        HC    1  MOL     H11    11   0.0600000    1.0080
   12        CT    1  MOL     C12    12  -0.1200000   12.0115
   13        CT    1  MOL     C13    13  -0.0600000   12.0115
   14         C    1  MOL     C14    14   0.5000000   12.0115
   15         O    1  MOL     O15    15  -0.5000000   15.9994
   16         N    1  MOL     N16    16  -0.7600000   14.0067
   17        HC    1  MOL     H17    17   0.0600000    1.0080
   18        HC    1  MOL     H18    18   0.0600000    1.0080
   19        HC    1  MOL     H19    19   0.0600000    1.0080
   20         H    1  MOL     H20    20   0.3800000    1.0080
   21         H    1  MOL     H21    21   0.3800000    1.0080
   22        CT    1  MOL     C22    22  -0.1200000   12.0115
   23        CT    1  MOL     C23    23  -0.0600000   12.0115
   24         C    1  MOL     C24    24   0.5000000   12.0115
   25         O    1  MOL     O25    25  -0.5000000   15.9994
   26         N    1  MOL     N26    26  -0.7600000   14.0067
   27        HC    1  MOL     H27    27   0.0600000    1.0080
   28        HC    1  MOL     H28    28   0.0600000    1.0080
   29        HC    1  MOL     H29    29   0.0600000    1.0080
   30         H    1  MOL     H30    30   0.3800000    1.0080
   31         H    1  MOL     H31    31   0.3800000    1.0080
   32        CT    1  MOL     C32    32  -0.1200000   12.0115
   33        CT    1  MOL     C33    33  -0.0600000   12.0115
   34         C    1  MOL     C34    34   0.5000000   12.0115
   35         O    1  MOL     O35    35  -0.5000000   15.9994
   36         N    1  MOL     N36    36  -0.7600000   14.0067
   37        HC    1  MOL     H37    37   0.0600000    1.0080
   38        HC    1  MOL     H38    38   0.0600000    1.0080
   39        HC    1  MOL     H39    39   0.0600000    1.0080
   40         H    1  MOL     H40    40   0.3800000    1.0080
   41         H    1  MOL     H41    41   0.3800000    1.0080
   42        CT    1  MOL     C42    42  -0.1200000   12.0115
   43        CT    1  MOL     C43    43  -0.0600000   12.0115
   44         C    1  MOL     C44    44   0.5000000   12.0115
   45         O    1  MOL     O45    45  -0.5000000   15.9994
   46         N    1  MOL     N46    46  -0.7600000   14.0067
   47        HC    1  MOL     H47    47   0.0600000    1.0080
   48        HC    1  MOL     H48    48   0.0600000    1.0080
   49        HC    1  MOL     H49    49   0.0600000    1.0080
   50         H    1  MOL     H50    50   0.3800000    1.0080
   51         H    1  MOL     H51    51   0.3800000    1.0080
   52        CT    1  MOL     C52    52  -0.1200000   12.0115
   53        CT    1  MOL     C53    53  -0.0600000   12.0115
   54         C    1  MOL     C54    54   0.5000000   12.0115
   55         O    1  MOL     O55    55  -0.5000000   15.9994
   56         N    1  MOL     N56    56  -0.7600000   14.0067
   57        HC    1  MOL     H57    57   0.0600000    1.0080
   58        HC    1  MOL     H58    58   0.0600000    1.0080
   59        HC    1  MOL     H59    59   0.0600000    1.0080
   60         H    1  MOL     H60    60   0.3800000    1.0080
   61         H    1  MOL     H61    61   0.3800000    1.0080
   62        CT    1  MOL     C62    62  -0.1200000   12.0115
   63        CT    1  MOL     C63    63  -0.0600000   12.0115
   64         C    1  MOL     C64    64   0.5000000   12.0115
   65         O    1  MOL     O65    65  -0.5000000   15.9994
   66         N    1  MOL     N66    66  -0.7600000   14.0067
   67        HC    1  MOL     H67    67   0.0600000    1.0080
   68        HC    1  MOL     H68    68   0.0600000    1.0080
   69        HC    1  MOL     H69    69   0.0600000    1.0080
   70         H    1  MOL     H70    70   0.3800000    1.0080
   71         H    1  MOL     H71    71   0.3800000    1.0080
   72        CT    1  MOL     C72    72  -0.1200000   12.0115
   73        CT    1  MOL     C73    73  -0.0600000   12.0115
   74         C    1  MOL     C74    74   0.5000000   12.0115
   75         O    1  MOL     O75    75  -0.5000000   15.9994
   76         N    1  MOL     N76    76  -0.7600000   14.0067
   77        HC    1  MOL     H77    77   0.0600000    1.0080
   78        HC    1  MOL     H78    78   0.0600000    1.0080
   79        HC    1  MOL     H79    79   0.0600000    1.0080
   80         H    1  MOL     H80    80   0.3800000    1.0080
   81         H    1  MOL     H81    81   0.3800000    1.0080
   82        CT    1  MOL     C82    82  -0.1200000   12.0115
   83        CT    1  MOL     C83    83  -0.0600000   12.0115
   84         C    1  MOL     C84    84   0.5000000   12.0115
   85         O    1  MOL     O85    85  -0.5000000   15.9994
   86         N    1  MOL     N86    86  -0.7600000   14.0067
   87        HC    1  MOL     H87    87   0.0600000    1.0080
   88        HC    1  MOL     H88    88   0.0600000    1.0080
   89        HC    1  MOL     H89    89   0.0600000    1.0080
   90         H    1  MOL     H90    90   0.3800000    1.0080
   91         H    1  MOL     H91    91   0.3800000    1.0080
   92        CT    1  MOL     C92    92  -0.1200000   12.0115
   93        CT    1  MOL     C93    93  -0.0600000   12.0115
   94         C    1  MOL     C94    94   0.5000000   12.0115
   95         O    1  MOL     O95    95  -0.5000000   15.9994
   96         N    1  MOL     N96    96  -0.7600000   14.0067
   97        HC    1  MOL     H97    97   0.0600000    1.0080
   98        HC    1  MOL     H98    98   0.0600000    1.0080
   99        HC    1  MOL     H99    99   0.0600000    1.0080
  100         H    1  MOL    H100   100   0.3800000    1.0080
  101         H    1  MOL    H101   101   0.3800000    1.0080
  102        CT    1  MOL    C102   102  -0.1200000   12.0115
  103        CT    1  MOL    C103   103  -0.0600000   12.0115
  104         C    1  MOL    C104   104   0.5000000   12.0115
  105         O    1  MOL    O105   105  -0.5000000   15.9994
  106         N    1  MOL    N106   106  -0.7600000   14.0067
  107        HC    1  MOL    H107   107   0.0600000    1.0080
  108        HC    1  MOL    H108   108   0.0600000    1.0080
  109        HC    1  MOL    H109   109   0.0600000    1.0080
  110         H    1  MOL    H110   110   0.3800000    1.0080
  111         H    1  MOL    H111   111   0.3800000    1.0080
  112        CT    1  MOL    C112   112  -0.1200000   12.0115
  113        CT    1  MOL    C113   113  -0.0600000   12.0115
  114         C    1  MOL    C114   114   0.5000000   12.0115
  115         O    1  MOL    O115   115  -0.5000000   15.9994
  116         N    1  MOL    N116   116  -0.7600000   14.0067
  117        HC    1  MOL    H117   117   0.0600000    1.0080
  118        HC    1  MOL    H118   118   0.0600000    1.0080
  119        HC    1  MOL    H119   119   0.0600000    1.0080
  120         H    1  MOL    H120   120   0.3800000    1.0080
  121         H    1  MOL    H121   121   0.3800000    1.0080
  122        CT    1  MOL    C122   122  -0.1200000   12.0115
  123        CT    1  MOL    C123   123  -0.0600000   12.0115
  124         C    1  MOL    C124   124   0.5000000   12.0115
  125         O    1  MOL    O125   125  -0.5000000   15.9994
  126         N    1  MOL    N126   126  -0.7600000   14.0067
  127        HC    1  MOL    H127   127   0.0600000    1.0080
  128        HC    1  MOL    H128   128   0.0600000    1.0080
  129        HC    1  MOL    H129   129   0.0600000    1.0080
  130         H    1  MOL    H130   130   0.3800000    1.0080
  131         H    1  MOL    H131   131   0.3800000    1.0080
  132        CT    1  MOL    C132   132  -0.1200000   12.0115
  133        CT    1  MOL    C133   133  -0.0600000   12.0115
  134         C    1  MOL    C134   134   0.5000000   12.0115
  135         O    1  MOL    O135   135  -0.5000000   15.9994
  136         N    1  MOL    N136   136  -0.7600000   14.0067
  137        HC    1  MOL    H137   137   0.0600000    1.0080
  138        HC    1  MOL    H138   138   0.0600000    1.0080
  139        HC    1  MOL    H139   139   0.0600000    1.0080
  140         H    1  MOL    H140   140   0.3800000    1.0080
  141         H    1  MOL    H141   141   0.3800000    1.0080
  142        CT    1  MOL    C142   142  -0.1200000   12.0115
  143        CT    1  MOL    C143   143  -0.0600000   12.0115
  144         C    1  MOL    C144   144   0.5000000   12.0115
  145         O    1  MOL    O145   145  -0.5000000   15.9994
  146         N    1  MOL    N146   146  -0.7600000   14.0067
  147        HC    1  MOL    H147   147   0.0600000    1.0080
  148        HC    1  MOL    H148   148   0.0600000    1.0080
  149        HC    1  MOL    H149   149   0.0600000    1.0080
  150         H    1  MOL    H150   150   0.3800000    1.0080
  151         H    1  MOL    H151   151   0.3800000    1.0080
  152        CT    1  MOL    C152   152  -0.1200000   12.0115
  153        CT    1  MOL    C153   153  -0.0600000   12.0115
  154         C    1  MOL    C154   154   0.5000000   12.0115
  155         O    1  MOL    O155   155  -0.5000000   15.9994
  156         N    1  MOL    N156   156  -0.7600000   14.0067
  157        HC    1  MOL    H157   157   0.0600000    1.0080
  158        HC    1  MOL    H158   158   0.0600000    1.0080
  159        HC    1  MOL    H159   159   0.0600000    1.0080
  160         H    1  MOL    H160   160   0.3800000    1.0080
  161         H    1  MOL    H161   161   0.3800000    1.0080
  162        CT    1  MOL    C162   162  -0.1200000   12.0115
  163        CT    1  MOL    C163   163  -0.0600000   12.0115
  164         C    1  MOL    C164   164   0.5000000   12.0115
  165         O    1  MOL    O165   165  -0.5000000   15.9994
  166         N    1  MOL    N166   166  -0.7600000   14.0067
  167        HC    1  MOL    H167   167   0.0600000    1.0080
  168        HC    1  MOL    H168   168   0.0600000    1.0080
  169        HC    1  MOL    H169   169   0.0600000    1.0080
  170         H    1  MOL    H170   170   0.3800000    1.0080
  171         H    1  MOL    H171   171   0.3800000    1.0080
  172        CT    1  MOL    C172   172  -0.1200000   12.0115
  173        CT    1  MOL    C173   173  -0.0600000   12.0115
  174         C    1  MOL    C174   174   0.5000000   12.0115
  175         O    1  MOL    O175   175  -0.5000000   15.9994
  176         N    1  MOL    N176   176  -0.7600000   14.0067
  177        HC    1  MOL    H177   177   0.0600000    1.0080
  178        HC    1  MOL    H178   178   0.0600000    1.0080
  179        HC    1  MOL    H179   179   0.0600000    1.0080
  180         H    1  MOL    H180   180   0.3800000    1.0080
  181         H    1  MOL    H181   181   0.3800000    1.0080
  182        CT    1  MOL    C182   182  -0.1200000   12.0115
  183        CT    1  MOL    C183   183  -0.0600000   12.0115
  184         C    1  MOL    C184   184   0.5000000   12.0115
  185         O    1  MOL    O185   185  -0.5000000   15.9994
  186         N    1  MOL    N186   186  -0.7600000   14.0067
  187        HC    1  MOL    H187   187   0.0600000    1.0080
  188        HC    1  MOL    H188   188   0.0600000    1.0080
  189        HC    1  MOL    H189   189   0.0600000    1.0080
  190         H    1  MOL    H190   190   0.3800000    1.0080
  191         H    1  MOL    H191   191   0.3800000    1.0080
  192        CT    1  MOL    C192   192  -0.1200000   12.0115
  193        CT    1  MOL    C193   193  -0.1200000   12.0115
  194         C    1  MOL    C194   194   0.5000000   12.0115
  195         O    1  MOL    O195   195  -0.5000000   15.9994
  196         N    1  MOL    N196   196  -0.7600000   14.0067
  197        HC    1  MOL    H197   197   0.0600000    1.0080
  198        HC    1  MOL    H198   198   0.0600000    1.0080
  199        HC    1  MOL    H199   199   0.0600000    1.0080
  200         H    1  MOL    H200   200   0.3800000    1.0080
  201         H    1  MOL    H201   201   0.3800000    1.0080
  202        HC    1  MOL    H202   202   0.0600000    1.0080

[ bonds ]
      1      2   1      0.1529 224262.4000
      1      6   1      0.1090 284512.0000
      1      7   1      0.1090 284512.0000
      1     11   1      0.1090 284512.0000
      2      3   1      0.1522 265265.6000
      2      8   1      0.1090 284512.0000
      2     12   1      0.1529 224262.4000
      3      4   1      0.1229 476976.0000
      3      5   1      0.1335 410032.0000
      5      9   1      0.1010 363171.2000
      5     10   1      0.1010 363171.2000
     12     13   1      0.1529 224262.4000
     12     17   1      0.1090 284512.0000
     12     18   1      0.1090 284512.0000
     13     14   1      0.1522 265265.6000
     13     19   1      0.1090 284512.0000
     13     22   1      0.1529 224262.4000
     14     15   1      0.1229 476976.0000
     14     16   1      0.1335 410032.0000
     16     20   1      0.1010 363171.2000
     16     21   1      0.1010 363171.2000
     22     23   1      0.1529 224262.4000
     22     27   1      0.1090 284512.0000
     22     28   1      0.1090 284512.0000
     23     24   1      0.1522 265265.6000
     23     29   1      0.1090 284512.0000
     23     32   1      0.1529 224262.4000
     24     25   1      0.1229 476976.0000
     24     26   1      0.1335 410032.0000
     26     30   1      0.1010 363171.2000
     26     31   1      0.1010 363171.2000
     32     33   1      0.1529 224262.4000
     32     37   1      0.1090 284512.0000
     32     38   1      0.1090 284512.0000
     33     34   1      0.1522 265265.6000
     33     39   1      0.1090 284512.0000
     33     42   1      0.1529 224262.4000
     34     35   1      0.1229 476976.0000
     34     36   1      0.1335 410032.0000
     36     40   1      0.1010 363171.2000
     36     41   1      0.1010 363171.2000
     42     43   1      0.1529 224262.4000
     42     47   1      0.1090 284512.0000
     42     48   1      0.1090 284512.0000
     43     44   1      0.1522 265265.6000
     43     49   1      0.1090 284512.0000
     43     52   1      0.1529 224262.4000
     44     45   1      0.1229 476976.0000
     44     46   1      0.1335 410032.0000
     46     50   1      0.1010 363171.2000
     46     51   1      0.1010 363171.2000
     52     53   1      0.1529 224262.4000
     52     57   1      0.1090 284512.0000
     52     58   1      0.1090 284512.0000
     53     54   1      0.1522 265265.6000
     53     59   1      0.1090 284512.0000
     53     62   1      0.1529 224262.4000
     54     55   1      0.1229 476976.0000
     54     56   1      0.1335 410032.0000
     56     60   1      0.1010 363171.2000
     56     61   1      0.1010 363171.2000
     62     63   1      0.1529 224262.4000
     62     67   1      0.1090 284512.0000
     62     68   1      0.1090 284512.0000
     63     64   1      0.1522 265265.6000
     63     69   1      0.1090 284512.0000
     63     72   1      0.1529 224262.4000
     64     65   1      0.1229 476976.0000
     64     66   1      0.1335 410032.0000
     66     70   1      0.1010 363171.2000
     66     71   1      0.1010 363171.2000
     72     73   1      0.1529 224262.4000
     72     77   1      0.1090 284512.0000
     72     78   1      0.1090 284512.0000
     73     74   1      0.1522 265265.6000
     73     79   1      0.1090 284512.0000
     73     82   1      0.1529 224262.4000
     74     75   1      0.1229 476976.0000
     74     76   1      0.1335 410032.0000
     76     80   1      0.1010 363171.2000
     76     81   1      0.1010 363171.2000
     82     83   1      0.1529 224262.4000
     82     87   1      0.1090 284512.0000
     82     88   1      0.1090 284512.0000
     83     84   1      0.1522 265265.6000
     83     89   1      0.1090 284512.0000
     83     92   1      0.1529 224262.4000
     84     85   1      0.1229 476976.0000
     84     86   1      0.1335 410032.0000
     86     90   1      0.1010 363171.2000
     86     91   1      0.1010 363171.2000
     92     93   1      0.1529 224262.4000
     92     97   1      0.1090 284512.0000
     92     98   1      0.1090 284512.0000
     93     94   1      0.1522 265265.6000
     93     99   1      0.1090 284512.0000
     93    102   1      0.1529 224262.4000
     94     95   1      0.1229 476976.0000
     94     96   1      0.1335 410032.0000
     96    100   1      0.1010 363171.2000
     96    101   1      0.1010 363171.2000
    102    103   1      0.1529 224262.4000
    102    107   1      0.1090 284512.0000
    102    108   1      0.1090 284512.0000
    103    104   1      0.1522 265265.6000
    103    109   1      0.1090 284512.0000
    103    112   1      0.1529 224262.4000
    104    105   1      0.1229 476976.0000
    104    106   1      0.1335 410032.0000
    106    110   1      0.1010 363171.2000
    106    111   1      0.1010 363171.2000
    112    113   1      0.1529 224262.4000
    112    117   1      0.1090 284512.0000
    112    118   1      0.1090 284512.0000
    113    114   1      0.1522 265265.6000
    113    119   1      0.1090 284512.0000
    113    122   1      0.1529 224262.4000
    114    115   1      0.1229 476976.0000
    114    116   1      0.1335 410032.0000
    116    120   1      0.1010 363171.2000
    116    121   1      0.1010 363171.2000
    122    123   1      0.1529 224262.4000
    122    127   1      0.1090 284512.0000
    122    128   1      0.1090 284512.0000
    123    124   1      0.1522 265265.6000
    123    129   1      0.1090 284512.0000
    123    132   1      0.1529 224262.4000
    124    125   1      0.1229 476976.0000
    124    126   1      0.1335 410032.0000
    126    130   1      0.1010 363171.2000
    126    131   1      0.1010 363171.2000
    132    133   1      0.1529 224262.4000
    132    137   1      0.1090 284512.0000
    132    138   1      0.1090 284512.0000
    133    134   1      0.1522 265265.6000
    133    139   1      0.1090 284512.0000
    133    142   1      0.1529 224262.4000
    134    135   1      0.1229 476976.0000
    134    136   1      0.1335 410032.0000
    136    140   1      0.1010 363171.2000
    136    141   1      0.1010 363171.2000
    142    143   1      0.1529 224262.4000
    142    147   1      0.1090 284512.0000
    142    148   1      0.1090 284512.0000
    143    144   1      0.1522 265265.6000
    143    149   1      0.1090 284512.0000
    143    152   1      0.1529 224262.4000
    144    145   1      0.1229 476976.0000
    144    146   1      0.1335 410032.0000
    146    150   1      0.1010 363171.2000
    146    151   1      0.1010 363171.2000
    152    153   1      0.1529 224262.4000
    152    157   1      0.1090 284512.0000
    152    158   1      0.1090 284512.0000
    153    154   1      0.1522 265265.6000
    153    159   1      0.1090 284512.0000
    153    162   1      0.1529 224262.4000
    154    155   1      0.1229 476976.0000
    154    156   1      0.1335 410032.0000
    156    160   1      0.1010 363171.2000
    156    161   1      0.1010 363171.2000
    162    163   1      0.1529 224262.4000
    162    167   1      0.1090 284512.0000
    162    168   1      0.1090 284512.0000
    163    164   1      0.1522 265265.6000
    163    169   1      0.1090 284512.0000
    163    172   1      0.1529 224262.4000
    164    165   1      0.1229 476976.0000
    164    166   1      0.1335 410032.0000
    166    170   1      0.1010 363171.2000
    166    171   1      0.1010 363171.2000
    172    173   1      0.1529 224262.4000
    172    177   1      0.1090 284512.0000
    172    178   1      0.1090 284512.0000
    173    174   1      0.1522 265265.6000
    173    179   1      0.1090 284512.0000
    173    182   1      0.1529 224262.4000
    174    175   1      0.1229 476976.0000
    174    176   1      0.1335 410032.0000
    176    180   1      0.1010 363171.2000
    176    181   1      0.1010 363171.2000
    182    183   1      0.1529 224262.4000
    182    187   1      0.1090 284512.0000
    182    188   1      0.1090 284512.0000
    183    184   1      0.1522 265265.6000
    183    189   1      0.1090 284512.0000
    183    192   1      0.1529 224262.4000
    184    185   1      0.1229 476976.0000
    184    186   1      0.1335 410032.0000
    186    190   1      0.1010 363171.2000
    186    191   1      0.1010 363171.2000
    192    193   1      0.1529 224262.4000
    192    197   1      0.1090 284512.0000
    192    198   1      0.1090 284512.0000
    193    194   1      0.1522 265265.6000
    193    199   1      0.1090 284512.0000
    193    202   1      0.1090 284512.0000
    194    195   1      0.1229 476976.0000
    194    196   1      0.1335 410032.0000
    196    200   1      0.1010 363171.2000
    196    201   1      0.1010 363171.2000

[ pairs ]
; ai   aj   funct   fudge_QQ  charge_i   charge_j   c6    c12
      6      3   2   0.50000     0.0600000    0.5000000   3.869820e-04  3.188634e-07
      6      8   2   0.50000     0.0600000    0.0600000   6.128906e-05  1.496315e-08
      6     12   2   0.50000     0.0600000   -0.1200000   2.494471e-04  1.671101e-07
      7      3   2   0.50000     0.0600000    0.5000000   3.869820e-04  3.188634e-07
      7      8   2   0.50000     0.0600000    0.0600000   6.128906e-05  1.496315e-08
      7     12   2   0.50000     0.0600000   -0.1200000   2.494471e-04  1.671101e-07
     11      3   2   0.50000     0.0600000    0.5000000   3.869820e-04  3.188634e-07
     11      8   2   0.50000     0.0600000    0.0600000   6.128906e-05  1.496315e-08
     11     12   2   0.50000     0.0600000   -0.1200000   2.494471e-04  1.671101e-07
      1      4   2   0.50000    -0.1800000   -0.5000000   1.095425e-03  1.218041e-06
      1      5   2   0.50000    -0.1800000   -0.7600000   1.304585e-03  1.920112e-06
      8      4   2   0.50000     0.0600000   -0.5000000   2.691455e-04  1.090642e-07
      8      5   2   0.50000     0.0600000   -0.7600000   3.205360e-04  1.719281e-07
     12      4   2   0.50000    -0.1200000   -0.5000000   1.095425e-03  1.218041e-06
     12      5   2   0.50000    -0.1200000   -0.7600000   1.304585e-03  1.920112e-06
      1     13   2   0.50000    -0.1800000   -0.0600000   1.015252e-03  1.866303e-06
      1     17   2   0.50000    -0.1800000    0.0600000   2.494471e-04  1.671101e-07
      1     18   2   0.50000    -0.1800000    0.0600000   2.494471e-04  1.671101e-07
      3     13   2   0.50000     0.5000000   -0.0600000   1.575021e-03  3.561100e-06
      3     17   2   0.50000     0.5000000    0.0600000   3.869820e-04  3.188634e-07
      3     18   2   0.50000     0.5000000    0.0600000   3.869820e-04  3.188634e-07
      8     13   2   0.50000     0.0600000   -0.0600000   2.494471e-04  1.671101e-07
      8     17   2   0.50000     0.0600000    0.0600000   6.128906e-05  1.496315e-08
      8     18   2   0.50000     0.0600000    0.0600000   6.128906e-05  1.496315e-08
      2      9   2   0.50000    -0.0600000    0.3800000   1.995577e-06  1.069504e-11
      2     10   2   0.50000    -0.0600000    0.3800000   1.995577e-06  1.069504e-11
      4      9   2   0.50000    -0.5000000    0.3800000   2.153164e-06  6.980110e-12
      4     10   2   0.50000    -0.5000000    0.3800000   2.153164e-06  6.980110e-12
      2     14   2   0.50000    -0.0600000    0.5000000   1.575021e-03  3.561100e-06
      2     19   2   0.50000    -0.0600000    0.0600000   2.494471e-04  1.671101e-07
      2     22   2   0.50000    -0.0600000   -0.1200000   1.015252e-03  1.866303e-06
     17     14   2   0.50000     0.0600000    0.5000000   3.869820e-04  3.188634e-07
     17     19   2   0.50000     0.0600000    0.0600000   6.128906e-05  1.496315e-08
     17     22   2   0.50000     0.0600000   -0.1200000   2.494471e-04  1.671101e-07
     18     14   2   0.50000     0.0600000    0.5000000   3.869820e-04  3.188634e-07
     18     19   2   0.50000     0.0600000    0.0600000   6.128906e-05  1.496315e-08
     18     22   2   0.50000     0.0600000   -0.1200000   2.494471e-04  1.671101e-07
     12     15   2   0.50000    -0.1200000   -0.5000000   1.095425e-03  1.218041e-06
     12     16   2   0.50000    -0.1200000   -0.7600000   1.304585e-03  1.920112e-06
     19     15   2   0.50000     0.0600000   -0.5000000   2.691455e-04  1.090642e-07
     19     16   2   0.50000     0.0600000   -0.7600000   3.205360e-04  1.719281e-07
     22     15   2   0.50000    -0.1200000   -0.5000000   1.095425e-03  1.218041e-06
     22     16   2   0.50000    -0.1200000   -0.7600000   1.304585e-03  1.920112e-06
     12     23   2   0.50000    -0.1200000   -0.0600000   1.015252e-03  1.866303e-06
     12     27   2   0.50000    -0.1200000    0.0600000   2.494471e-04  1.671101e-07
     12     28   2   0.50000    -0.1200000    0.0600000   2.494471e-04  1.671101e-07
     14     23   2   0.50000     0.5000000   -0.0600000   1.575021e-03  3.561100e-06
     14     27   2   0.50000     0.5000000    0.0600000   3.869820e-04  3.188634e-07
     14     28   2   0.50000     0.5000000    0.0600000   3.869820e-04  3.188634e-07
     19     23   2   0.50000     0.0600000   -0.0600000   2.494471e-04  1.671101e-07
     19     27   2   0.50000     0.0600000    0.0600000   6.128906e-05  1.496315e-08
     19     28   2   0.50000     0.0600000    0.0600000   6.128906e-05  1.496315e-08
     13     20   2   0.50000    -0.0600000    0.3800000   1.995577e-06  1.069504e-11
     13     21   2   0.50000    -0.0600000    0.3800000   1.995577e-06  1.069504e-11
     15     20   2   0.50000    -0.5000000    0.3800000   2.153164e-06  6.980110e-12
     15     21   2   0.50000    -0.5000000    0.3800000   2.153164e-06  6.980110e-12
     13     24   2   0.50000    -0.0600000    0.5000000   1.575021e-03  3.561100e-06
     13     29   2   0.50000    -0.0600000    0.0600000   2.494471e-04  1.671101e-07
     13     32   2   0.50000    -0.0600000   -0.1200000   1.015252e-03  1.866303e-06
     27     24   2   0.50000     0.0600000    0.5000000   3.869820e-04  3.188634e-07
     27     29   2   0.50000     0.0600000    0.0600000   6.128906e-05  1.496315e-08
     27     32   2   0.50000     0.0600000   -0.1200000   2.494471e-04  1.671101e-07
     28     24   2   0.50000     0.0600000    0.5000000   3.869820e-04  3.188634e-07
     28     29   2   0.50000     0.0600000    0.0600000   6.128906e-05  1.496315e-08
     28     32   2   0.50000     0.0600000   -0.1200000   2.494471e-04  1.671101e-07
     22     25   2   0.50000    -0.1200000   -0.5000000   1.095425e-03  1.218041e-06
     22     26   2   0.50000    -0.1200000   -0.7600000   1.304585e-03  1.920112e-06
     29     25   2   0.50000     0.0600000   -0.5000000   2.691455e-04  1.090642e-07
     29     26   2   0.50000     0.0600000   -0.7600000   3.205360e-04  1.719281e-07
     32     25   2   0.50000    -0.1200000   -0.5000000   1.095425e-03  1.218041e-06
     32     26   2   0.50000    -0.1200000   -0.7600000   1.304585e-03  1.920112e-06
     22     33   2   0.50000    -0.1200000   -0.0600000   1.015252e-03  1.866303e-06
     22     37   2   0.50000    -0.1200000    0.0600000   2.494471e-04  1.671101e-07
     22     38   2   0.50000    -0.1200000    0.0600000   2.494471e-04  1.671101e-07
     24     33   2   0.50000     0.5000000   -0.0600000   1.575021e-03  3.561100e-06
     24     37   2   0.50000     0.5000000    0.0600000   3.869820e-04  3.188634e-07
     24     38   2   0.50000     0.5000000    0.0600000   3.869820e-04  3.188634e-07
     29     33   2   0.50000     0.0600000   -0.0600000   2.494471e-04  1.671101e-07
     29     37   2   0.50000     0.0600000    0.0600000   6.128906e-05  1.496315e-08
     29     38   2   0.50000     0.0600000    0.0600000   6.128906e-05  1.496315e-08
     23     30   2   0.50000    -0.0600000    0.3800000   1.995577e-06  1.069504e-11
     23     31   2   0.50000    -0.0600000    0.3800000   1.995577e-06  1.069504e-11
     25     30   2   0.50000    -0.5000000    0.3800000   2.153164e-06  6.980110e-12
     25     31   2   0.50000    -0.5000000    0.3800000   2.153164e-06  6.980110e-12
     23     34   2   0.50000    -0.0600000    0.5000000   1.575021e-03  3.561100e-06
     23     39   2   0.50000    -0.0600000    0.0600000   2.494471e-04  1.671101e-07
     23     42   2   0.50000    -0.0600000   -0.1200000   1.015252e-03  1.866303e-06
     37     34   2   0.50000     0.0600000    0.5000000   3.869820e-04  3.188634e-07
     37     39   2   0.50000     0.0600000    0.0600000   6.128906e-05  1.496315e-08
     37     42   2   0.50000     0.0600000   -0.1200000   2.494471e-04  1.671101e-07
     38     34   2   0.50000     0.0600000    0.5000000   3.869820e-04  3.188634e-07
     38     39   2   0.50000     0.0600000    0.0600000   6.128906e-05  1.496315e-08
     38     42   2   0.50000     0.0600000   -0.1200000   2.494471e-04  1.671101e-07
     32     35   2   0.50000    -0.1200000   -0.5000000   1.095425e-03  1.218041e-06
     32     36   2   0.50000    -0.1200000   -0.7600000   1.304585e-03  1.920112e-06
     39     35   2   0.50000     0.0600000   -0.5000000   2.691455e-04  1.090642e-07
     39     36   2   0.50000     0.0600000   -0.7600000   3.205360e-04  1.719281e-07
     42     35   2   0.50000    -0.1200000   -0.5000000   1.095425e-03  1.218041e-06
     42     36   2   0.50000    -0.1200000   -0.7600000   1.304585e-03  1.920112e-06
     32     43   2   0.50000    -0.1200000   -0.0600000   1.015252e-03  1.866303e-06
     32     47   2   0.50000    -0.1200000    0.0600000   2.494471e-04  1.671101e-07
     32     48   2   0.50000    -0.1200000    0.0600000   2.494471e-04  1.671101e-07
     34     43   2   0.50000     0.5000000   -0.0600000   1.575021e-03  3.561100e-06
     34     47   2   0.50000     0.5000000    0.0600000   3.869820e-04  3.188634e-07
     34     48   2   0.50000     0.5000000    0.0600000   3.869820e-04  3.188634e-07
     39     43   2   0.50000     0.0600000   -0.0600000   2.494471e-04  1.671101e-07
     39     47   2   0.50000     0.0600000    0.0600000   6.128906e-05  1.496315e-08
     39     48   2   0.50000     0.0600000    0.0600000   6.128906e-05  1.496315e-08
     33     40   2   0.50000    -0.0600000    0.3800000   1.995577e-06  1.069504e-11
     33     41   2   0.50000    -0.0600000    0.3800000   1.995577e-06  1.069504e-11
     35     40   2   0.50000    -0.5000000    0.3800000   2.153164e-06  6.980110e-12
     35     41   2   0.50000    -0.5000000    0.3800000   2.153164e-06  6.980110e-12
     33     44   2   0.50000    -0.0600000    0.5000000   1.575021e-03  3.561100e-06
     33     49   2   0.50000    -0.0600000    0.0600000   2.494471e-04  1.671101e-07
     33     52   2   0.50000    -0.0600000   -0.1200000   1.015252e-03  1.866303e-06
     47     44   2   0.50000     0.0600000    0.5000000   3.869820e-04  3.188634e-07
     47     49   2   0.50000     0.0600000    0.0600000   6.128906e-05  1.496315e-08
     47     52   2   0.50000     0.0600000   -0.1200000   2.494471e-04  1.671101e-07
     48     44   2   0.50000     0.0600000    0.5000000   3.869820e-04  3.188634e-07
     48     49   2   0.50000     0.0600000    0.0600000   6.128906e-05  1.496315e-08
     48     52   2   0.50000     0.0600000   -0.1200000   2.494471e-04  1.671101e-07
     42     45   2   0.50000    -0.1200000   -0.5000000   1.095425e-03  1.218041e-06
     42     46   2   0.50000    -0.1200000   -0.7600000   1.304585e-03  1.920112e-06
     49     45   2   0.50000     0.0600000   -0.5000000   2.691455e-04  1.090642e-07
     49     46   2   0.50000     0.0600000   -0.7600000   3.205360e-04  1.719281e-07
     52     45   2   0.50000    -0.1200000   -0.5000000   1.095425e-03  1.218041e-06
     52     46   2   0.50000    -0.1200000   -0.7600000   1.304585e-03  1.920112e-06
     42     53   2   0.50000    -0.1200000   -0.0600000   1.015252e-03  1.866303e-06
     42     57   2   0.50000    -0.1200000    0.0600000   2.494471e-04  1.671101e-07
     42     58   2   0.50000    -0.1200000    0.0600000   2.494471e-04  1.671101e-07
     44     53   2   0.50000     0.5000000   -0.0600000   1.575021e-03  3.561100e-06
     44     57   2   0.50000     0.5000000    0.0600000   3.869820e-04  3.188634e-07
     44     58   2   0.50000     0.5000000    0.0600000   3.869820e-04  3.188634e-07
     49     53   2   0.50000     0.0600000   -0.0600000   2.494471e-04  1.671101e-07
     49     57   2   0.50000     0.0600000    0.0600000   6.128906e-05  1.496315e-08
     49     58   2   0.50000     0.0600000    0.0600000   6.128906e-05  1.496315e-08
     43     50   2   0.50000    -0.0600000    0.3800000   1.995577e-06  1.069504e-11
     43     51   2   0.50000    -0.0600000    0.3800000   1.995577e-06  1.069504e-11
     45     50   2   0.50000    -0.5000000    0.3800000   2.153164e-06  6.980110e-12
     45     51   2   0.50000    -0.5000000    0.3800000   2.153164e-06  6.980110e-12
     43     54   2   0.50000    -0.0600000    0.5000000   1.575021e-03  3.561100e-06
     43     59   2   0.50000    -0.0600000    0.0600000   2.494471e-04  1.671101e-07
     43     62   2   0.50000    -0.0600000   -0.1200000   1.015252e-03  1.866303e-06
     57     54   2   0.50000     0.0600000    0.5000000   3.869820e-04  3.188634e-07
     57     59   2   0.50000     0.0600000    0.0600000   6.128906e-05  1.496315e-08
     57     62   2   0.50000     0.0600000   -0.1200000   2.494471e-04  1.671101e-07
     58     54   2   0.50000     0.0600000    0.5000000   3.869820e-04  3.188634e-07
     58     59   2   0.50000     0.0600000    0.0600000   6.128906e-05  1.496315e-08
     58     62   2   0.50000     0.0600000   -0.1200000   2.494471e-04  1.671101e-07
     52     55   2   0.50000    -0.1200000   -0.5000000   1.095425e-03  1.218041e-06
     52     56   2   0.50000    -0.1200000   -0.7600000   1.304585e-03  1.920112e-06
     59     55   2   0.50000     0.0600000   -0.5000000   2.691455e-04  1.090642e-07
     59     56   2   0.50000     0.0600000   -0.7600000   3.205360e-04  1.719281e-07
     62     55   2   0.50000    -0.1200000   -0.5000000   1.095425e-03  1.218041e-06
     62     56   2   0.50000    -0.1200000   -0.7600000   1.304585e-03  1.920112e-06
     52     63   2   0.50000    -0.1200000   -0.0600000   1.015252e-03  1.866303e-06
     52     67   2   0.50000    -0.1200000    0.0600000   2.494471e-04  1.671101e-07
     52     68   2   0.50000    -0.1200000    0.0600000   2.494471e-04  1.671101e-07
     54     63   2   0.50000     0.5000000   -0.0600000   1.575021e-03  3.561100e-06
     54     67   2   0.50000     0.5000000    0.0600000   3.869820e-04  3.188634e-07
     54     68   2   0.50000     0.5000000    0.0600000   3.869820e-04  3.188634e-07
     59     63   2   0.50000     0.0600000   -0.0600000   2.494471e-04  1.671101e-07
     59     67   2   0.50000     0.0600000    0.0600000   6.128906e-05  1.496315e-08
     59     68   2   0.50000     0.0600000    0.0600000   6.128906e-05  1.496315e-08
     53     60   2   0.50000    -0.0600000    0.3800000   1.995577e-06  1.069504e-11
     53     61   2   0.50000    -0.0600000    0.3800000   1.995577e-06  1.069504e-11
     55     60   2   0.50000    -0.5000000    0.3800000   2.153164e-06  6.980110e-12
     55     61   2   0.50000    -0.5000000    0.3800000   2.153164e-06  6.980110e-12
     53     64   2   0.50000    -0.0600000    0.5000000   1.575021e-03  3.561100e-06
     53     69   2   0.50000    -0.0600000    0.0600000   2.494471e-04  1.671101e-07
     53     72   2   0.50000    -0.0600000   -0.1200000   1.015252e-03  1.866303e-06
     67     64   2   0.50000     0.0600000    0.5000000   3.869820e-04  3.188634e-07
     67     69   2   0.50000     0.0600000    0.0600000   6.128906e-05  1.496315e-08
     67     72   2   0.50000     0.0600000   -0.1200000   2.494471e-04  1.671101e-07
     68     64   2   0.50000     0.0600000    0.5000000   3.869820e-04  3.188634e-07
     68     69   2   0.50000     0.0600000    0.0600000   6.128906e-05  1.496315e-08
     68     72   2   0.50000     0.0600000   -0.1200000   2.494471e-04  1.671101e-07
     62     65   2   0.50000    -0.1200000   -0.5000000   1.095425e-03  1.218041e-06
     62     66   2   0.50000    -0.1200000   -0.7600000   1.304585e-03  1.920112e-06
     69     65   2   0.50000     0.0600000   -0.5000000   2.691455e-04  1.090642e-07
     69     66   2   0.50000     0.0600000   -0.7600000   3.205360e-04  1.719281e-07
     72     65   2   0.50000    -0.1200000   -0.5000000   1.095425e-03  1.218041e-06
     72     66   2   0.50000    -0.1200000   -0.7600000   1.304585e-03  1.920112e-06
     62     73   2   0.50000    -0.1200000   -0.0600000   1.015252e-03  1.866303e-06
     62     77   2   0.50000    -0.1200000    0.0600000   2.494471e-04  1.671101e-07
     62     78   2   0.50000    -0.1200000    0.0600000   2.494471e-04  1.671101e-07
     64     73   2   0.50000     0.5000000   -0.0600000   1.575021e-03  3.561100e-06
     64     77   2   0.50000     0.5000000    0.0600000   3.869820e-04  3.188634e-07
     64     78   2   0.50000     0.5000000    0.0600000   3.869820e-04  3.188634e-07
     69     73   2   0.50000     0.0600000   -0.0600000   2.494471e-04  1.671101e-07
     69     77   2   0.50000     0.0600000    0.0600000   6.128906e-05  1.496315e-08
     69     78   2   0.50000     0.0600000    0.0600000   6.128906e-05  1.496315e-08
     63     70   2   0.50000    -0.0600000    0.3800000   1.995577e-06  1.069504e-11
     63     71   2   0.50000    -0.0600000    0.3800000   1.995577e-06  1.069504e-11
     65     70   2   0.50000    -0.5000000    0.3800000   2.153164e-06  6.980110e-12
     65     71   2   0.50000    -0.5000000    0.3800000   2.153164e-06  6.980110e-12
     63     74   2   0.50000    -0.0600000    0.5000000   1.575021e-03  3.561100e-06
     63     79   2   0.50000    -0.0600000    0.0600000   2.494471e-04  1.671101e-07
     63     82   2   0.50000    -0.0600000   -0.1200000   1.015252e-03  1.866303e-06
     77     74   2   0.50000     0.0600000    0.5000000   3.869820e-04  3.188634e-07
     77     79   2   0.50000     0.0600000    0.0600000   6.128906e-05  1.496315e-08
     77     82   2   0.50000     0.0600000   -0.1200000   2.494471e-04  1.671101e-07
     78     74   2   0.50000     0.0600000    0.5000000   3.869820e-04  3.188634e-07
     78     79   2   0.50000     0.0600000    0.0600000   6.128906e-05  1.496315e-08
     78     82   2   0.50000     0.0600000   -0.1200000   2.494471e-04  1.671101e-07
     72     75   2   0.50000    -0.1200000   -0.5000000   1.095425e-03  1.218041e-06
     72     76   2   0.50000    -0.1200000   -0.7600000   1.304585e-03  1.920112e-06
     79     75   2   0.50000     0.0600000   -0.5000000   2.691455e-04  1.090642e-07
     79     76   2   0.50000     0.0600000   -0.7600000   3.205360e-04  1.719281e-07
     82     75   2   0.50000    -0.1200000   -0.5000000   1.095425e-03  1.218041e-06
     82     76   2   0.50000    -0.1200000   -0.7600000   1.304585e-03  1.920112e-06
     72     83   2   0.50000    -0.1200000   -0.0600000   1.015252e-03  1.866303e-06
     72     87   2   0.50000    -0.1200000    0.0600000   2.494471e-04  1.671101e-07
     72     88   2   0.50000    -0.1200000    0.0600000   2.494471e-04  1.671101e-07
     74     83   2   0.50000     0.5000000   -0.0600000   1.575021e-03  3.561100e-06
     74     87   2   0.50000     0.5000000    0.0600000   3.869820e-04  3.188634e-07
     74     88   2   0.50000     0.5000000    0.0600000   3.869820e-04  3.188634e-07
     79     83   2   0.50000     0.0600000   -0.0600000   2.494471e-04  1.671101e-07
     79     87   2   0.50000     0.0600000    0.0600000   6.128906e-05  1.496315e-08
     79     88   2   0.50000     0.0600000    0.0600000   6.128906e-05  1.496315e-08
     73     80   2   0.50000    -0.0600000    0.3800000   1.995577e-06  1.069504e-11
     73     81   2   0.50000    -0.0600000    0.3800000   1.995577e-06  1.069504e-11
     75     80   2   0.50000    -0.5000000    0.3800000   2.153164e-06  6.980110e-12
     75     81   2   0.50000    -0.5000000    0.3800000   2.153164e-06  6.980110e-12
     73     84   2   0.50000    -0.0600000    0.5000000   1.575021e-03  3.561100e-06
     73     89   2   0.50000    -0.0600000    0.0600000   2.494471e-04  1.671101e-07
     73     92   2   0.50000    -0.0600000   -0.1200000   1.015252e-03  1.866303e-06
     87     84   2   0.50000     0.0600000    0.5000000   3.869820e-04  3.188634e-07
     87     89   2   0.50000     0.0600000    0.0600000   6.128906e-05  1.496315e-08
     87     92   2   0.50000     0.0600000   -0.1200000   2.494471e-04  1.671101e-07
     88     84   2   0.50000     0.0600000    0.5000000   3.869820e-04  3.188634e-07
     88     89   2   0.50000     0.0600000    0.0600000   6.128906e-05  1.496315e-08
     88     92   2   0.50000     0.0600000   -0.1200000   2.494471e-04  1.671101e-07
     82     85   2   0.50000    -0.1200000   -0.5000000   1.095425e-03  1.218041e-06
     82     86   2   0.50000    -0.1200000   -0.7600000   1.304585e-03  1.920112e-06
     89     85   2   0.50000     0.0600000   -0.5000000   2.691455e-04  1.090642e-07
     89     86   2   0.50000     0.0600000   -0.7600000   3.205360e-04  1.719281e-07
     92     85   2   0.50000    -0.1200000   -0.5000000   1.095425e-03  1.218041e-06
     92     86   2   0.50000    -0.1200000   -0.7600000   1.304585e-03  1.920112e-06
     82     93   2   0.50000    -0.1200000   -0.0600000   1.015252e-03  1.866303e-06
     82     97   2   0.50000    -0.1200000    0.0600000   2.494471e-04  1.671101e-07
     82     98   2   0.50000    -0.1200000    0.0600000   2.494471e-04  1.671101e-07
     84     93   2   0.50000     0.5000000   -0.0600000   1.575021e-03  3.561100e-06
     84     97   2   0.50000     0.5000000    0.0600000   3.869820e-04  3.188634e-07
     84     98   2   0.50000     0.5000000    0.0600000   3.869820e-04  3.188634e-07
     89     93   2   0.50000     0.0600000   -0.0600000   2.494471e-04  1.671101e-07
     89     97   2   0.50000     0.0600000    0.0600000   6.128906e-05  1.496315e-08
     89     98   2   0.50000     0.0600000    0.0600000   6.128906e-05  1.496315e-08
     83     90   2   0.50000    -0.0600000    0.3800000   1.995577e-06  1.069504e-11
     83     91   2   0.50000    -0.0600000    0.3800000   1.995577e-06  1.069504e-11
     85     90   2   0.50000    -0.5000000    0.3800000   2.153164e-06  6.980110e-12
     85     91   2   0.50000    -0.5000000    0.3800000   2.153164e-06  6.980110e-12
     83     94   2   0.50000    -0.0600000    0.5000000   1.575021e-03  3.561100e-06
     83     99   2   0.50000    -0.0600000    0.0600000   2.494471e-04  1.671101e-07
     83    102   2   0.50000    -0.0600000   -0.1200000   1.015252e-03  1.866303e-06
     97     94   2   0.50000     0.0600000    0.5000000   3.869820e-04  3.188634e-07
     97     99   2   0.50000     0.0600000    0.0600000   6.128906e-05  1.496315e-08
     97    102   2   0.50000     0.0600000   -0.1200000   2.494471e-04  1.671101e-07
     98     94   2   0.50000     0.0600000    0.5000000   3.869820e-04  3.188634e-07
     98     99   2   0.50000     0.0600000    0.0600000   6.128906e-05  1.496315e-08
     98    102   2   0.50000     0.0600000   -0.1200000   2.494471e-04  1.671101e-07
     92     95   2   0.50000    -0.1200000   -0.5000000   1.095425e-03  1.218041e-06
     92     96   2   0.50000    -0.1200000   -0.7600000   1.304585e-03  1.920112e-06
     99     95   2   0.50000     0.0600000   -0.5000000   2.691455e-04  1.090642e-07
     99     96   2   0.50000     0.0600000   -0.7600000   3.205360e-04  1.719281e-07
    102     95   2   0.50000    -0.1200000   -0.5000000   1.095425e-03  1.218041e-06
    102     96   2   0.50000    -0.1200000   -0.7600000   1.304585e-03  1.920112e-06
     92    103   2   0.50000    -0.1200000   -0.0600000   1.015252e-03  1.866303e-06
     92    107   2   0.50000    -0.1200000    0.0600000   2.494471e-04  1.671101e-07
     92    108   2   0.50000    -0.1200000    0.0600000   2.494471e-04  1.671101e-07
     94    103   2   0.50000     0.5000000   -0.0600000   1.575021e-03  3.561100e-06
     94    107   2   0.50000     0.5000000    0.0600000   3.869820e-04  3.188634e-07
     94    108   2   0.50000     0.5000000    0.0600000   3.869820e-04  3.188634e-07
     99    103   2   0.50000     0.0600000   -0.0600000   2.494471e-04  1.671101e-07
     99    107   2   0.50000     0.0600000    0.0600000   6.128906e-05  1.496315e-08
     99    108   2   0.50000     0.0600000    0.0600000   6.128906e-05  1.496315e-08
     93    100   2   0.50000    -0.0600000    0.3800000   1.995577e-06  1.069504e-11
     93    101   2   0.50000    -0.0600000    0.3800000   1.995577e-06  1.069504e-11
     95    100   2   0.50000    -0.5000000    0.3800000   2.153164e-06  6.980110e-12
     95    101   2   0.50000    -0.5000000    0.3800000   2.153164e-06  6.980110e-12
     93    104   2   0.50000    -0.0600000    0.5000000   1.575021e-03  3.561100e-06
     93    109   2   0.50000    -0.0600000    0.0600000   2.494471e-04  1.671101e-07
     93    112   2   0.50000    -0.0600000   -0.1200000   1.015252e-03  1.866303e-06
    107    104   2   0.50000     0.0600000    0.5000000   3.869820e-04  3.188634e-07
    107    109   2   0.50000     0.0600000    0.0600000   6.128906e-05  1.496315e-08
    107    112   2   0.50000     0.0600000   -0.1200000   2.494471e-04  1.671101e-07
    108    104   2   0.50000     0.0600000    0.5000000   3.869820e-04  3.188634e-07
    108    109   2   0.50000     0.0600000    0.0600000   6.128906e-05  1.496315e-08
    108    112   2   0.50000     0.0600000   -0.1200000   2.494471e-04  1.671101e-07
    102    105   2   0.50000    -0.1200000   -0.5000000   1.095425e-03  1.218041e-06
    102    106   2   0.50000    -0.1200000   -0.7600000   1.304585e-03  1.920112e-06
    109    105   2   0.50000     0.0600000   -0.5000000   2.691455e-04  1.090642e-07
    109    106   2   0.50000     0.0600000   -0.7600000   3.205360e-04  1.719281e-07
    112    105   2   0.50000    -0.1200000   -0.5000000   1.095425e-03  1.218041e-06
    112    106   2   0.50000    -0.1200000   -0.7600000   1.304585e-03  1.920112e-06
    102    113   2   0.50000    -0.1200000   -0.0600000   1.015252e-03  1.866303e-06
    102    117   2   0.50000    -0.1200000    0.0600000   2.494471e-04  1.671101e-07
    102    118   2   0.50000    -0.1200000    0.0600000   2.494471e-04  1.671101e-07
    104    113   2   0.50000     0.5000000   -0.0600000   1.575021e-03  3.561100e-06
    104    117   2   0.50000     0.5000000    0.0600000   3.869820e-04  3.188634e-07
    104    118   2   0.50000     0.5000000    0.0600000   3.869820e-04  3.188634e-07
    109    113   2   0.50000     0.0600000   -0.0600000   2.494471e-04  1.671101e-07
    109    117   2   0.50000     0.0600000    0.0600000   6.128906e-05  1.496315e-08
    109    118   2   0.50000     0.0600000    0.0600000   6.128906e-05  1.496315e-08
    103    110   2   0.50000    -0.0600000    0.3800000   1.995577e-06  1.069504e-11
    103    111   2   0.50000    -0.0600000    0.3800000   1.995577e-06  1.069504e-11
    105    110   2   0.50000    -0.5000000    0.3800000   2.153164e-06  6.980110e-12
    105    111   2   0.50000    -0.5000000    0.3800000   2.153164e-06  6.980110e-12
    103    114   2   0.50000    -0.0600000    0.5000000   1.575021e-03  3.561100e-06
    103    119   2   0.50000    -0.0600000    0.0600000   2.494471e-04  1.671101e-07
    103    122   2   0.50000    -0.0600000   -0.1200000   1.015252e-03  1.866303e-06
    117    114   2   0.50000     0.0600000    0.5000000   3.869820e-04  3.188634e-07
    117    119   2   0.50000     0.0600000    0.0600000   6.128906e-05  1.496315e-08
    117    122   2   0.50000     0.0600000   -0.1200000   2.494471e-04  1.671101e-07
    118    114   2   0.50000     0.0600000    0.5000000   3.869820e-04  3.188634e-07
    118    119   2   0.50000     0.0600000    0.0600000   6.128906e-05  1.496315e-08
    118    122   2   0.50000     0.0600000   -0.1200000   2.494471e-04  1.671101e-07
    112    115   2   0.50000    -0.1200000   -0.5000000   1.095425e-03  1.218041e-06
    112    116   2   0.50000    -0.1200000   -0.7600000   1.304585e-03  1.920112e-06
    119    115   2   0.50000     0.0600000   -0.5000000   2.691455e-04  1.090642e-07
    119    116   2   0.50000     0.0600000   -0.7600000   3.205360e-04  1.719281e-07
    122    115   2   0.50000    -0.1200000   -0.5000000   1.095425e-03  1.218041e-06
    122    116   2   0.50000    -0.1200000   -0.7600000   1.304585e-03  1.920112e-06
    112    123   2   0.50000    -0.1200000   -0.0600000   1.015252e-03  1.866303e-06
    112    127   2   0.50000    -0.1200000    0.0600000   2.494471e-04  1.671101e-07
    112    128   2   0.50000    -0.1200000    0.0600000   2.494471e-04  1.671101e-07
    114    123   2   0.50000     0.5000000   -0.0600000   1.575021e-03  3.561100e-06
    114    127   2   0.50000     0.5000000    0.0600000   3.869820e-04  3.188634e-07
    114    128   2   0.50000     0.5000000    0.0600000   3.869820e-04  3.188634e-07
    119    123   2   0.50000     0.0600000   -0.0600000   2.494471e-04  1.671101e-07
    119    127   2   0.50000     0.0600000    0.0600000   6.128906e-05  1.496315e-08
    119    128   2   0.50000     0.0600000    0.0600000   6.128906e-05  1.496315e-08
    113    120   2   0.50000    -0.0600000    0.3800000   1.995577e-06  1.069504e-11
    113    121   2   0.50000    -0.0600000    0.3800000   1.995577e-06  1.069504e-11
    115    120   2   0.50000    -0.5000000    0.3800000   2.153164e-06  6.980110e-12
    115    121   2   0.50000    -0.5000000    0.3800000   2.153164e-06  6.980110e-12
    113    124   2   0.50000    -0.0600000    0.5000000   1.575021e-03  3.561100e-06
    113    129   2   0.50000    -0.0600000    0.0600000   2.494471e-04  1.671101e-07
    113    132   2   0.50000    -0.0600000   -0.1200000   1.015252e-03  1.866303e-06
    127    124   2   0.50000     0.0600000    0.5000000   3.869820e-04  3.188634e-07
    127    129   2   0.50000     0.0600000    0.0600000   6.128906e-05  1.496315e-08
    127    132   2   0.50000     0.0600000   -0.1200000   2.494471e-04  1.671101e-07
    128    124   2   0.50000     0.0600000    0.5000000   3.869820e-04  3.188634e-07
    128    129   2   0.50000     0.0600000    0.0600000   6.128906e-05  1.496315e-08
    128    132   2   0.50000     0.0600000   -0.1200000   2.494471e-04  1.671101e-07
    122    125   2   0.50000    -0.1200000   -0.5000000   1.095425e-03  1.218041e-06
    122    126   2   0.50000    -0.1200000   -0.7600000   1.304585e-03  1.920112e-06
    129    125   2   0.50000     0.0600000   -0.5000000   2.691455e-04  1.090642e-07
    129    126   2   0.50000     0.0600000   -0.7600000   3.205360e-04  1.719281e-07
    132    125   2   0.50000    -0.1200000   -0.5000000   1.095425e-03  1.218041e-06
    132    126   2   0.50000    -0.1200000   -0.7600000   1.304585e-03  1.920112e-06
    122    133   2   0.50000    -0.1200000   -0.0600000   1.015252e-03  1.866303e-06
    122    137   2   0.50000    -0.1200000    0.0600000   2.494471e-04  1.671101e-07
    122    138   2   0.50000    -0.1200000    0.0600000   2.494471e-04  1.671101e-07
    124    133   2   0.50000     0.5000000   -0.0600000   1.575021e-03  3.561100e-06
    124    137   2   0.50000     0.5000000    0.0600000   3.869820e-04  3.188634e-07
    124    138   2   0.50000     0.5000000    0.0600000   3.869820e-04  3.188634e-07
    129    133   2   0.50000     0.0600000   -0.0600000   2.494471e-04  1.671101e-07
    129    137   2   0.50000     0.0600000    0.0600000   6.128906e-05  1.496315e-08
    129    138   2   0.50000     0.0600000    0.0600000   6.128906e-05  1.496315e-08
    123    130   2   0.50000    -0.0600000    0.3800000   1.995577e-06  1.069504e-11
    123    131   2   0.50000    -0.0600000    0.3800000   1.995577e-06  1.069504e-11
    125    130   2   0.50000    -0.5000000    0.3800000   2.153164e-06  6.980110e-12
    125    131   2   0.50000    -0.5000000    0.3800000   2.153164e-06  6.980110e-12
    123    134   2   0.50000    -0.0600000    0.5000000   1.575021e-03  3.561100e-06
    123    139   2   0.50000    -0.0600000    0.0600000   2.494471e-04  1.671101e-07
    123    142   2   0.50000    -0.0600000   -0.1200000   1.015252e-03  1.866303e-06
    137    134   2   0.50000     0.0600000    0.5000000   3.869820e-04  3.188634e-07
    137    139   2   0.50000     0.0600000    0.0600000   6.128906e-05  1.496315e-08
    137    142   2   0.50000     0.0600000   -0.1200000   2.494471e-04  1.671101e-07
    138    134   2   0.50000     0.0600000    0.5000000   3.869820e-04  3.188634e-07
    138    139   2   0.50000     0.0600000    0.0600000   6.128906e-05  1.496315e-08
    138    142   2   0.50000     0.0600000   -0.1200000   2.494471e-04  1.671101e-07
    132    135   2   0.50000    -0.1200000   -0.5000000   1.095425e-03  1.218041e-06
    132    136   2   0.50000    -0.1200000   -0.7600000   1.304585e-03  1.920112e-06
    139    135   2   0.50000     0.0600000   -0.5000000   2.691455e-04  1.090642e-07
    139    136   2   0.50000     0.0600000   -0.7600000   3.205360e-04  1.719281e-07
    142    135   2   0.50000    -0.1200000   -0.5000000   1.095425e-03  1.218041e-06
    142    136   2   0.50000    -0.1200000   -0.7600000   1.304585e-03  1.920112e-06
    132    143   2   0.50000    -0.1200000   -0.0600000   1.015252e-03  1.866303e-06
    132    147   2   0.50000    -0.1200000    0.0600000   2.494471e-04  1.671101e-07
    132    148   2   0.50000    -0.1200000    0.0600000   2.494471e-04  1.671101e-07
    134    143   2   0.50000     0.5000000   -0.0600000   1.575021e-03  3.561100e-06
    134    147   2   0.50000     0.5000000    0.0600000   3.869820e-04  3.188634e-07
    134    148   2   0.50000     0.5000000    0.0600000   3.869820e-04  3.188634e-07
    139    143   2   0.50000     0.0600000   -0.0600000   2.494471e-04  1.671101e-07
    139    147   2   0.50000     0.0600000    0.0600000   6.128906e-05  1.496315e-08
    139    148   2   0.50000     0.0600000    0.0600000   6.128906e-05  1.496315e-08
    133    140   2   0.50000    -0.0600000    0.3800000   1.995577e-06  1.069504e-11
    133    141   2   0.50000    -0.0600000    0.3800000   1.995577e-06  1.069504e-11
    135    140   2   0.50000    -0.5000000    0.3800000   2.153164e-06  6.980110e-12
    135    141   2   0.50000    -0.5000000    0.3800000   2.153164e-06  6.980110e-12
    133    144   2   0.50000    -0.0600000    0.5000000   1.575021e-03  3.561100e-06
    133    149   2   0.50000    -0.0600000    0.0600000   2.494471e-04  1.671101e-07
    133    152   2   0.50000    -0.0600000   -0.1200000   1.015252e-03  1.866303e-06
    147    144   2   0.50000     0.0600000    0.5000000   3.869820e-04  3.188634e-07
    147    149   2   0.50000     0.0600000    0.0600000   6.128906e-05  1.496315e-08
    147    152   2   0.50000     0.0600000   -0.1200000   2.494471e-04  1.671101e-07
    148    144   2   0.50000     0.0600000    0.5000000   3.869820e-04  3.188634e-07
    148    149   2   0.50000     0.0600000    0.0600000   6.128906e-05  1.496315e-08
    148    152   2   0.50000     0.0600000   -0.1200000   2.494471e-04  1.671101e-07
    142    145   2   0.50000    -0.1200000   -0.5000000   1.095425e-03  1.218041e-06
    142    146   2   0.50000    -0.1200000   -0.7600000   1.304585e-03  1.920112e-06
    149    145   2   0.50000     0.0600000   -0.5000000   2.691455e-04  1.090642e-07
    149    146   2   0.50000     0.0600000   -0.7600000   3.205360e-04  1.719281e-07
    152    145   2   0.50000    -0.1200000   -0.5000000   1.095425e-03  1.218041e-06
    152    146   2   0.50000    -0.1200000   -0.7600000   1.304585e-03  1.920112e-06
    142    153   2   0.50000    -0.1200000   -0.0600000   1.015252e-03  1.866303e-06
    142    157   2   0.50000    -0.1200000    0.0600000   2.494471e-04  1.671101e-07
    142    158   2   0.50000    -0.1200000    0.0600000   2.494471e-04  1.671101e-07
    144    153   2   0.50000     0.5000000   -0.0600000   1.575021e-03  3.561100e-06
    144    157   2   0.50000     0.5000000    0.0600000   3.869820e-04  3.188634e-07
    144    158   2   0.50000     0.5000000    0.0600000   3.869820e-04  3.188634e-07
    149    153   2   0.50000     0.0600000   -0.0600000   2.494471e-04  1.671101e-07
    149    157   2   0.50000     0.0600000    0.0600000   6.128906e-05  1.496315e-08
    149    158   2   0.50000     0.0600000    0.0600000   6.128906e-05  1.496315e-08
    143    150   2   0.50000    -0.0600000    0.3800000   1.995577e-06  1.069504e-11
    143    151   2   0.50000    -0.0600000    0.3800000   1.995577e-06  1.069504e-11
    145    150   2   0.50000    -0.5000000    0.3800000   2.153164e-06  6.980110e-12
    145    151   2   0.50000    -0.5000000    0.3800000   2.153164e-06  6.980110e-12
    143    154   2   0.50000    -0.0600000    0.5000000   1.575021e-03  3.561100e-06
    143    159   2   0.50000    -0.0600000    0.0600000   2.494471e-04  1.671101e-07
    143    162   2   0.50000    -0.0600000   -0.1200000   1.015252e-03  1.866303e-06
    157    154   2   0.50000     0.0600000    0.5000000   3.869820e-04  3.188634e-07
    157    159   2   0.50000     0.0600000    0.0600000   6.128906e-05  1.496315e-08
    157    162   2   0.50000     0.0600000   -0.1200000   2.494471e-04  1.671101e-07
    158    154   2   0.50000     0.0600000    0.5000000   3.869820e-04  3.188634e-07
    158    159   2   0.50000     0.0600000    0.0600000   6.128906e-05  1.496315e-08
    158    162   2   0.50000     0.0600000   -0.1200000   2.494471e-04  1.671101e-07
    152    155   2   0.50000    -0.1200000   -0.5000000   1.095425e-03  1.218041e-06
    152    156   2   0.50000    -0.1200000   -0.7600000   1.304585e-03  1.920112e-06
    159    155   2   0.50000     0.0600000   -0.5000000   2.691455e-04  1.090642e-07
    159    156   2   0.50000     0.0600000   -0.7600000   3.205360e-04  1.719281e-07
    162    155   2   0.50000    -0.1200000   -0.5000000   1.095425e-03  1.218041e-06
    162    156   2   0.50000    -0.1200000   -0.7600000   1.304585e-03  1.920112e-06
    152    163   2   0.50000    -0.1200000   -0.0600000   1.015252e-03  1.866303e-06
    152    167   2   0.50000    -0.1200000    0.0600000   2.494471e-04  1.671101e-07
    152    168   2   0.50000    -0.1200000    0.0600000   2.494471e-04  1.671101e-07
    154    163   2   0.50000     0.5000000   -0.0600000   1.575021e-03  3.561100e-06
    154    167   2   0.50000     0.5000000    0.0600000   3.869820e-04  3.188634e-07
    154    168   2   0.50000     0.5000000    0.0600000   3.869820e-04  3.188634e-07
    159    163   2   0.50000     0.0600000   -0.0600000   2.494471e-04  1.671101e-07
    159    167   2   0.50000     0.0600000    0.0600000   6.128906e-05  1.496315e-08
    159    168   2   0.50000     0.0600000    0.0600000   6.128906e-05  1.496315e-08
    153    160   2   0.50000    -0.0600000    0.3800000   1.995577e-06  1.069504e-11
    153    161   2   0.50000    -0.0600000    0.3800000   1.995577e-06  1.069504e-11
    155    160   2   0.50000    -0.5000000    0.3800000   2.153164e-06  6.980110e-12
    155    161   2   0.50000    -0.5000000    0.3800000   2.153164e-06  6.980110e-12
    153    164   2   0.50000    -0.0600000    0.5000000   1.575021e-03  3.561100e-06
    153    169   2   0.50000    -0.0600000    0.0600000   2.494471e-04  1.671101e-07
    153    172   2   0.50000    -0.0600000   -0.1200000   1.015252e-03  1.866303e-06
    167    164   2   0.50000     0.0600000    0.5000000   3.869820e-04  3.188634e-07
    167    169   2   0.50000     0.0600000    0.0600000   6.128906e-05  1.496315e-08
    167    172   2   0.50000     0.0600000   -0.1200000   2.494471e-04  1.671101e-07
    168    164   2   0.50000     0.0600000    0.5000000   3.869820e-04  3.188634e-07
    168    169   2   0.50000     0.0600000    0.0600000   6.128906e-05  1.496315e-08
    168    172   2   0.50000     0.0600000   -0.1200000   2.494471e-04  1.671101e-07
    162    165   2   0.50000    -0.1200000   -0.5000000   1.095425e-03  1.218041e-06
    162    166   2   0.50000    -0.1200000   -0.7600000   1.304585e-03  1.920112e-06
    169    165   2   0.50000     0.0600000   -0.5000000   2.691455e-04  1.090642e-07
    169    166   2   0.50000     0.0600000   -0.7600000   3.205360e-04  1.719281e-07
    172    165   2   0.50000    -0.1200000   -0.5000000   1.095425e-03  1.218041e-06
    172    166   2   0.50000    -0.1200000   -0.7600000   1.304585e-03  1.920112e-06
    162    173   2   0.50000    -0.1200000   -0.0600000   1.015252e-03  1.866303e-06
    162    177   2   0.50000    -0.1200000    0.0600000   2.494471e-04  1.671101e-07
    162    178   2   0.50000    -0.1200000    0.0600000   2.494471e-04  1.671101e-07
    164    173   2   0.50000     0.5000000   -0.0600000   1.575021e-03  3.561100e-06
    164    177   2   0.50000     0.5000000    0.0600000   3.869820e-04  3.188634e-07
    164    178   2   0.50000     0.5000000    0.0600000   3.869820e-04  3.188634e-07
    169    173   2   0.50000     0.0600000   -0.0600000   2.494471e-04  1.671101e-07
    169    177   2   0.50000     0.0600000    0.0600000   6.128906e-05  1.496315e-08
    169    178   2   0.50000     0.0600000    0.0600000   6.128906e-05  1.496315e-08
    163    170   2   0.50000    -0.0600000    0.3800000   1.995577e-06  1.069504e-11
    163    171   2   0.50000    -0.0600000    0.3800000   1.995577e-06  1.069504e-11
    165    170   2   0.50000    -0.5000000    0.3800000   2.153164e-06  6.980110e-12
    165    171   2   0.50000    -0.5000000    0.3800000   2.153164e-06  6.980110e-12
    163    174   2   0.50000    -0.0600000    0.5000000   1.575021e-03  3.561100e-06
    163    179   2   0.50000    -0.0600000    0.0600000   2.494471e-04  1.671101e-07
    163    182   2   0.50000    -0.0600000   -0.1200000   1.015252e-03  1.866303e-06
    177    174   2   0.50000     0.0600000    0.5000000   3.869820e-04  3.188634e-07
    177    179   2   0.50000     0.0600000    0.0600000   6.128906e-05  1.496315e-08
    177    182   2   0.50000     0.0600000   -0.1200000   2.494471e-04  1.671101e-07
    178    174   2   0.50000     0.0600000    0.5000000   3.869820e-04  3.188634e-07
    178    179   2   0.50000     0.0600000    0.0600000   6.128906e-05  1.496315e-08
    178    182   2   0.50000     0.0600000   -0.1200000   2.494471e-04  1.671101e-07
    172    175   2   0.50000    -0.1200000   -0.5000000   1.095425e-03  1.218041e-06
    172    176   2   0.50000    -0.1200000   -0.7600000   1.304585e-03  1.920112e-06
    179    175   2   0.50000     0.0600000   -0.5000000   2.691455e-04  1.090642e-07
    179    176   2   0.50000     0.0600000   -0.7600000   3.205360e-04  1.719281e-07
    182    175   2   0.50000    -0.1200000   -0.5000000   1.095425e-03  1.218041e-06
    182    176   2   0.50000    -0.1200000   -0.7600000   1.304585e-03  1.920112e-06
    172    183   2   0.50000    -0.1200000   -0.0600000   1.015252e-03  1.866303e-06
    172    187   2   0.50000    -0.1200000    0.0600000   2.494471e-04  1.671101e-07
    172    188   2   0.50000    -0.1200000    0.0600000   2.494471e-04  1.671101e-07
    174    183   2   0.50000     0.5000000   -0.0600000   1.575021e-03  3.561100e-06
    174    187   2   0.50000     0.5000000    0.0600000   3.869820e-04  3.188634e-07
    174    188   2   0.50000     0.5000000    0.0600000   3.869820e-04  3.188634e-07
    179    183   2   0.50000     0.0600000   -0.0600000   2.494471e-04  1.671101e-07
    179    187   2   0.50000     0.0600000    0.0600000   6.128906e-05  1.496315e-08
    179    188   2   0.50000     0.0600000    0.0600000   6.128906e-05  1.496315e-08
    173    180   2   0.50000    -0.0600000    0.3800000   1.995577e-06  1.069504e-11
    173    181   2   0.50000    -0.0600000    0.3800000   1.995577e-06  1.069504e-11
    175    180   2   0.50000    -0.5000000    0.3800000   2.153164e-06  6.980110e-12
    175    181   2   0.50000    -0.5000000    0.3800000   2.153164e-06  6.980110e-12
    173    184   2   0.50000    -0.0600000    0.5000000   1.575021e-03  3.561100e-06
    173    189   2   0.50000    -0.0600000    0.0600000   2.494471e-04  1.671101e-07
    173    192   2   0.50000    -0.0600000   -0.1200000   1.015252e-03  1.866303e-06
    187    184   2   0.50000     0.0600000    0.5000000   3.869820e-04  3.188634e-07
    187    189   2   0.50000     0.0600000    0.0600000   6.128906e-05  1.496315e-08
    187    192   2   0.50000     0.0600000   -0.1200000   2.494471e-04  1.671101e-07
    188    184   2   0.50000     0.0600000    0.5000000   3.869820e-04  3.188634e-07
    188    189   2   0.50000     0.0600000    0.0600000   6.128906e-05  1.496315e-08
    188    192   2   0.50000     0.0600000   -0.1200000   2.494471e-04  1.671101e-07
    182    185   2   0.50000    -0.1200000   -0.5000000   1.095425e-03  1.218041e-06
    182    186   2   0.50000    -0.1200000   -0.7600000   1.304585e-03  1.920112e-06
    189    185   2   0.50000     0.0600000   -0.5000000   2.691455e-04  1.090642e-07
    189    186   2   0.50000     0.0600000   -0.7600000   3.205360e-04  1.719281e-07
    192    185   2   0.50000    -0.1200000   -0.5000000   1.095425e-03  1.218041e-06
    192    186   2   0.50000    -0.1200000   -0.7600000   1.304585e-03  1.920112e-06
    182    193   2   0.50000    -0.1200000   -0.1200000   1.015252e-03  1.866303e-06
    182    197   2   0.50000    -0.1200000    0.0600000   2.494471e-04  1.671101e-07
    182    198   2   0.50000    -0.1200000    0.0600000   2.494471e-04  1.671101e-07
    184    193   2   0.50000     0.5000000   -0.1200000   1.575021e-03  3.561100e-06
    184    197   2   0.50000     0.5000000    0.0600000   3.869820e-04  3.188634e-07
    184    198   2   0.50000     0.5000000    0.0600000   3.869820e-04  3.188634e-07
    189    193   2   0.50000     0.0600000   -0.1200000   2.494471e-04  1.671101e-07
    189    197   2   0.50000     0.0600000    0.0600000   6.128906e-05  1.496315e-08
    189    198   2   0.50000     0.0600000    0.0600000   6.128906e-05  1.496315e-08
    183    190   2   0.50000    -0.0600000    0.3800000   1.995577e-06  1.069504e-11
    183    191   2   0.50000    -0.0600000    0.3800000   1.995577e-06  1.069504e-11
    185    190   2   0.50000    -0.5000000    0.3800000   2.153164e-06  6.980110e-12
    185    191   2   0.50000    -0.5000000    0.3800000   2.153164e-06  6.980110e-12
    183    194   2   0.50000    -0.0600000    0.5000000   1.575021e-03  3.561100e-06
    183    199   2   0.50000    -0.0600000    0.0600000   2.494471e-04  1.671101e-07
    183    202   2   0.50000    -0.0600000    0.0600000   2.494471e-04  1.671101e-07
    197    194   2   0.50000     0.0600000    0.5000000   3.869820e-04  3.188634e-07
    197    199   2   0.50000     0.0600000    0.0600000   6.128906e-05  1.496315e-08
    197    202   2   0.50000     0.0600000    0.0600000   6.128906e-05  1.496315e-08
    198    194   2   0.50000     0.0600000    0.5000000   3.869820e-04  3.188634e-07
    198    199   2   0.50000     0.0600000    0.0600000   6.128906e-05  1.496315e-08
    198    202   2   0.50000     0.0600000    0.0600000   6.128906e-05  1.496315e-08
    192    195   2   0.50000    -0.1200000   -0.5000000   1.095425e-03  1.218041e-06
    192    196   2   0.50000    -0.1200000   -0.7600000   1.304585e-03  1.920112e-06
    199    195   2   0.50000     0.0600000   -0.5000000   2.691455e-04  1.090642e-07
    199    196   2   0.50000     0.0600000   -0.7600000   3.205360e-04  1.719281e-07
    202    195   2   0.50000     0.0600000   -0.5000000   2.691455e-04  1.090642e-07
    202    196   2   0.50000     0.0600000   -0.7600000   3.205360e-04  1.719281e-07
    193    200   2   0.50000    -0.1200000    0.3800000   1.995577e-06  1.069504e-11
    193    201   2   0.50000    -0.1200000    0.3800000   1.995577e-06  1.069504e-11
    195    200   2   0.50000    -0.5000000    0.3800000   2.153164e-06  6.980110e-12
    195    201   2   0.50000    -0.5000000    0.3800000   2.153164e-06  6.980110e-12

[ angles ]
; ai  aj  ak
      2      1      6   1    110.7000    313.8000
      2      1      7   1    110.7000    313.8000
      2      1     11   1    110.7000    313.8000
      6      1      7   1    107.8000    276.1440
      6      1     11   1    107.8000    276.1440
      7      1     11   1    107.8000    276.1440
      1      2      3   1    111.1000    527.1840
      1      2      8   1    110.7000    313.8000
      1      2     12   1    112.7000    488.2728
      3      2      8   1    109.5000    292.8800
      3      2     12   1    111.1000    527.1840
      8      2     12   1    110.7000    313.8000
      2      3      4   1    120.4000    669.4400
      2      3      5   1    116.6000    585.7600
      4      3      5   1    122.9000    669.4400
      3      5      9   1    119.8000    292.8800
      3      5     10   1    119.8000    292.8800
      9      5     10   1    120.0000    292.8800
      2     12     13   1    112.7000    488.2728
      2     12     17   1    110.7000    313.8000
      2     12     18   1    110.7000    313.8000
     13     12     17   1    110.7000    313.8000
     13     12     18   1    110.7000    313.8000
     17     12     18   1    107.8000    276.1440
     12     13     14   1    111.1000    527.1840
     12     13     19   1    110.7000    313.8000
     12     13     22   1    112.7000    488.2728
     14     13     19   1    109.5000    292.8800
     14     13     22   1    111.1000    527.1840
     19     13     22   1    110.7000    313.8000
     13     14     15   1    120.4000    669.4400
     13     14     16   1    116.6000    585.7600
     15     14     16   1    122.9000    669.4400
     14     16     20   1    119.8000    292.8800
     14     16     21   1    119.8000    292.8800
     20     16     21   1    120.0000    292.8800
     13     22     23   1    112.7000    488.2728
     13     22     27   1    110.7000    313.8000
     13     22     28   1    110.7000    313.8000
     23     22     27   1    110.7000    313.8000
     23     22     28   1    110.7000    313.8000
     27     22     28   1    107.8000    276.1440
     22     23     24   1    111.1000    527.1840
     22     23     29   1    110.7000    313.8000
     22     23     32   1    112.7000    488.2728
     24     23     29   1    109.5000    292.8800
     24     23     32   1    111.1000    527.1840
     29     23     32   1    110.7000    313.8000
     23     24     25   1    120.4000    669.4400
     23     24     26   1    116.6000    585.7600
     25     24     26   1    122.9000    669.4400
     24     26     30   1    119.8000    292.8800
     24     26     31   1    119.8000    292.8800
     30     26     31   1    120.0000    292.8800
     23     32     33   1    112.7000    488.2728
     23     32     37   1    110.7000    313.8000
     23     32     38   1    110.7000    313.8000
     33     32     37   1    110.7000    313.8000
     33     32     38   1    110.7000    313.8000
     37     32     38   1    107.8000    276.1440
     32     33     34   1    111.1000    527.1840
     32     33     39   1    110.7000    313.8000
     32     33     42   1    112.7000    488.2728
     34     33     39   1    109.5000    292.8800
     34     33     42   1    111.1000    527.1840
     39     33     42   1    110.7000    313.8000
     33     34     35   1    120.4000    669.4400
     33     34     36   1    116.6000    585.7600
     35     34     36   1    122.9000    669.4400
     34     36     40   1    119.8000    292.8800
     34     36     41   1    119.8000    292.8800
     40     36     41   1    120.0000    292.8800
     33     42     43   1    112.7000    488.2728
     33     42     47   1    110.7000    313.8000
     33     42     48   1    110.7000    313.8000
     43     42     47   1    110.7000    313.8000
     43     42     48   1    110.7000    313.8000
     47     42     48   1    107.8000    276.1440
     42     43     44   1    111.1000    527.1840
     42     43     49   1    110.7000    313.8000
     42     43     52   1    112.7000    488.2728
     44     43     49   1    109.5000    292.8800
     44     43     52   1    111.1000    527.1840
     49     43     52   1    110.7000    313.8000
     43     44     45   1    120.4000    669.4400
     43     44     46   1    116.6000    585.7600
     45     44     46   1    122.9000    669.4400
     44     46     50   1    119.8000    292.8800
     44     46     51   1    119.8000    292.8800
     50     46     51   1    120.0000    292.8800
     43     52     53   1    112.7000    488.2728
     43     52     57   1    110.7000    313.8000
     43     52     58   1    110.7000    313.8000
     53     52     57   1    110.7000    313.8000
     53     52     58   1    110.7000    313.8000
     57     52     58   1    107.8000    276.1440
     52     53     54   1    111.1000    527.1840
     52     53     59   1    110.7000    313.8000
     52     53     62   1    112.7000    488.2728
     54     53     59   1    109.5000    292.8800
     54     53     62   1    111.1000    527.1840
     59     53     62   1    110.7000    313.8000
     53     54     55   1    120.4000    669.4400
     53     54     56   1    116.6000    585.7600
     55     54     56   1    122.9000    669.4400
     54     56     60   1    119.8000    292.8800
     54     56     61   1    119.8000    292.8800
     60     56     61   1    120.0000    292.8800
     53     62     63   1    112.7000    488.2728
     53     62     67   1    110.7000    313.8000
     53     62     68   1    110.7000    313.8000
     63     62     67   1    110.7000    313.8000
     63     62     68   1    110.7000    313.8000
     67     62     68   1    107.8000    276.1440
     62     63     64   1    111.1000    527.1840
     62     63     69   1    110.7000    313.8000
     62     63     72   1    112.7000    488.2728
     64     63     69   1    109.5000    292.8800
     64     63     72   1    111.1000    527.1840
     69     63     72   1    110.7000    313.8000
     63     64     65   1    120.4000    669.4400
     63     64     66   1    116.6000    585.7600
     65     64     66   1    122.9000    669.4400
     64     66     70   1    119.8000    292.8800
     64     66     71   1    119.8000    292.8800
     70     66     71   1    120.0000    292.8800
     63     72     73   1    112.7000    488.2728
     63     72     77   1    110.7000    313.8000
     63     72     78   1    110.7000    313.8000
     73     72     77   1    110.7000    313.8000
     73     72     78   1    110.7000    313.8000
     77     72     78   1    107.8000    276.1440
     72     73     74   1    111.1000    527.1840
     72     73     79   1    110.7000    313.8000
     72     73     82   1    112.7000    488.2728
     74     73     79   1    109.5000    292.8800
     74     73     82   1    111.1000    527.1840
     79     73     82   1    110.7000    313.8000
     73     74     75   1    120.4000    669.4400
     73     74     76   1    116.6000    585.7600
     75     74     76   1    122.9000    669.4400
     74     76     80   1    119.8000    292.8800
     74     76     81   1    119.8000    292.8800
     80     76     81   1    120.0000    292.8800
     73     82     83   1    112.7000    488.2728
     73     82     87   1    110.7000    313.8000
     73     82     88   1    110.7000    313.8000
     83     82     87   1    110.7000    313.8000
     83     82     88   1    110.7000    313.8000
     87     82     88   1    107.8000    276.1440
     82     83     84   1    111.1000    527.1840
     82     83     89   1    110.7000    313.8000
     82     83     92   1    112.7000    488.2728
     84     83     89   1    109.5000    292.8800
     84     83     92   1    111.1000    527.1840
     89     83     92   1    110.7000    313.8000
     83     84     85   1    120.4000    669.4400
     83     84     86   1    116.6000    585.7600
     85     84     86   1    122.9000    669.4400
     84     86     90   1    119.8000    292.8800
     84     86     91   1    119.8000    292.8800
     90     86     91   1    120.0000    292.8800
     83     92     93   1    112.7000    488.2728
     83     92     97   1    110.7000    313.8000
     83     92     98   1    110.7000    313.8000
     93     92     97   1    110.7000    313.8000
     93     92     98   1    110.7000    313.8000
     97     92     98   1    107.8000    276.1440
     92     93     94   1    111.1000    527.1840
     92     93     99   1    110.7000    313.8000
     92     93    102   1    112.7000    488.2728
     94     93     99   1    109.5000    292.8800
     94     93    102   1    111.1000    527.1840
     99     93    102   1    110.7000    313.8000
     93     94     95   1    120.4000    669.4400
     93     94     96   1    116.6000    585.7600
     95     94     96   1    122.9000    669.4400
     94     96    100   1    119.8000    292.8800
     94     96    101   1    119.8000    292.8800
    100     96    101   1    120.0000    292.8800
     93    102    103   1    112.7000    488.2728
     93    102    107   1    110.7000    313.8000
     93    102    108   1    110.7000    313.8000
    103    102    107   1    110.7000    313.8000
    103    102    108   1    110.7000    313.8000
    107    102    108   1    107.8000    276.1440
    102    103    104   1    111.1000    527.1840
    102    103    109   1    110.7000    313.8000
    102    103    112   1    112.7000    488.2728
    104    103    109   1    109.5000    292.8800
    104    103    112   1    111.1000    527.1840
    109    103    112   1    110.7000    313.8000
    103    104    105   1    120.4000    669.4400
    103    104    106   1    116.6000    585.7600
    105    104    106   1    122.9000    669.4400
    104    106    110   1    119.8000    292.8800
    104    106    111   1    119.8000    292.8800
    110    106    111   1    120.0000    292.8800
    103    112    113   1    112.7000    488.2728
    103    112    117   1    110.7000    313.8000
    103    112    118   1    110.7000    313.8000
    113    112    117   1    110.7000    313.8000
    113    112    118   1    110.7000    313.8000
    117    112    118   1    107.8000    276.1440
    112    113    114   1    111.1000    527.1840
    112    113    119   1    110.7000    313.8000
    112    113    122   1    112.7000    488.2728
    114    113    119   1    109.5000    292.8800
    114    113    122   1    111.1000    527.1840
    119    113    122   1    110.7000    313.8000
    113    114    115   1    120.4000    669.4400
    113    114    116   1    116.6000    585.7600
    115    114    116   1    122.9000    669.4400
    114    116    120   1    119.8000    292.8800
    114    116    121   1    119.8000    292.8800
    120    116    121   1    120.0000    292.8800
    113    122    123   1    112.7000    488.2728
    113    122    127   1    110.7000    313.8000
    113    122    128   1    110.7000    313.8000
    123    122    127   1    110.7000    313.8000
    123    122    128   1    110.7000    313.8000
    127    122    128   1    107.8000    276.1440
    122    123    124   1    111.1000    527.1840
    122    123    129   1    110.7000    313.8000
    122    123    132   1    112.7000    488.2728
    124    123    129   1    109.5000    292.8800
    124    123    132   1    111.1000    527.1840
    129    123    132   1    110.7000    313.8000
    123    124    125   1    120.4000    669.4400
    123    124    126   1    116.6000    585.7600
    125    124    126   1    122.9000    669.4400
    124    126    130   1    119.8000    292.8800
    124    126    131   1    119.8000    292.8800
    130    126    131   1    120.0000    292.8800
    123    132    133   1    112.7000    488.2728
    123    132    137   1    110.7000    313.8000
    123    132    138   1    110.7000    313.8000
    133    132    137   1    110.7000    313.8000
    133    132    138   1    110.7000    313.8000
    137    132    138   1    107.8000    276.1440
    132    133    134   1    111.1000    527.1840
    132    133    139   1    110.7000    313.8000
    132    133    142   1    112.7000    488.2728
    134    133    139   1    109.5000    292.8800
    134    133    142   1    111.1000    527.1840
    139    133    142   1    110.7000    313.8000
    133    134    135   1    120.4000    669.4400
    133    134    136   1    116.6000    585.7600
    135    134    136   1    122.9000    669.4400
    134    136    140   1    119.8000    292.8800
    134    136    141   1    119.8000    292.8800
    140    136    141   1    120.0000    292.8800
    133    142    143   1    112.7000    488.2728
    133    142    147   1    110.7000    313.8000
    133    142    148   1    110.7000    313.8000
    143    142    147   1    110.7000    313.8000
    143    142    148   1    110.7000    313.8000
    147    142    148   1    107.8000    276.1440
    142    143    144   1    111.1000    527.1840
    142    143    149   1    110.7000    313.8000
    142    143    152   1    112.7000    488.2728
    144    143    149   1    109.5000    292.8800
    144    143    152   1    111.1000    527.1840
    149    143    152   1    110.7000    313.8000
    143    144    145   1    120.4000    669.4400
    143    144    146   1    116.6000    585.7600
    145    144    146   1    122.9000    669.4400
    144    146    150   1    119.8000    292.8800
    144    146    151   1    119.8000    292.8800
    150    146    151   1    120.0000    292.8800
    143    152    153   1    112.7000    488.2728
    143    152    157   1    110.7000    313.8000
    143    152    158   1    110.7000    313.8000
    153    152    157   1    110.7000    313.8000
    153    152    158   1    110.7000    313.8000
    157    152    158   1    107.8000    276.1440
    152    153    154   1    111.1000    527.1840
    152    153    159   1    110.7000    313.8000
    152    153    162   1    112.7000    488.2728
    154    153    159   1    109.5000    292.8800
    154    153    162   1    111.1000    527.1840
    159    153    162   1    110.7000    313.8000
    153    154    155   1    120.4000    669.4400
    153    154    156   1    116.6000    585.7600
    155    154    156   1    122.9000    669.4400
    154    156    160   1    119.8000    292.8800
    154    156    161   1    119.8000    292.8800
    160    156    161   1    120.0000    292.8800
    153    162    163   1    112.7000    488.2728
    153    162    167   1    110.7000    313.8000
    153    162    168   1    110.7000    313.8000
    163    162    167   1    110.7000    313.8000
    163    162    168   1    110.7000    313.8000
    167    162    168   1    107.8000    276.1440
    162    163    164   1    111.1000    527.1840
    162    163    169   1    110.7000    313.8000
    162    163    172   1    112.7000    488.2728
    164    163    169   1    109.5000    292.8800
    164    163    172   1    111.1000    527.1840
    169    163    172   1    110.7000    313.8000
    163    164    165   1    120.4000    669.4400
    163    164    166   1    116.6000    585.7600
    165    164    166   1    122.9000    669.4400
    164    166    170   1    119.8000    292.8800
    164    166    171   1    119.8000    292.8800
    170    166    171   1    120.0000    292.8800
    163    172    173   1    112.7000    488.2728
    163    172    177   1    110.7000    313.8000
    163    172    178   1    110.7000    313.8000
    173    172    177   1    110.7000    313.8000
    173    172    178   1    110.7000    313.8000
    177    172    178   1    107.8000    276.1440
    172    173    174   1    111.1000    527.1840
    172    173    179   1    110.7000    313.8000
    172    173    182   1    112.7000    488.2728
    174    173    179   1    109.5000    292.8800
    174    173    182   1    111.1000    527.1840
    179    173    182   1    110.7000    313.8000
    173    174    175   1    120.4000    669.4400
    173    174    176   1    116.6000    585.7600
    175    174    176   1    122.9000    669.4400
    174    176    180   1    119.8000    292.8800
    174    176    181   1    119.8000    292.8800
    180    176    181   1    120.0000    292.8800
    173    182    183   1    112.7000    488.2728
    173    182    187   1    110.7000    313.8000
    173    182    188   1    110.7000    313.8000
    183    182    187   1    110.7000    313.8000
    183    182    188   1    110.7000    313.8000
    187    182    188   1    107.8000    276.1440
    182    183    184   1    111.1000    527.1840
    182    183    189   1    110.7000    313.8000
    182    183    192   1    112.7000    488.2728
    184    183    189   1    109.5000    292.8800
    184    183    192   1    111.1000    527.1840
    189    183    192   1    110.7000    313.8000
    183    184    185   1    120.4000    669.4400
    183    184    186   1    116.6000    585.7600
    185    184    186   1    122.9000    669.4400
    184    186    190   1    119.8000    292.8800
    184    186    191   1    119.8000    292.8800
    190    186    191   1    120.0000    292.8800
    183    192    193   1    112.7000    488.2728
    183    192    197   1    110.7000    313.8000
    183    192    198   1    110.7000    313.8000
    193    192    197   1    110.7000    313.8000
    193    192    198   1    110.7000    313.8000
    197    192    198   1    107.8000    276.1440
    192    193    194   1    111.1000    527.1840
    192    193    199   1    110.7000    313.8000
    192    193    202   1    110.7000    313.8000
    194    193    199   1    109.5000    292.8800
    194    193    202   1    109.5000    292.8800
    199    193    202   1    107.8000    276.1440
    193    194    195   1    120.4000    669.4400
    193    194    196   1    116.6000    585.7600
    195    194    196   1    122.9000    669.4400
    194    196    200   1    119.8000    292.8800
    194    196    201   1    119.8000    292.8800
    200    196    201   1    120.0000    292.8800

[ dihedrals ]
; Proper dihedrals
      6      1      2      3   5     0.00000     0.00000    -0.94140  0.0
      6      1      2      8   5     0.00000     0.00000     1.25520  0.0
      6      1      2     12   5     0.00000     0.00000     1.25520  0.0
      7      1      2      3   5     0.00000     0.00000    -0.94140  0.0
      7      1      2      8   5     0.00000     0.00000     1.25520  0.0
      7      1      2     12   5     0.00000     0.00000     1.25520  0.0
     11      1      2      3   5     0.00000     0.00000    -0.94140  0.0
     11      1      2      8   5     0.00000     0.00000     1.25520  0.0
     11      1      2     12   5     0.00000     0.00000     1.25520  0.0
      1      2      3      4   5     0.00000     2.52295     0.00000  0.0
      1      2      3      5   5    11.69428    -0.66526    -1.56900  0.0
      8      2      3      4   5     0.00000     0.00000     0.00000  0.0
      8      2      3      5   5     0.00000     0.00000     0.00000  0.0
     12      2      3      4   5     0.00000     2.52295     0.00000  0.0
     12      2      3      5   5    11.69428    -0.66526    -1.56900  0.0
      1      2     12     13   5     4.74884    -0.63178     1.67360  0.0
      1      2     12     17   5     0.00000     0.00000     1.25520  0.0
      1      2     12     18   5     0.00000     0.00000     1.25520  0.0
      3      2     12     13   5    -8.00818    -1.52298     2.46438  0.0
      3      2     12     17   5     0.00000     0.00000    -0.94140  0.0
      3      2     12     18   5     0.00000     0.00000    -0.94140  0.0
      8      2     12     13   5     0.00000     0.00000     1.25520  0.0
      8      2     12     17   5     0.00000     0.00000     1.25520  0.0
      8      2     12     18   5     0.00000     0.00000     1.25520  0.0
      2      3      5      9   5     0.00000    20.50160     0.00000  0.0
      2      3      5     10   5     0.00000    20.50160     0.00000  0.0
      4      3      5      9   5     0.00000    20.50160     0.00000  0.0
      4      3      5     10   5     0.00000    20.50160     0.00000  0.0
      2     12     13     14   5    -8.00818    -1.52298     2.46438  0.0
      2     12     13     19   5     0.00000     0.00000     1.25520  0.0
      2     12     13     22   5     4.74884    -0.63178     1.67360  0.0
     17     12     13     14   5     0.00000     0.00000    -0.94140  0.0
     17     12     13     19   5     0.00000     0.00000     1.25520  0.0
     17     12     13     22   5     0.00000     0.00000     1.25520  0.0
     18     12     13     14   5     0.00000     0.00000    -0.94140  0.0
     18     12     13     19   5     0.00000     0.00000     1.25520  0.0
     18     12     13     22   5     0.00000     0.00000     1.25520  0.0
     12     13     14     15   5     0.00000     2.52295     0.00000  0.0
     12     13     14     16   5    11.69428    -0.66526    -1.56900  0.0
     19     13     14     15   5     0.00000     0.00000     0.00000  0.0
     19     13     14     16   5     0.00000     0.00000     0.00000  0.0
     22     13     14     15   5     0.00000     2.52295     0.00000  0.0
     22     13     14     16   5    11.69428    -0.66526    -1.56900  0.0
     12     13     22     23   5     4.74884    -0.63178     1.67360  0.0
     12     13     22     27   5     0.00000     0.00000     1.25520  0.0
     12     13     22     28   5     0.00000     0.00000     1.25520  0.0
     14     13     22     23   5    -8.00818    -1.52298     2.46438  0.0
     14     13     22     27   5     0.00000     0.00000    -0.94140  0.0
     14     13     22     28   5     0.00000     0.00000    -0.94140  0.0
     19     13     22     23   5     0.00000     0.00000     1.25520  0.0
     19     13     22     27   5     0.00000     0.00000     1.25520  0.0
     19     13     22     28   5     0.00000     0.00000     1.25520  0.0
     13     14     16     20   5     0.00000    20.50160     0.00000  0.0
     13     14     16     21   5     0.00000    20.50160     0.00000  0.0
     15     14     16     20   5     0.00000    20.50160     0.00000  0.0
     15     14     16     21   5     0.00000    20.50160     0.00000  0.0
     13     22     23     24   5    -8.00818    -1.52298     2.46438  0.0
     13     22     23     29   5     0.00000     0.00000     1.25520  0.0
     13     22     23     32   5     4.74884    -0.63178     1.67360  0.0
     27     22     23     24   5     0.00000     0.00000    -0.94140  0.0
     27     22     23     29   5     0.00000     0.00000     1.25520  0.0
     27     22     23     32   5     0.00000     0.00000     1.25520  0.0
     28     22     23     24   5     0.00000     0.00000    -0.94140  0.0
     28     22     23     29   5     0.00000     0.00000     1.25520  0.0
     28     22     23     32   5     0.00000     0.00000     1.25520  0.0
     22     23     24     25   5     0.00000     2.52295     0.00000  0.0
     22     23     24     26   5    11.69428    -0.66526    -1.56900  0.0
     29     23     24     25   5     0.00000     0.00000     0.00000  0.0
     29     23     24     26   5     0.00000     0.00000     0.00000  0.0
     32     23     24     25   5     0.00000     2.52295     0.00000  0.0
     32     23     24     26   5    11.69428    -0.66526    -1.56900  0.0
     22     23     32     33   5     4.74884    -0.63178     1.67360  0.0
     22     23     32     37   5     0.00000     0.00000     1.25520  0.0
     22     23     32     38   5     0.00000     0.00000     1.25520  0.0
     24     23     32     33   5    -8.00818    -1.52298     2.46438  0.0
     24     23     32     37   5     0.00000     0.00000    -0.94140  0.0
     24     23     32     38   5     0.00000     0.00000    -0.94140  0.0
     29     23     32     33   5     0.00000     0.00000     1.25520  0.0
     29     23     32     37   5     0.00000     0.00000     1.25520  0.0
     29     23     32     38   5     0.00000     0.00000     1.25520  0.0
     23     24     26     30   5     0.00000    20.50160     0.00000  0.0
     23     24     26     31   5     0.00000    20.50160     0.00000  0.0
     25     24     26     30   5     0.00000    20.50160     0.00000  0.0
     25     24     26     31   5     0.00000    20.50160     0.00000  0.0
     23     32     33     34   5    -8.00818    -1.52298     2.46438  0.0
     23     32     33     39   5     0.00000     0.00000     1.25520  0.0
     23     32     33     42   5     4.74884    -0.63178     1.67360  0.0
     37     32     33     34   5     0.00000     0.00000    -0.94140  0.0
     37     32     33     39   5     0.00000     0.00000     1.25520  0.0
     37     32     33     42   5     0.00000     0.00000     1.25520  0.0
     38     32     33     34   5     0.00000     0.00000    -0.94140  0.0
     38     32     33     39   5     0.00000     0.00000     1.25520  0.0
     38     32     33     42   5     0.00000     0.00000     1.25520  0.0
     32     33     34     35   5     0.00000     2.52295     0.00000  0.0
     32     33     34     36   5    11.69428    -0.66526    -1.56900  0.0
     39     33     34     35   5     0.00000     0.00000     0.00000  0.0
     39     33     34     36   5     0.00000     0.00000     0.00000  0.0
     42     33     34     35   5     0.00000     2.52295     0.00000  0.0
     42     33     34     36   5    11.69428    -0.66526    -1.56900  0.0
     32     33     42     43   5     4.74884    -0.63178     1.67360  0.0
     32     33     42     47   5     0.00000     0.00000     1.25520  0.0
     32     33     42     48   5     0.00000     0.00000     1.25520  0.0
     34     33     42     43   5    -8.00818    -1.52298     2.46438  0.0
     34     33     42     47   5     0.00000     0.00000    -0.94140  0.0
     34     33     42     48   5     0.00000     0.00000    -0.94140  0.0
     39     33     42     43   5     0.00000     0.00000     1.25520  0.0
     39     33     42     47   5     0.00000     0.00000     1.25520  0.0
     39     33     42     48   5     0.00000     0.00000     1.25520  0.0
     33     34     36     40   5     0.00000    20.50160     0.00000  0.0
     33     34     36     41   5     0.00000    20.50160     0.00000  0.0
     35     34     36     40   5     0.00000    20.50160     0.00000  0.0
     35     34     36     41   5     0.00000    20.50160     0.00000  0.0
     33     42     43     44   5    -8.00818    -1.52298     2.46438  0.0
     33     42     43     49   5     0.00000     0.00000     1.25520  0.0
     33     42     43     52   5     4.74884    -0.63178     1.67360  0.0
     47     42     43     44   5     0.00000     0.00000    -0.94140  0.0
     47     42     43     49   5     0.00000     0.00000     1.25520  0.0
     47     42     43     52   5     0.00000     0.00000     1.25520  0.0
     48     42     43     44   5     0.00000     0.00000    -0.94140  0.0
     48     42     43     49   5     0.00000     0.00000     1.25520  0.0
     48     42     43     52   5     0.00000     0.00000     1.25520  0.0
     42     43     44     45   5     0.00000     2.52295     0.00000  0.0
     42     43     44     46   5    11.69428    -0.66526    -1.56900  0.0
     49     43     44     45   5     0.00000     0.00000     0.00000  0.0
     49     43     44     46   5     0.00000     0.00000     0.00000  0.0
     52     43     44     45   5     0.00000     2.52295     0.00000  0.0
     52     43     44     46   5    11.69428    -0.66526    -1.56900  0.0
     42     43     52     53   5     4.74884    -0.63178     1.67360  0.0
     42     43     52     57   5     0.00000     0.00000     1.25520  0.0
     42     43     52     58   5     0.00000     0.00000     1.25520  0.0
     44     43     52     53   5    -8.00818    -1.52298     2.46438  0.0
     44     43     52     57   5     0.00000     0.00000    -0.94140  0.0
     44     43     52     58   5     0.00000     0.00000    -0.94140  0.0
     49     43     52     53   5     0.00000     0.00000     1.25520  0.0
     49     43     52     57   5     0.00000     0.00000     1.25520  0.0
     49     43     52     58   5     0.00000     0.00000     1.25520  0.0
     43     44     46     50   5     0.00000    20.50160     0.00000  0.0
     43     44     46     51   5     0.00000    20.50160     0.00000  0.0
     45     44     46     50   5     0.00000    20.50160     0.00000  0.0
     45     44     46     51   5     0.00000    20.50160     0.00000  0.0
     43     52     53     54   5    -8.00818    -1.52298     2.46438  0.0
     43     52     53     59   5     0.00000     0.00000     1.25520  0.0
     43     52     53     62   5     4.74884    -0.63178     1.67360  0.0
     57     52     53     54   5     0.00000     0.00000    -0.94140  0.0
     57     52     53     59   5     0.00000     0.00000     1.25520  0.0
     57     52     53     62   5     0.00000     0.00000     1.25520  0.0
     58     52     53     54   5     0.00000     0.00000    -0.94140  0.0
     58     52     53     59   5     0.00000     0.00000     1.25520  0.0
     58     52     53     62   5     0.00000     0.00000     1.25520  0.0
     52     53     54     55   5     0.00000     2.52295     0.00000  0.0
     52     53     54     56   5    11.69428    -0.66526    -1.56900  0.0
     59     53     54     55   5     0.00000     0.00000     0.00000  0.0
     59     53     54     56   5     0.00000     0.00000     0.00000  0.0
     62     53     54     55   5     0.00000     2.52295     0.00000  0.0
     62     53     54     56   5    11.69428    -0.66526    -1.56900  0.0
     52     53     62     63   5     4.74884    -0.63178     1.67360  0.0
     52     53     62     67   5     0.00000     0.00000     1.25520  0.0
     52     53     62     68   5     0.00000     0.00000     1.25520  0.0
     54     53     62     63   5    -8.00818    -1.52298     2.46438  0.0
     54     53     62     67   5     0.00000     0.00000    -0.94140  0.0
     54     53     62     68   5     0.00000     0.00000    -0.94140  0.0
     59     53     62     63   5     0.00000     0.00000     1.25520  0.0
     59     53     62     67   5     0.00000     0.00000     1.25520  0.0
     59     53     62     68   5     0.00000     0.00000     1.25520  0.0
     53     54     56     60   5     0.00000    20.50160     0.00000  0.0
     53     54     56     61   5     0.00000    20.50160     0.00000  0.0
     55     54     56     60   5     0.00000    20.50160     0.00000  0.0
     55     54     56     61   5     0.00000    20.50160     0.00000  0.0
     53     62     63     64   5    -8.00818    -1.52298     2.46438  0.0
     53     62     63     69   5     0.00000     0.00000     1.25520  0.0
     53     62     63     72   5     4.74884    -0.63178     1.67360  0.0
     67     62     63     64   5     0.00000     0.00000    -0.94140  0.0
     67     62     63     69   5     0.00000     0.00000     1.25520  0.0
     67     62     63     72   5     0.00000     0.00000     1.25520  0.0
     68     62     63     64   5     0.00000     0.00000    -0.94140  0.0
     68     62     63     69   5     0.00000     0.00000     1.25520  0.0
     68     62     63     72   5     0.00000     0.00000     1.25520  0.0
     62     63     64     65   5     0.00000     2.52295     0.00000  0.0
     62     63     64     66   5    11.69428    -0.66526    -1.56900  0.0
     69     63     64     65   5     0.00000     0.00000     0.00000  0.0
     69     63     64     66   5     0.00000     0.00000     0.00000  0.0
     72     63     64     65   5     0.00000     2.52295     0.00000  0.0
     72     63     64     66   5    11.69428    -0.66526    -1.56900  0.0
     62     63     72     73   5     4.74884    -0.63178     1.67360  0.0
     62     63     72     77   5     0.00000     0.00000     1.25520  0.0
     62     63     72     78   5     0.00000     0.00000     1.25520  0.0
     64     63     72     73   5    -8.00818    -1.52298     2.46438  0.0
     64     63     72     77   5     0.00000     0.00000    -0.94140  0.0
     64     63     72     78   5     0.00000     0.00000    -0.94140  0.0
     69     63     72     73   5     0.00000     0.00000     1.25520  0.0
     69     63     72     77   5     0.00000     0.00000     1.25520  0.0
     69     63     72     78   5     0.00000     0.00000     1.25520  0.0
     63     64     66     70   5     0.00000    20.50160     0.00000  0.0
     63     64     66     71   5     0.00000    20.50160     0.00000  0.0
     65     64     66     70   5     0.00000    20.50160     0.00000  0.0
     65     64     66     71   5     0.00000    20.50160     0.00000  0.0
     63     72     73     74   5    -8.00818    -1.52298     2.46438  0.0
     63     72     73     79   5     0.00000     0.00000     1.25520  0.0
     63     72     73     82   5     4.74884    -0.63178     1.67360  0.0
     77     72     73     74   5     0.00000     0.00000    -0.94140  0.0
     77     72     73     79   5     0.00000     0.00000     1.25520  0.0
     77     72     73     82   5     0.00000     0.00000     1.25520  0.0
     78     72     73     74   5     0.00000     0.00000    -0.94140  0.0
     78     72     73     79   5     0.00000     0.00000     1.25520  0.0
     78     72     73     82   5     0.00000     0.00000     1.25520  0.0
     72     73     74     75   5     0.00000     2.52295     0.00000  0.0
     72     73     74     76   5    11.69428    -0.66526    -1.56900  0.0
     79     73     74     75   5     0.00000     0.00000     0.00000  0.0
     79     73     74     76   5     0.00000     0.00000     0.00000  0.0
     82     73     74     75   5     0.00000     2.52295     0.00000  0.0
     82     73     74     76   5    11.69428    -0.66526    -1.56900  0.0
     72     73     82     83   5     4.74884    -0.63178     1.67360  0.0
     72     73     82     87   5     0.00000     0.00000     1.25520  0.0
     72     73     82     88   5     0.00000     0.00000     1.25520  0.0
     74     73     82     83   5    -8.00818    -1.52298     2.46438  0.0
     74     73     82     87   5     0.00000     0.00000    -0.94140  0.0
     74     73     82     88   5     0.00000     0.00000    -0.94140  0.0
     79     73     82     83   5     0.00000     0.00000     1.25520  0.0
     79     73     82     87   5     0.00000     0.00000     1.25520  0.0
     79     73     82     88   5     0.00000     0.00000     1.25520  0.0
     73     74     76     80   5     0.00000    20.50160     0.00000  0.0
     73     74     76     81   5     0.00000    20.50160     0.00000  0.0
     75     74     76     80   5     0.00000    20.50160     0.00000  0.0
     75     74     76     81   5     0.00000    20.50160     0.00000  0.0
     73     82     83     84   5    -8.00818    -1.52298     2.46438  0.0
     73     82     83     89   5     0.00000     0.00000     1.25520  0.0
     73     82     83     92   5     4.74884    -0.63178     1.67360  0.0
     87     82     83     84   5     0.00000     0.00000    -0.94140  0.0
     87     82     83     89   5     0.00000     0.00000     1.25520  0.0
     87     82     83     92   5     0.00000     0.00000     1.25520  0.0
     88     82     83     84   5     0.00000     0.00000    -0.94140  0.0
     88     82     83     89   5     0.00000     0.00000     1.25520  0.0
     88     82     83     92   5     0.00000     0.00000     1.25520  0.0
     82     83     84     85   5     0.00000     2.52295     0.00000  0.0
     82     83     84     86   5    11.69428    -0.66526    -1.56900  0.0
     89     83     84     85   5     0.00000     0.00000     0.00000  0.0
     89     83     84     86   5     0.00000     0.00000     0.00000  0.0
     92     83     84     85   5     0.00000     2.52295     0.00000  0.0
     92     83     84     86   5    11.69428    -0.66526    -1.56900  0.0
     82     83     92     93   5     4.74884    -0.63178     1.67360  0.0
     82     83     92     97   5     0.00000     0.00000     1.25520  0.0
     82     83     92     98   5     0.00000     0.00000     1.25520  0.0
     84     83     92     93   5    -8.00818    -1.52298     2.46438  0.0
     84     83     92     97   5     0.00000     0.00000    -0.94140  0.0
     84     83     92     98   5     0.00000     0.00000    -0.94140  0.0
     89     83     92     93   5     0.00000     0.00000     1.25520  0.0
     89     83     92     97   5     0.00000     0.00000     1.25520  0.0
     89     83     92     98   5     0.00000     0.00000     1.25520  0.0
     83     84     86     90   5     0.00000    20.50160     0.00000  0.0
     83     84     86     91   5     0.00000    20.50160     0.00000  0.0
     85     84     86     90   5     0.00000    20.50160     0.00000  0.0
     85     84     86     91   5     0.00000    20.50160     0.00000  0.0
     83     92     93     94   5    -8.00818    -1.52298     2.46438  0.0
     83     92     93     99   5     0.00000     0.00000     1.25520  0.0
     83     92     93    102   5     4.74884    -0.63178     1.67360  0.0
     97     92     93     94   5     0.00000     0.00000    -0.94140  0.0
     97     92     93     99   5     0.00000     0.00000     1.25520  0.0
     97     92     93    102   5     0.00000     0.00000     1.25520  0.0
     98     92     93     94   5     0.00000     0.00000    -0.94140  0.0
     98     92     93     99   5     0.00000     0.00000     1.25520  0.0
     98     92     93    102   5     0.00000     0.00000     1.25520  0.0
     92     93     94     95   5     0.00000     2.52295     0.00000  0.0
     92     93     94     96   5    11.69428    -0.66526    -1.56900  0.0
     99     93     94     95   5     0.00000     0.00000     0.00000  0.0
     99     93     94     96   5     0.00000     0.00000     0.00000  0.0
    102     93     94     95   5     0.00000     2.52295     0.00000  0.0
    102     93     94     96   5    11.69428    -0.66526    -1.56900  0.0
     92     93    102    103   5     4.74884    -0.63178     1.67360  0.0
     92     93    102    107   5     0.00000     0.00000     1.25520  0.0
     92     93    102    108   5     0.00000     0.00000     1.25520  0.0
     94     93    102    103   5    -8.00818    -1.52298     2.46438  0.0
     94     93    102    107   5     0.00000     0.00000    -0.94140  0.0
     94     93    102    108   5     0.00000     0.00000    -0.94140  0.0
     99     93    102    103   5     0.00000     0.00000     1.25520  0.0
     99     93    102    107   5     0.00000     0.00000     1.25520  0.0
     99     93    102    108   5     0.00000     0.00000     1.25520  0.0
     93     94     96    100   5     0.00000    20.50160     0.00000  0.0
     93     94     96    101   5     0.00000    20.50160     0.00000  0.0
     95     94     96    100   5     0.00000    20.50160     0.00000  0.0
     95     94     96    101   5     0.00000    20.50160     0.00000  0.0
     93    102    103    104   5    -8.00818    -1.52298     2.46438  0.0
     93    102    103    109   5     0.00000     0.00000     1.25520  0.0
     93    102    103    112   5     4.74884    -0.63178     1.67360  0.0
    107    102    103    104   5     0.00000     0.00000    -0.94140  0.0
    107    102    103    109   5     0.00000     0.00000     1.25520  0.0
    107    102    103    112   5     0.00000     0.00000     1.25520  0.0
    108    102    103    104   5     0.00000     0.00000    -0.94140  0.0
    108    102    103    109   5     0.00000     0.00000     1.25520  0.0
    108    102    103    112   5     0.00000     0.00000     1.25520  0.0
    102    103    104    105   5     0.00000     2.52295     0.00000  0.0
    102    103    104    106   5    11.69428    -0.66526    -1.56900  0.0
    109    103    104    105   5     0.00000     0.00000     0.00000  0.0
    109    103    104    106   5     0.00000     0.00000     0.00000  0.0
    112    103    104    105   5     0.00000     2.52295     0.00000  0.0
    112    103    104    106   5    11.69428    -0.66526    -1.56900  0.0
    102    103    112    113   5     4.74884    -0.63178     1.67360  0.0
    102    103    112    117   5     0.00000     0.00000     1.25520  0.0
    102    103    112    118   5     0.00000     0.00000     1.25520  0.0
    104    103    112    113   5    -8.00818    -1.52298     2.46438  0.0
    104    103    112    117   5     0.00000     0.00000    -0.94140  0.0
    104    103    112    118   5     0.00000     0.00000    -0.94140  0.0
    109    103    112    113   5     0.00000     0.00000     1.25520  0.0
    109    103    112    117   5     0.00000     0.00000     1.25520  0.0
    109    103    112    118   5     0.00000     0.00000     1.25520  0.0
    103    104    106    110   5     0.00000    20.50160     0.00000  0.0
    103    104    106    111   5     0.00000    20.50160     0.00000  0.0
    105    104    106    110   5     0.00000    20.50160     0.00000  0.0
    105    104    106    111   5     0.00000    20.50160     0.00000  0.0
    103    112    113    114   5    -8.00818    -1.52298     2.46438  0.0
    103    112    113    119   5     0.00000     0.00000     1.25520  0.0
    103    112    113    122   5     4.74884    -0.63178     1.67360  0.0
    117    112    113    114   5     0.00000     0.00000    -0.94140  0.0
    117    112    113    119   5     0.00000     0.00000     1.25520  0.0
    117    112    113    122   5     0.00000     0.00000     1.25520  0.0
    118    112    113    114   5     0.00000     0.00000    -0.94140  0.0
    118    112    113    119   5     0.00000     0.00000     1.25520  0.0
    118    112    113    122   5     0.00000     0.00000     1.25520  0.0
    112    113    114    115   5     0.00000     2.52295     0.00000  0.0
    112    113    114    116   5    11.69428    -0.66526    -1.56900  0.0
    119    113    114    115   5     0.00000     0.00000     0.00000  0.0
    119    113    114    116   5     0.00000     0.00000     0.00000  0.0
    122    113    114    115   5     0.00000     2.52295     0.00000  0.0
    122    113    114    116   5    11.69428    -0.66526    -1.56900  0.0
    112    113    122    123   5     4.74884    -0.63178     1.67360  0.0
    112    113    122    127   5     0.00000     0.00000     1.25520  0.0
    112    113    122    128   5     0.00000     0.00000     1.25520  0.0
    114    113    122    123   5    -8.00818    -1.52298     2.46438  0.0
    114    113    122    127   5     0.00000     0.00000    -0.94140  0.0
    114    113    122    128   5     0.00000     0.00000    -0.94140  0.0
    119    113    122    123   5     0.00000     0.00000     1.25520  0.0
    119    113    122    127   5     0.00000     0.00000     1.25520  0.0
    119    113    122    128   5     0.00000     0.00000     1.25520  0.0
    113    114    116    120   5     0.00000    20.50160     0.00000  0.0
    113    114    116    121   5     0.00000    20.50160     0.00000  0.0
    115    114    116    120   5     0.00000    20.50160     0.00000  0.0
    115    114    116    121   5     0.00000    20.50160     0.00000  0.0
    113    122    123    124   5    -8.00818    -1.52298     2.46438  0.0
    113    122    123    129   5     0.00000     0.00000     1.25520  0.0
    113    122    123    132   5     4.74884    -0.63178     1.67360  0.0
    127    122    123    124   5     0.00000     0.00000    -0.94140  0.0
    127    122    123    129   5     0.00000     0.00000     1.25520  0.0
    127    122    123    132   5     0.00000     0.00000     1.25520  0.0
    128    122    123    124   5     0.00000     0.00000    -0.94140  0.0
    128    122    123    129   5     0.00000     0.00000     1.25520  0.0
    128    122    123    132   5     0.00000     0.00000     1.25520  0.0
    122    123    124    125   5     0.00000     2.52295     0.00000  0.0
    122    123    124    126   5    11.69428    -0.66526    -1.56900  0.0
    129    123    124    125   5     0.00000     0.00000     0.00000  0.0
    129    123    124    126   5     0.00000     0.00000     0.00000  0.0
    132    123    124    125   5     0.00000     2.52295     0.00000  0.0
    132    123    124    126   5    11.69428    -0.66526    -1.56900  0.0
    122    123    132    133   5     4.74884    -0.63178     1.67360  0.0
    122    123    132    137   5     0.00000     0.00000     1.25520  0.0
    122    123    132    138   5     0.00000     0.00000     1.25520  0.0
    124    123    132    133   5    -8.00818    -1.52298     2.46438  0.0
    124    123    132    137   5     0.00000     0.00000    -0.94140  0.0
    124    123    132    138   5     0.00000     0.00000    -0.94140  0.0
    129    123    132    133   5     0.00000     0.00000     1.25520  0.0
    129    123    132    137   5     0.00000     0.00000     1.25520  0.0
    129    123    132    138   5     0.00000     0.00000     1.25520  0.0
    123    124    126    130   5     0.00000    20.50160     0.00000  0.0
    123    124    126    131   5     0.00000    20.50160     0.00000  0.0
    125    124    126    130   5     0.00000    20.50160     0.00000  0.0
    125    124    126    131   5     0.00000    20.50160     0.00000  0.0
    123    132    133    134   5    -8.00818    -1.52298     2.46438  0.0
    123    132    133    139   5     0.00000     0.00000     1.25520  0.0
    123    132    133    142   5     4.74884    -0.63178     1.67360  0.0
    137    132    133    134   5     0.00000     0.00000    -0.94140  0.0
    137    132    133    139   5     0.00000     0.00000     1.25520  0.0
    137    132    133    142   5     0.00000     0.00000     1.25520  0.0
    138    132    133    134   5     0.00000     0.00000    -0.94140  0.0
    138    132    133    139   5     0.00000     0.00000     1.25520  0.0
    138    132    133    142   5     0.00000     0.00000     1.25520  0.0
    132    133    134    135   5     0.00000     2.52295     0.00000  0.0
    132    133    134    136   5    11.69428    -0.66526    -1.56900  0.0
    139    133    134    135   5     0.00000     0.00000     0.00000  0.0
    139    133    134    136   5     0.00000     0.00000     0.00000  0.0
    142    133    134    135   5     0.00000     2.52295     0.00000  0.0
    142    133    134    136   5    11.69428    -0.66526    -1.56900  0.0
    132    133    142    143   5     4.74884    -0.63178     1.67360  0.0
    132    133    142    147   5     0.00000     0.00000     1.25520  0.0
    132    133    142    148   5     0.00000     0.00000     1.25520  0.0
    134    133    142    143   5    -8.00818    -1.52298     2.46438  0.0
    134    133    142    147   5     0.00000     0.00000    -0.94140  0.0
    134    133    142    148   5     0.00000     0.00000    -0.94140  0.0
    139    133    142    143   5     0.00000     0.00000     1.25520  0.0
    139    133    142    147   5     0.00000     0.00000     1.25520  0.0
    139    133    142    148   5     0.00000     0.00000     1.25520  0.0
    133    134    136    140   5     0.00000    20.50160     0.00000  0.0
    133    134    136    141   5     0.00000    20.50160     0.00000  0.0
    135    134    136    140   5     0.00000    20.50160     0.00000  0.0
    135    134    136    141   5     0.00000    20.50160     0.00000  0.0
    133    142    143    144   5    -8.00818    -1.52298     2.46438  0.0
    133    142    143    149   5     0.00000     0.00000     1.25520  0.0
    133    142    143    152   5     4.74884    -0.63178     1.67360  0.0
    147    142    143    144   5     0.00000     0.00000    -0.94140  0.0
    147    142    143    149   5     0.00000     0.00000     1.25520  0.0
    147    142    143    152   5     0.00000     0.00000     1.25520  0.0
    148    142    143    144   5     0.00000     0.00000    -0.94140  0.0
    148    142    143    149   5     0.00000     0.00000     1.25520  0.0
    148    142    143    152   5     0.00000     0.00000     1.25520  0.0
    142    143    144    145   5     0.00000     2.52295     0.00000  0.0
    142    143    144    146   5    11.69428    -0.66526    -1.56900  0.0
    149    143    144    145   5     0.00000     0.00000     0.00000  0.0
    149    143    144    146   5     0.00000     0.00000     0.00000  0.0
    152    143    144    145   5     0.00000     2.52295     0.00000  0.0
    152    143    144    146   5    11.69428    -0.66526    -1.56900  0.0
    142    143    152    153   5     4.74884    -0.63178     1.67360  0.0
    142    143    152    157   5     0.00000     0.00000     1.25520  0.0
    142    143    152    158   5     0.00000     0.00000     1.25520  0.0
    144    143    152    153   5    -8.00818    -1.52298     2.46438  0.0
    144    143    152    157   5     0.00000     0.00000    -0.94140  0.0
    144    143    152    158   5     0.00000     0.00000    -0.94140  0.0
    149    143    152    153   5     0.00000     0.00000     1.25520  0.0
    149    143    152    157   5     0.00000     0.00000     1.25520  0.0
    149    143    152    158   5     0.00000     0.00000     1.25520  0.0
    143    144    146    150   5     0.00000    20.50160     0.00000  0.0
    143    144    146    151   5     0.00000    20.50160     0.00000  0.0
    145    144    146    150   5     0.00000    20.50160     0.00000  0.0
    145    144    146    151   5     0.00000    20.50160     0.00000  0.0
    143    152    153    154   5    -8.00818    -1.52298     2.46438  0.0
    143    152    153    159   5     0.00000     0.00000     1.25520  0.0
    143    152    153    162   5     4.74884    -0.63178     1.67360  0.0
    157    152    153    154   5     0.00000     0.00000    -0.94140  0.0
    157    152    153    159   5     0.00000     0.00000     1.25520  0.0
    157    152    153    162   5     0.00000     0.00000     1.25520  0.0
    158    152    153    154   5     0.00000     0.00000    -0.94140  0.0
    158    152    153    159   5     0.00000     0.00000     1.25520  0.0
    158    152    153    162   5     0.00000     0.00000     1.25520  0.0
    152    153    154    155   5     0.00000     2.52295     0.00000  0.0
    152    153    154    156   5    11.69428    -0.66526    -1.56900  0.0
    159    153    154    155   5     0.00000     0.00000     0.00000  0.0
    159    153    154    156   5     0.00000     0.00000     0.00000  0.0
    162    153    154    155   5     0.00000     2.52295     0.00000  0.0
    162    153    154    156   5    11.69428    -0.66526    -1.56900  0.0
    152    153    162    163   5     4.74884    -0.63178     1.67360  0.0
    152    153    162    167   5     0.00000     0.00000     1.25520  0.0
    152    153    162    168   5     0.00000     0.00000     1.25520  0.0
    154    153    162    163   5    -8.00818    -1.52298     2.46438  0.0
    154    153    162    167   5     0.00000     0.00000    -0.94140  0.0
    154    153    162    168   5     0.00000     0.00000    -0.94140  0.0
    159    153    162    163   5     0.00000     0.00000     1.25520  0.0
    159    153    162    167   5     0.00000     0.00000     1.25520  0.0
    159    153    162    168   5     0.00000     0.00000     1.25520  0.0
    153    154    156    160   5     0.00000    20.50160     0.00000  0.0
    153    154    156    161   5     0.00000    20.50160     0.00000  0.0
    155    154    156    160   5     0.00000    20.50160     0.00000  0.0
    155    154    156    161   5     0.00000    20.50160     0.00000  0.0
    153    162    163    164   5    -8.00818    -1.52298     2.46438  0.0
    153    162    163    169   5     0.00000     0.00000     1.25520  0.0
    153    162    163    172   5     4.74884    -0.63178     1.67360  0.0
    167    162    163    164   5     0.00000     0.00000    -0.94140  0.0
    167    162    163    169   5     0.00000     0.00000     1.25520  0.0
    167    162    163    172   5     0.00000     0.00000     1.25520  0.0
    168    162    163    164   5     0.00000     0.00000    -0.94140  0.0
    168    162    163    169   5     0.00000     0.00000     1.25520  0.0
    168    162    163    172   5     0.00000     0.00000     1.25520  0.0
    162    163    164    165   5     0.00000     2.52295     0.00000  0.0
    162    163    164    166   5    11.69428    -0.66526    -1.56900  0.0
    169    163    164    165   5     0.00000     0.00000     0.00000  0.0
    169    163    164    166   5     0.00000     0.00000     0.00000  0.0
    172    163    164    165   5     0.00000     2.52295     0.00000  0.0
    172    163    164    166   5    11.69428    -0.66526    -1.56900  0.0
    162    163    172    173   5     4.74884    -0.63178     1.67360  0.0
    162    163    172    177   5     0.00000     0.00000     1.25520  0.0
    162    163    172    178   5     0.00000     0.00000     1.25520  0.0
    164    163    172    173   5    -8.00818    -1.52298     2.46438  0.0
    164    163    172    177   5     0.00000     0.00000    -0.94140  0.0
    164    163    172    178   5     0.00000     0.00000    -0.94140  0.0
    169    163    172    173   5     0.00000     0.00000     1.25520  0.0
    169    163    172    177   5     0.00000     0.00000     1.25520  0.0
    169    163    172    178   5     0.00000     0.00000     1.25520  0.0
    163    164    166    170   5     0.00000    20.50160     0.00000  0.0
    163    164    166    171   5     0.00000    20.50160     0.00000  0.0
    165    164    166    170   5     0.00000    20.50160     0.00000  0.0
    165    164    166    171   5     0.00000    20.50160     0.00000  0.0
    163    172    173    174   5    -8.00818    -1.52298     2.46438  0.0
    163    172    173    179   5     0.00000     0.00000     1.25520  0.0
    163    172    173    182   5     4.74884    -0.63178     1.67360  0.0
    177    172    173    174   5     0.00000     0.00000    -0.94140  0.0
    177    172    173    179   5     0.00000     0.00000     1.25520  0.0
    177    172    173    182   5     0.00000     0.00000     1.25520  0.0
    178    172    173    174   5     0.00000     0.00000    -0.94140  0.0
    178    172    173    179   5     0.00000     0.00000     1.25520  0.0
    178    172    173    182   5     0.00000     0.00000     1.25520  0.0
    172    173    174    175   5     0.00000     2.52295     0.00000  0.0
    172    173    174    176   5    11.69428    -0.66526    -1.56900  0.0
    179    173    174    175   5     0.00000     0.00000     0.00000  0.0
    179    173    174    176   5     0.00000     0.00000     0.00000  0.0
    182    173    174    175   5     0.00000     2.52295     0.00000  0.0
    182    173    174    176   5    11.69428    -0.66526    -1.56900  0.0
    172    173    182    183   5     4.74884    -0.63178     1.67360  0.0
    172    173    182    187   5     0.00000     0.00000     1.25520  0.0
    172    173    182    188   5     0.00000     0.00000     1.25520  0.0
    174    173    182    183   5    -8.00818    -1.52298     2.46438  0.0
    174    173    182    187   5     0.00000     0.00000    -0.94140  0.0
    174    173    182    188   5     0.00000     0.00000    -0.94140  0.0
    179    173    182    183   5     0.00000     0.00000     1.25520  0.0
    179    173    182    187   5     0.00000     0.00000     1.25520  0.0
    179    173    182    188   5     0.00000     0.00000     1.25520  0.0
    173    174    176    180   5     0.00000    20.50160     0.00000  0.0
    173    174    176    181   5     0.00000    20.50160     0.00000  0.0
    175    174    176    180   5     0.00000    20.50160     0.00000  0.0
    175    174    176    181   5     0.00000    20.50160     0.00000  0.0
    173    182    183    184   5    -8.00818    -1.52298     2.46438  0.0
    173    182    183    189   5     0.00000     0.00000     1.25520  0.0
    173    182    183    192   5     4.74884    -0.63178     1.67360  0.0
    187    182    183    184   5     0.00000     0.00000    -0.94140  0.0
    187    182    183    189   5     0.00000     0.00000     1.25520  0.0
    187    182    183    192   5     0.00000     0.00000     1.25520  0.0
    188    182    183    184   5     0.00000     0.00000    -0.94140  0.0
    188    182    183    189   5     0.00000     0.00000     1.25520  0.0
    188    182    183    192   5     0.00000     0.00000     1.25520  0.0
    182    183    184    185   5     0.00000     2.52295     0.00000  0.0
    182    183    184    186   5    11.69428    -0.66526    -1.56900  0.0
    189    183    184    185   5     0.00000     0.00000     0.00000  0.0
    189    183    184    186   5     0.00000     0.00000     0.00000  0.0
    192    183    184    185   5     0.00000     2.52295     0.00000  0.0
    192    183    184    186   5    11.69428    -0.66526    -1.56900  0.0
    182    183    192    193   5     4.74884    -0.63178     1.67360  0.0
    182    183    192    197   5     0.00000     0.00000     1.25520  0.0
    182    183    192    198   5     0.00000     0.00000     1.25520  0.0
    184    183    192    193   5    -8.00818    -1.52298     2.46438  0.0
    184    183    192    197   5     0.00000     0.00000    -0.94140  0.0
    184    183    192    198   5     0.00000     0.00000    -0.94140  0.0
    189    183    192    193   5     0.00000     0.00000     1.25520  0.0
    189    183    192    197   5     0.00000     0.00000     1.25520  0.0
    189    183    192    198   5     0.00000     0.00000     1.25520  0.0
    183    184    186    190   5     0.00000    20.50160     0.00000  0.0
    183    184    186    191   5     0.00000    20.50160     0.00000  0.0
    185    184    186    190   5     0.00000    20.50160     0.00000  0.0
    185    184    186    191   5     0.00000    20.50160     0.00000  0.0
    183    192    193    194   5    -8.00818    -1.52298     2.46438  0.0
    183    192    193    199   5     0.00000     0.00000     1.25520  0.0
    183    192    193    202   5     0.00000     0.00000     1.25520  0.0
    197    192    193    194   5     0.00000     0.00000    -0.94140  0.0
    197    192    193    199   5     0.00000     0.00000     1.25520  0.0
    197    192    193    202   5     0.00000     0.00000     1.25520  0.0
    198    192    193    194   5     0.00000     0.00000    -0.94140  0.0
    198    192    193    199   5     0.00000     0.00000     1.25520  0.0
    198    192    193    202   5     0.00000     0.00000     1.25520  0.0
    192    193    194    195   5     0.00000     2.52295     0.00000  0.0
    192    193    194    196   5    11.69428    -0.66526    -1.56900  0.0
    199    193    194    195   5     0.00000     0.00000     0.00000  0.0
    199    193    194    196   5     0.00000     0.00000     0.00000  0.0
    202    193    194    195   5     0.00000     0.00000     0.00000  0.0
    202    193    194    196   5     0.00000     0.00000     0.00000  0.0
    193    194    196    200   5     0.00000    20.50160     0.00000  0.0
    193    194    196    201   5     0.00000    20.50160     0.00000  0.0
    195    194    196    200   5     0.00000    20.50160     0.00000  0.0
    195    194    196    201   5     0.00000    20.50160     0.00000  0.0

[ dihedrals ]
; Improper dihedrals
; h   i   j   k   funct
      2      4      3      5   5     0.00000    87.86400     0.00000  0.0
      3      9      5     10   5     0.00000     8.36800     0.00000  0.0
     13     15     14     16   5     0.00000    87.86400     0.00000  0.0
     14     20     16     21   5     0.00000     8.36800     0.00000  0.0
     23     25     24     26   5     0.00000    87.86400     0.00000  0.0
     24     30     26     31   5     0.00000     8.36800     0.00000  0.0
     33     35     34     36   5     0.00000    87.86400     0.00000  0.0
     34     40     36     41   5     0.00000     8.36800     0.00000  0.0
     43     45     44     46   5     0.00000    87.86400     0.00000  0.0
     44     50     46     51   5     0.00000     8.36800     0.00000  0.0
     53     55     54     56   5     0.00000    87.86400     0.00000  0.0
     54     60     56     61   5     0.00000     8.36800     0.00000  0.0
     63     65     64     66   5     0.00000    87.86400     0.00000  0.0
     64     70     66     71   5     0.00000     8.36800     0.00000  0.0
     73     75     74     76   5     0.00000    87.86400     0.00000  0.0
     74     80     76     81   5     0.00000     8.36800     0.00000  0.0
     83     85     84     86   5     0.00000    87.86400     0.00000  0.0
     84     90     86     91   5     0.00000     8.36800     0.00000  0.0
     93     95     94     96   5     0.00000    87.86400     0.00000  0.0
     94    100     96    101   5     0.00000     8.36800     0.00000  0.0
    103    105    104    106   5     0.00000    87.86400     0.00000  0.0
    104    110    106    111   5     0.00000     8.36800     0.00000  0.0
    113    115    114    116   5     0.00000    87.86400     0.00000  0.0
    114    120    116    121   5     0.00000     8.36800     0.00000  0.0
    123    125    124    126   5     0.00000    87.86400     0.00000  0.0
    124    130    126    131   5     0.00000     8.36800     0.00000  0.0
    133    135    134    136   5     0.00000    87.86400     0.00000  0.0
    134    140    136    141   5     0.00000     8.36800     0.00000  0.0
    143    145    144    146   5     0.00000    87.86400     0.00000  0.0
    144    150    146    151   5     0.00000     8.36800     0.00000  0.0
    153    155    154    156   5     0.00000    87.86400     0.00000  0.0
    154    160    156    161   5     0.00000     8.36800     0.00000  0.0
    163    165    164    166   5     0.00000    87.86400     0.00000  0.0
    164    170    166    171   5     0.00000     8.36800     0.00000  0.0
    173    175    174    176   5     0.00000    87.86400     0.00000  0.0
    174    180    176    181   5     0.00000     8.36800     0.00000  0.0
    183    185    184    186   5     0.00000    87.86400     0.00000  0.0
    184    190    186    191   5     0.00000     8.36800     0.00000  0.0
    193    195    194    196   5     0.00000    87.86400     0.00000  0.0
    194    200    196    201   5     0.00000     8.36800     0.00000  0.0
